G4POcore-PETIM in water
75381
    1aaa     O1    1   0.941   9.044   3.869 -0.0715 -0.4729 -0.0086
    1aaa     C1    2   1.044   8.951   3.837  0.1046  0.3588 -0.2765
    1aaa     H1    3   1.099   8.921   3.927 -0.5733 -1.6976 -0.4901
    1aaa     H2    4   1.120   8.992   3.769  0.9552 -0.3288  0.2325
    1aaa     C2    5   0.976   9.152   3.955  0.4960 -0.2366 -0.1519
    1aaa     H3    6   1.069   9.198   3.921  0.0084 -0.0387 -1.2771
    1aaa     H4    7   0.998   9.109   4.053  0.3242 -1.5540 -0.6726
    1aaa     C3    8   0.977   8.823   3.770  0.5548 -0.1791  0.7792
    1aaa     H5    9   0.892   8.801   3.836  1.5028 -0.9238  1.7945
    1aaa     H6   10   1.040   8.733   3.775  2.0232  0.4593 -2.9477
    1aaa     C4   11   0.868   9.259   3.948 -0.0959 -0.1903  0.5594
    1aaa     H7   12   0.886   9.344   4.014 -0.0657  0.3545 -0.1354
    1aaa     H8   13   0.773   9.219   3.986 -1.0001  2.1854  0.9625
    1aaa     C5   14   0.939   8.850   3.627  0.0900  0.4600  0.0314
    1aaa     H9   15   0.878   8.941   3.619  0.5746  0.6568 -2.0602
    1aaa    H10   16   1.033   8.869   3.574 -0.0099  0.3622 -0.1846
    1aaa     C6   17   0.852   9.311   3.801 -0.0341  0.0598  0.4131
    1aaa    H11   18   0.761   9.372   3.797  0.8466  1.5410  1.8028
    1aaa    H12   19   0.814   9.226   3.743  0.3640  0.3159 -0.2338
    1aaa     N1   20   0.871   8.741   3.563  0.8217  1.1209  0.9756
    1aaa     N2   21   0.963   9.377   3.741  0.0594 -0.2653  0.8205
    1aaa     C7   22   1.004   9.493   3.822 -0.4157 -0.0901  0.4564
    1aaa    H13   23   0.936   9.577   3.803  0.3605  0.6785  1.0314
    1aaa    H14   24   1.007   9.480   3.931  0.1252  0.3227  0.4957
    1aaa     C8   25   0.940   9.404   3.599  0.3098 -0.1675 -0.4109
    1aaa    H15   26   0.862   9.481   3.589 -0.9798 -1.0545  1.9549
    1aaa    H16   27   1.031   9.439   3.549  0.0587  4.0476  1.6742
    1aaa     C9   28   0.731   8.737   3.607  0.4811 -0.3501  0.6369
    1aaa    H17   29   0.728   8.680   3.700 -0.3109  0.5628  1.1890
    1aaa    H18   30   0.698   8.840   3.618 -1.3132 -0.6690 -1.1050
    1aaa    C10   31   0.941   8.614   3.561  0.1203 -0.0385  0.6257
    1aaa    H19   32   0.935   8.564   3.658 -3.3816 -0.7968  0.1525
    1aaa    H20   33   0.879   8.541   3.508 -0.6274  0.4685  0.7930
    1aaa    C11   34   1.153   9.530   3.797 -0.1401  0.2903 -0.9337
    1aaa    H21   35   1.184   9.525   3.692  2.7693 -1.0250 -0.1156
    1aaa    H22   36   1.174   9.630   3.836  1.4967 -0.5121  0.3958
    1aaa    C12   37   0.891   9.286   3.515  0.1290  0.0143  0.9201
    1aaa    H23   38   0.959   9.201   3.512  2.0795  1.5060 -1.6162
    1aaa    H24   39   0.791   9.256   3.550 -0.4110  0.6697 -0.0013
    1aaa    C13   40   0.637   8.672   3.500  0.6511 -0.3723  0.0200
    1aaa    H25   41   0.634   8.723   3.403 -4.0524 -0.5385 -0.1462
    1aaa    H26   42   0.663   8.570   3.470 -0.6205 -0.6339 -0.2652
    1aaa    C14   43   1.064   8.621   3.469 -0.2946  0.2942 -0.4179
    1aaa    H27   44   1.077   8.525   3.417 -2.1577  0.5366 -1.3976
    1aaa    H28   45   1.040   8.686   3.384 -0.3253 -0.1797 -0.7815
    1aaa    C15   46   1.207   8.666   3.520  0.4409  0.6667 -0.1480
    1aaa    H29   47   1.263   8.713   3.438  1.8407 -0.4797  0.1011
    1aaa    H30   48   1.195   8.747   3.594  0.9487  0.0733  0.6035
    1aaa    C16   49   0.487   8.664   3.555  0.0315  0.0591  0.3239
    1aaa    H31   50   0.444   8.763   3.575 -2.3776 -0.2399 -2.6478
    1aaa    H32   51   0.420   8.619   3.480 -0.6931 -1.4981  1.8500
    1aaa    C17   52   0.854   9.325   3.366 -0.1872 -0.0839 -0.4978
    1aaa    H33   53   0.833   9.239   3.301 -0.7456  0.4502 -1.0347
    1aaa    H34   54   0.767   9.392   3.360 -0.5157 -0.4798 -0.2575
    1aaa    C18   55   1.242   9.433   3.878  0.3925 -0.1073 -0.1350
    1aaa    H35   56   1.205   9.423   3.981  0.5352 -0.4061 -0.1105
    1aaa    H36   57   1.252   9.331   3.839 -0.7238 -1.4362  2.7544
    2bbb     N1   58   1.206   8.246   3.871 -0.7732  0.3239  0.1890
    2bbb     C1   59   1.157   8.244   4.012 -0.1240  0.2057  0.4281
    2bbb     H1   60   1.234   8.206   4.079 -0.6459 -0.3749  0.7073
    2bbb     H2   61   1.062   8.189   4.014 -2.1754  3.4306 -0.2617
    2bbb     C2   62   1.205   8.117   3.792 -0.7241 -0.6134 -0.3483
    2bbb     H3   63   1.257   8.039   3.849 -0.6188 -0.3180 -0.0356
    2bbb     H4   64   1.254   8.121   3.693  1.1740  0.3939  0.5704
    2bbb     C3   65   1.342   8.323   3.861  0.3681 -0.3449  0.5952
    2bbb     H5   66   1.422   8.248   3.866 -0.0685 -0.7547  1.8732
    2bbb     H6   67   1.367   8.390   3.945  1.1935 -0.2470  0.2837
    2bbb     C4   68   1.352   8.393   3.720  0.4348  0.5609  0.1504
    2bbb     H7   69   1.360   8.330   3.630 -0.2263  1.6611 -0.7050
    2bbb     H8   70   1.450   8.442   3.722  0.6620  0.2603  4.2339
    2bbb     C5   71   1.111   8.388   4.048 -0.5174  0.0074  0.2094
    2bbb     H9   72   1.190   8.459   4.021  2.2079 -2.7868  0.3357
    2bbb    H10   73   1.089   8.407   4.153 -2.0046  0.0019 -0.0742
    2bbb     C6   74   1.058   8.068   3.772  0.1475  0.1779 -1.2121
    2bbb    H11   75   1.013   8.045   3.869  0.3405  0.6621 -1.0050
    2bbb    H12   76   1.063   7.969   3.723 -0.5720 -0.1918 -0.5620
    2bbb     C7   77   1.239   8.493   3.695  0.2398 -0.1542  0.8281
    2bbb    H13   78   1.234   8.559   3.783  3.5407 -2.5026  3.0673
    2bbb    H14   79   1.148   8.438   3.668  1.3223 -1.3829 -0.4477
    2bbb     C8   80   0.979   8.168   3.681  0.3243 -0.1505 -0.5710
    2bbb    H15   81   1.053   8.203   3.608  0.8369 -1.5935 -0.7772
    2bbb    H16   82   0.956   8.257   3.741  0.4175 -0.9167  0.6413
    2bbb     C9   83   0.989   8.425   3.959  0.0985  0.6223 -0.3474
    2bbb    H17   84   1.010   8.424   3.852 -1.5718  0.9536 -0.6923
    2bbb    H18   85   0.954   8.524   3.993 -1.8812 -0.8173  2.2181
    2bbb     O1   86   1.280   8.559   3.575  0.0685  0.2629  0.3029
    3bbb     N1   87   0.483   8.607   4.105  0.4776  0.0279  0.0456
    3bbb     C1   88   0.583   8.694   4.174 -0.3276  0.3654 -0.5253
    3bbb     H1   89   0.622   8.629   4.253 -1.8793  0.2406  0.1706
    3bbb     H2   90   0.537   8.779   4.226  1.1777  0.9156 -0.0318
    3bbb     C2   91   0.368   8.590   4.196  0.6103  0.6009 -0.1524
    3bbb     H3   92   0.286   8.531   4.154  0.5260  1.2763 -0.9902
    3bbb     H4   93   0.324   8.686   4.226 -2.0754 -1.6578  3.9764
    3bbb     C3   94   0.440   8.655   3.975 -0.1150 -0.8301  0.0386
    3bbb     H5   95   0.525   8.678   3.909  0.1405 -1.8744  0.0013
    3bbb     H6   96   0.378   8.744   3.993  0.9062  0.0694 -0.7223
    3bbb     C4   97   0.371   8.542   3.901 -0.0165  0.1003 -0.2154
    3bbb     H7   98   0.267   8.526   3.932 -0.0980  1.4593  0.2787
    3bbb     H8   99   0.406   8.440   3.922  3.2414  1.0200 -0.6443
    3bbb     C5  100   0.699   8.738   4.080  0.0545 -0.1030 -0.2040
    3bbb     H9  101   0.662   8.816   4.012 -0.1922 -0.6415 -0.7006
    3bbb    H10  102   0.736   8.658   4.015  0.3104 -0.3536  0.2435
    3bbb     C6  103   0.401   8.512   4.323 -0.2026 -0.1286  0.0961
    3bbb    H11  104   0.315   8.469   4.376  0.4447 -2.1711 -0.4159
    3bbb    H12  105   0.460   8.574   4.391  0.7585  0.2848 -1.0751
    3bbb     C7  106   0.357   8.566   3.745  0.1093  0.4021  0.5734
    3bbb    H13  107   0.289   8.648   3.719  0.3626  0.8182  1.2129
    3bbb    H14  108   0.312   8.476   3.700 -0.1686 -0.6413  2.8236
    3bbb     C8  109   0.475   8.381   4.293  0.6145  0.8058  0.1062
    3bbb    H15  110   0.547   8.385   4.210  0.6225 -0.2016  0.0517
    3bbb    H16  111   0.403   8.303   4.265 -0.2654  0.9351  1.8584
    3bbb     C9  112   0.822   8.800   4.158  0.3199  0.1748  0.7440
    3bbb    H17  113   0.781   8.879   4.222  1.9238  1.2543  0.4866
    3bbb    H18  114   0.884   8.856   4.087  0.7314  1.3477  2.0034
    3bbb     O1  115   0.484   8.589   3.677 -0.3409 -0.5784  0.3228
    4bbb     N1  116   1.265   9.690   3.255 -0.2915  0.0844  0.1224
    4bbb     C1  117   1.371   9.610   3.307 -0.4183  0.6384 -0.7529
    4bbb     H1  118   1.469   9.657   3.289  0.3758  0.1498  1.9068
    4bbb     H2  119   1.371   9.516   3.251 -1.6033 -0.4834  1.0260
    4bbb     C2  120   1.261   9.825   3.311 -0.6934  0.7399  0.1671
    4bbb     H3  121   1.238   9.819   3.418  1.7883 -1.7450  0.6869
    4bbb     H4  122   1.175   9.868   3.259 -0.7404 -0.5006 -0.8474
    4bbb     C3  123   1.124   9.634   3.257  0.0542 -0.1311  0.4951
    4bbb     H5  124   1.048   9.702   3.216 -0.5386 -1.2316 -0.2723
    4bbb     H6  125   1.094   9.605   3.358  0.8279  0.8149  1.0154
    4bbb     C4  126   1.110   9.508   3.175 -0.7832  0.4953  0.0313
    4bbb     H7  127   1.180   9.427   3.200 -1.3112  0.2807  0.8503
    4bbb     H8  128   1.130   9.539   3.072 -1.3135 -0.8372 -0.4971
    4bbb     C5  129   1.351   9.575   3.459 -0.4707 -0.5526  0.1602
    4bbb     H9  130   1.267   9.508   3.482  1.6069 -2.5642  2.5158
    4bbb    H10  131   1.331   9.664   3.518  0.7509 -0.5142  0.5483
    4bbb     C6  132   1.386   9.916   3.301 -0.4432  0.0574 -0.7217
    4bbb    H11  133   1.423   9.904   3.199 -1.0190  0.8357 -1.0314
    4bbb    H12  134   1.461   9.881   3.373 -1.0442  3.6636  1.9441
    4bbb     C7  135   0.967   9.446   3.184 -0.1183 -0.0670  0.2868
    4bbb    H13  136   0.959   9.364   3.110  1.5044 -0.0458  0.0481
    4bbb    H14  137   0.885   9.518   3.179 -0.1374 -0.1360 -2.9468
    4bbb     C8  138   1.356  10.062   3.325 -0.7373  0.4778 -0.1523
    4bbb    H15  139   1.259  10.077   3.276 -0.9308  1.5317  0.5157
    4bbb    H16  140   1.431  10.126   3.277 -0.7333 -0.6101 -1.6658
    4bbb     C9  141   1.475   9.506   3.523 -0.0035 -0.6261  0.4039
    4bbb    H17  142   1.498   9.415   3.467  1.9893 -0.0100  0.1441
    4bbb    H18  143   1.464   9.488   3.631 -0.4538  2.6632  1.0197
    4bbb     O1  144   0.970   9.395   3.318  0.2947  0.1281 -0.7388
    5bbb     N1  145   1.855   9.526   3.954  0.0060 -0.4875  0.2189
    5bbb     C1  146   1.975   9.473   4.028  0.9865 -0.1136 -0.9084
    5bbb     H1  147   1.986   9.367   4.000 -1.1118 -0.2933 -1.2496
    5bbb     H2  148   1.960   9.474   4.136 -1.5045 -0.9513 -1.1648
    5bbb     C2  149   1.878   9.525   3.808 -0.5746 -0.1743  0.1791
    5bbb     H3  150   1.965   9.587   3.785 -1.0459  0.7912  0.9055
    5bbb     H4  151   1.791   9.576   3.763  0.0375  1.4318  0.7275
    5bbb     C3  152   1.734   9.459   3.997 -0.2633 -0.3418 -0.0967
    5bbb     H5  153   1.713   9.483   4.102  1.0567 -1.7048  0.5151
    5bbb     H6  154   1.761   9.353   3.986  3.1313  0.6489 -2.7775
    5bbb     C4  155   1.610   9.498   3.911 -0.2167  0.0570  0.3605
    5bbb     H7  156   1.632   9.473   3.806  0.6966 -0.8729  0.7544
    5bbb     H8  157   1.606   9.607   3.915 -0.4379  0.1251 -1.1316
    5bbb     C5  158   2.113   9.544   4.002 -0.3059 -0.6051  0.0739
    5bbb     H9  159   2.089   9.651   4.013  0.9589 -0.2788 -0.1096
    5bbb    H10  160   2.146   9.526   3.899 -0.6706 -0.8153 -0.0038
    5bbb     C6  161   1.885   9.385   3.733  0.0748  0.4154 -0.5117
    5bbb    H11  162   1.787   9.336   3.746  0.6815 -0.8283 -0.4450
    5bbb    H12  163   1.961   9.332   3.792  0.0855  1.4352  0.4260
    5bbb     C7  164   1.477   9.434   3.956 -0.2432  0.2093  0.3550
    5bbb    H13  165   1.466   9.466   4.060  3.3878  1.8877  0.3450
    5bbb    H14  166   1.484   9.326   3.938  3.7921  0.5112 -0.7042
    5bbb     C8  167   1.911   9.397   3.580  0.1681  0.3617 -0.0460
    5bbb    H15  168   1.835   9.460   3.533 -0.3056  0.4031  0.7429
    5bbb    H16  169   1.912   9.298   3.533  0.5556 -0.6793  2.0454
    5bbb     C9  170   2.223   9.506   4.100  0.2400  0.2217 -0.5913
    5bbb    H17  171   2.211   9.400   4.125 -1.2076 -0.1252 -2.5448
    5bbb    H18  172   2.205   9.564   4.191 -0.1405 -1.0429  0.1708
    5bbb     O1  173   1.365   9.492   3.888  0.0468 -0.6916 -0.3166
    6bbb     N1  174   0.477   7.912   3.527  0.3748  0.3121 -0.4783
    6bbb     C1  175   0.518   7.778   3.466 -0.0452 -0.2107 -0.8947
    6bbb     H1  176   0.568   7.801   3.371  0.1057  2.2148 -0.3091
    6bbb     H2  177   0.424   7.722   3.464 -0.5632  0.6306 -0.8302
    6bbb     C2  178   0.380   7.987   3.441  0.7750 -0.2255 -0.7156
    6bbb     H3  179   0.425   8.037   3.355 -0.4851  0.6649 -0.8795
    6bbb     H4  180   0.351   8.074   3.501 -1.4104 -0.5124 -1.2747
    6bbb     C3  181   0.579   7.999   3.582  0.7374 -0.3093 -0.5480
    6bbb     H5  182   0.640   7.940   3.652 -1.5526 -0.3968  1.5204
    6bbb     H6  183   0.528   8.079   3.637 -1.0596  0.0786 -2.6556
    6bbb     C4  184   0.680   8.061   3.485 -0.0123  0.3447  0.0744
    6bbb     H7  185   0.628   8.092   3.394 -0.4059 -1.0212 -0.1921
    6bbb     H8  186   0.743   7.980   3.447 -0.5826 -0.2485  0.3776
    6bbb     C5  187   0.603   7.688   3.562  0.7137  0.2626  0.5833
    6bbb     H9  188   0.706   7.726   3.564 -0.0230  2.4025  0.1875
    6bbb    H10  189   0.603   7.589   3.514  3.5371  1.4228 -2.1716
    6bbb     C6  190   0.261   7.902   3.400 -0.8360  0.2104 -0.0951
    6bbb    H11  191   0.292   7.819   3.336  0.8484  1.5108 -1.0366
    6bbb    H12  192   0.195   7.965   3.340  1.2765  1.2212 -1.4631
    6bbb     C7  193   0.774   8.164   3.539 -0.2867 -0.6273  0.0366
    6bbb    H13  194   0.714   8.241   3.590 -2.0512 -2.2987  0.6113
    6bbb    H14  195   0.832   8.219   3.464 -0.4755 -0.3161  0.1164
    6bbb     C8  196   0.174   7.854   3.518 -0.4191  0.5003 -0.2963
    6bbb    H15  197   0.140   7.937   3.582 -0.8694 -1.0715  1.6199
    6bbb    H16  198   0.233   7.790   3.585 -1.1340 -2.3170 -2.1623
    6bbb     C9  199   0.543   7.665   3.705 -0.3613  0.4967 -0.1284
    6bbb    H17  200   0.509   7.760   3.747  1.7678  0.8074  1.0501
    6bbb    H18  201   0.622   7.626   3.771 -0.8179 -0.0302  0.1182
    6bbb     O1  202   0.864   8.100   3.635  0.4829 -0.0936  0.1452
    7bbb     N1  203   0.592   8.025   3.999  0.4442 -0.4532 -0.2150
    7bbb     C1  204   0.457   8.013   3.934  0.2672 -0.4206 -0.1263
    7bbb     H1  205   0.459   7.919   3.878 -0.2124  0.4365 -1.6550
    7bbb     H2  206   0.441   8.089   3.856  0.2496 -2.3506 -2.0999
    7bbb     C2  207   0.629   7.931   4.110  0.2993 -0.3082 -0.2542
    7bbb     H3  208   0.564   7.956   4.195  2.8251 -0.0159  1.7057
    7bbb     H4  209   0.736   7.936   4.134  0.4285  0.6153 -0.9603
    7bbb     C3  210   0.645   8.162   4.019  0.3938 -0.2590 -0.3465
    7bbb     H5  211   0.741   8.155   4.071  0.0918 -1.0806  0.1352
    7bbb     H6  212   0.575   8.220   4.081 -1.3177  2.0926 -4.1056
    7bbb     C4  213   0.673   8.243   3.889  0.2663  0.5301  0.4959
    7bbb     H7  214   0.580   8.283   3.846  0.0697 -1.2466 -0.8570
    7bbb     H8  215   0.724   8.182   3.814 -0.6781  0.9214 -0.5019
    7bbb     C5  216   0.338   8.011   4.037  0.2339  1.1606 -0.1043
    7bbb     H9  217   0.341   8.097   4.106 -2.2885 -0.2364  1.9288
    7bbb    H10  218   0.340   7.919   4.098  2.2660  1.0953 -0.2242
    7bbb     C6  219   0.606   7.784   4.075  0.9763  0.4621  0.5368
    7bbb    H11  220   0.683   7.743   4.009 -0.0381 -0.7793  0.0745
    7bbb    H12  221   0.503   7.777   4.038  1.3616  0.2614 -0.5443
    7bbb     C7  222   0.771   8.362   3.910 -0.0170 -0.5560  1.0015
    7bbb    H13  223   0.719   8.434   3.974 -1.8881  1.7879 -2.7984
    7bbb    H14  224   0.801   8.420   3.821 -0.3448 -0.3640  1.0130
    7bbb     C8  225   0.616   7.699   4.208 -0.4270  0.4031  0.3638
    7bbb    H15  226   0.575   7.747   4.298 -3.6990 -0.8044 -0.3494
    7bbb    H16  227   0.723   7.676   4.213 -0.5602 -0.5694 -0.8450
    7bbb     C9  228   0.197   8.017   3.960 -0.1590  0.6328 -0.3616
    7bbb    H17  229   0.115   8.001   4.031 -0.0693 -0.4836 -0.5000
    7bbb    H18  230   0.199   7.937   3.886 -3.4891  0.5587 -0.4935
    7bbb     O1  231   0.885   8.325   3.984 -0.4353  0.1336 -0.5523
    8bbb     N1  232   0.759   8.012   4.679 -0.1037 -0.0160 -0.0148
    8bbb     C1  233   0.778   8.081   4.802  0.3419  0.7666  0.2549
    8bbb     H1  234   0.775   8.006   4.882 -0.2121  0.3057 -0.1835
    8bbb     H2  235   0.691   8.145   4.825 -0.0507  0.5866 -0.6888
    8bbb     C2  236   0.848   7.892   4.665  0.1241 -0.4358 -0.0127
    8bbb     H3  237   0.841   7.843   4.763 -0.9403  1.5602  0.9697
    8bbb     H4  238   0.952   7.927   4.670 -0.2437  0.6063  4.2778
    8bbb     C3  239   0.761   8.082   4.553 -0.1908 -0.1155  0.0382
    8bbb     H5  240   0.731   8.014   4.472 -0.3589  1.1297 -0.9873
    8bbb     H6  241   0.862   8.120   4.536  0.2793 -1.1952  0.3166
    8bbb     C4  242   0.659   8.205   4.561  0.3607  0.3328  0.1783
    8bbb     H7  243   0.714   8.283   4.614 -1.1391  1.5342  0.0095
    8bbb     H8  244   0.581   8.184   4.635  1.6386 -0.0285  1.4650
    8bbb     C5  245   0.914   8.162   4.818 -0.1644  1.3939 -0.2635
    8bbb     H9  246   0.927   8.231   4.734 -1.1960 -1.8264 -3.3365
    8bbb    H10  247   1.002   8.096   4.816 -0.1704  1.3558  0.5411
    8bbb     C6  248   0.808   7.777   4.571 -0.0903  0.4124  0.5739
    8bbb    H11  249   0.803   7.811   4.467  2.2390  0.4859  0.4409
    8bbb    H12  250   0.705   7.744   4.589  0.1828 -0.9205 -0.1751
    8bbb     C7  251   0.607   8.226   4.419 -0.5255 -0.3416 -0.1627
    8bbb    H13  252   0.544   8.138   4.402  1.1798 -2.1477  2.2568
    8bbb    H14  253   0.693   8.238   4.352  0.3169 -0.8741  0.7914
    8bbb     C8  254   0.902   7.651   4.576  0.4332 -0.0552 -0.0118
    8bbb    H15  255   0.864   7.577   4.504  0.4494 -0.5913  0.5243
    8bbb    H16  256   0.901   7.598   4.671 -1.1662  0.1503  0.1162
    8bbb     C9  257   0.923   8.245   4.951  0.4145  0.3645  0.3499
    8bbb    H17  258   0.869   8.193   5.031 -1.5320 -0.9841 -1.6819
    8bbb    H18  259   0.867   8.337   4.933 -1.6602 -0.5699  1.5968
    8bbb     O1  260   0.528   8.342   4.421 -0.5675  0.1594 -0.3453
    9bbb     N1  261   1.377   8.617   4.350 -0.4693  0.0080 -0.6363
    9bbb     C1  262   1.435   8.593   4.211  0.3780 -0.4922  0.3398
    9bbb     H1  263   1.434   8.687   4.155  1.3133 -1.2044 -0.9178
    9bbb     H2  264   1.371   8.530   4.147 -0.3671  1.0922 -0.5434
    9bbb     C2  265   1.344   8.487   4.415  0.4095 -0.1990 -0.5559
    9bbb     H3  266   1.423   8.411   4.425 -1.5226 -2.7359 -2.8680
    9bbb     H4  267   1.264   8.441   4.355 -0.3244  0.1967  0.1010
    9bbb     C3  268   1.267   8.718   4.349 -0.5962  0.2266 -0.3457
    9bbb     H5  269   1.309   8.813   4.312  2.7506 -1.1635 -0.4772
    9bbb     H6  270   1.239   8.735   4.453  1.3632  0.7334  0.1326
    9bbb     C4  271   1.138   8.683   4.266 -0.9339  0.1172  0.5763
    9bbb     H7  272   1.112   8.577   4.271  0.4158 -0.2421  0.5523
    9bbb     H8  273   1.171   8.694   4.162 -0.7780 -1.7920  0.3962
    9bbb     C5  274   1.584   8.547   4.210 -0.0778 -0.1680  0.2216
    9bbb     H9  275   1.578   8.447   4.255 -1.4042 -1.5318 -2.6742
    9bbb    H10  276   1.644   8.615   4.271 -1.5367 -0.4936  2.1144
    9bbb     C6  277   1.277   8.489   4.553 -0.3779 -0.0483  0.0869
    9bbb    H11  278   1.188   8.553   4.550 -0.1938  0.2432  0.8536
    9bbb    H12  279   1.339   8.552   4.617 -1.5095  2.9568 -1.5826
    9bbb     C7  280   1.007   8.766   4.298 -0.6257 -0.0537  0.1007
    9bbb    H13  281   1.028   8.865   4.256 -1.8559 -0.3383 -1.2374
    9bbb    H14  282   0.986   8.769   4.406 -2.0137  2.4926 -0.1651
    9bbb     C8  283   1.242   8.350   4.610 -0.6650 -0.6186 -0.2448
    9bbb    H15  284   1.156   8.361   4.678 -0.1800 -1.5892  0.5598
    9bbb    H16  285   1.312   8.321   4.690 -1.1301 -0.1845  0.3330
    9bbb     C9  286   1.639   8.539   4.062 -0.2480  0.0797 -0.0701
    9bbb    H17  287   1.560   8.483   4.012 -0.7224  2.2265 -1.9376
    9bbb    H18  288   1.735   8.485   4.055  0.7405  1.8516 -1.0271
    9bbb     O1  289   0.891   8.712   4.239 -0.1927  0.5260  0.3686
   10bbb     N1  290   1.589  10.195   3.821 -0.6265  0.3589  0.5252
   10bbb     C1  291   1.517  10.109   3.920  0.1534 -0.6617  0.0087
   10bbb     H1  292   1.408  10.118   3.930 -0.1401 -2.3782 -1.2108
   10bbb     H2  293   1.550  10.146   4.018 -1.2281  1.2320 -0.1690
   10bbb     C2  294   1.736  10.189   3.828  0.0215  0.1107 -1.3805
   10bbb     H3  295   1.758  10.259   3.746 -3.6072  0.0546 -2.5786
   10bbb     H4  296   1.792  10.099   3.802  3.2140  1.2678  0.7538
   10bbb     C3  297   1.539  10.183   3.683  0.3150 -1.0845 -0.7182
   10bbb     H5  298   1.552  10.077   3.657  2.4328 -2.6033  4.9992
   10bbb     H6  299   1.597  10.241   3.610 -1.6278  1.7223 -0.1932
   10bbb     C4  300   1.394  10.219   3.659 -0.0892  0.8822  0.0237
   10bbb     H7  301   1.378  10.321   3.696 -1.7628  0.5676  0.2429
   10bbb     H8  302   1.328  10.159   3.723  0.9087 -2.1320 -1.5630
   10bbb     C5  303   1.540   9.955   3.914 -0.0169 -0.0879  0.7606
   10bbb     H9  304   1.513   9.926   4.017 -0.1126  0.9457  1.0334
   10bbb    H10  305   1.648   9.942   3.898 -0.2430 -1.2442  0.0662
   10bbb     C6  306   1.786  10.247   3.967 -0.0881  0.5875  0.4822
   10bbb    H11  307   1.759  10.173   4.043 -0.8706 -1.1470 -1.3920
   10bbb    H12  308   1.736  10.339   4.000  0.7094  0.6996  1.4374
   10bbb     C7  309   1.342  10.212   3.511 -0.0879 -0.4824  0.2570
   10bbb    H13  310   1.398  10.288   3.455  0.3448 -1.0868 -0.1515
   10bbb    H14  311   1.237  10.241   3.500  0.6814  2.3179 -0.5503
   10bbb     C8  312   1.938  10.256   3.948  0.5789 -0.0991  0.4398
   10bbb    H15  313   1.962  10.329   3.869  0.4039  0.3569  0.7987
   10bbb    H16  314   1.982  10.167   3.902  2.8217  0.3517  1.5898
   10bbb     C9  315   1.451   9.878   3.807 -0.2150  0.3464  0.0665
   10bbb    H17  316   1.466   9.770   3.818  0.7176  0.4219 -0.3451
   10bbb    H18  317   1.495   9.911   3.711  1.0200  0.0530  0.5069
   10bbb     O1  318   1.356  10.072   3.466 -0.6731 -0.1211  0.5564
   11bbb     N1  319   1.895   9.949   3.521 -0.4928  0.1814  0.6476
   11bbb     C1  320   1.924   9.976   3.376  0.4005 -0.6849  0.2643
   11bbb     H1  321   1.962   9.883   3.332 -0.4787 -1.3507  0.8780
   11bbb     H2  322   2.009  10.044   3.361 -0.5731  0.6061  0.3528
   11bbb     C2  323   2.014   9.892   3.591  0.4244  0.0401 -0.1460
   11bbb     H3  324   2.098   9.957   3.562 -0.6677  1.9806  0.8146
   11bbb     H4  325   2.029   9.792   3.549 -2.1955 -0.6946  0.5023
   11bbb     C3  326   1.761   9.904   3.555  0.0755  0.1527  0.0008
   11bbb     H5  327   1.683   9.966   3.508  0.5300 -0.4195 -1.5768
   11bbb     H6  328   1.749   9.915   3.663 -1.9900 -0.8901 -0.0672
   11bbb     C4  329   1.732   9.759   3.508  0.6569  0.8585  0.0137
   11bbb     H7  330   1.816   9.692   3.528  1.4863  1.8345 -0.1006
   11bbb     H8  331   1.720   9.767   3.399 -0.4127  1.5565  0.1643
   11bbb     C5  332   1.816  10.048   3.288  0.7766  0.2581 -0.5458
   11bbb     H9  333   1.786  10.139   3.340 -1.2592  0.0524 -1.2660
   11bbb    H10  334   1.733   9.975   3.287  0.7993  0.1675  1.2407
   11bbb     C6  335   2.000   9.898   3.749 -0.2015  0.3325  0.6693
   11bbb    H11  336   1.902   9.856   3.778 -1.7798  1.9703 -1.8313
   11bbb    H12  337   1.993  10.004   3.778  0.1233  0.0954  1.6383
   11bbb     C7  338   1.608   9.702   3.565 -0.0184 -0.3410  0.2463
   11bbb    H13  339   1.520   9.768   3.560 -1.5352 -2.3309 -1.5317
   11bbb    H14  340   1.625   9.671   3.669  0.1858  1.4293  0.7769
   11bbb     C8  341   2.125   9.857   3.821  0.6946  0.0891 -0.0395
   11bbb    H15  342   2.213   9.908   3.781  0.9956 -0.2781  0.1405
   11bbb    H16  343   2.140   9.748   3.813  0.0733 -0.1149  1.2322
   11bbb     C9  344   1.852  10.084   3.136 -0.3169 -0.1521 -0.4614
   11bbb    H17  345   1.759  10.113   3.084 -1.4904 -0.2765  1.4712
   11bbb    H18  346   1.904   9.999   3.091 -0.7488  0.5355 -2.3365
   11bbb     O1  347   1.587   9.590   3.485 -0.3741 -0.0473 -0.4418
   12bbb     N1  348   2.420   9.660   3.520  0.8616  0.8137  0.1461
   12bbb     C1  349   2.468   9.784   3.579 -0.2477 -0.6234  0.2001
   12bbb     H1  350   2.449   9.791   3.687  0.6506  2.9958  0.2601
   12bbb     H2  351   2.408   9.867   3.540 -0.2375 -0.1551  1.1504
   12bbb     C2  352   2.488   9.543   3.572 -0.2089  0.4194  0.3637
   12bbb     H3  353   2.595   9.567   3.564 -0.3386  1.9491  2.2934
   12bbb     H4  354   2.464   9.457   3.509  2.2824  2.5549 -3.9663
   12bbb     C3  355   2.273   9.652   3.511 -0.1899 -0.2352  0.0817
   12bbb     H5  356   2.235   9.744   3.465 -0.3456 -1.1232 -1.6406
   12bbb     H6  357   2.232   9.637   3.611  0.2323 -0.9331  0.1571
   12bbb     C4  358   2.222   9.538   3.420 -0.6891  0.1162  0.0669
   12bbb     H7  359   2.269   9.442   3.444  0.6168  0.3638 -1.3148
   12bbb     H8  360   2.243   9.561   3.315 -1.9332  0.3941 -0.1401
   12bbb     C5  361   2.613   9.824   3.561 -0.6757 -0.7029  0.2869
   12bbb     H9  362   2.631   9.802   3.455  2.1996  2.5411 -0.1009
   12bbb    H10  363   2.676   9.773   3.635  0.8360  0.7922  0.1044
   12bbb     C6  364   2.454   9.499   3.722  0.3224  0.3161  0.8090
   12bbb    H11  365   2.345   9.483   3.731  0.0731  1.6749  0.4658
   12bbb    H12  366   2.478   9.568   3.803 -1.6384  1.3555  0.5584
   12bbb     C7  367   2.069   9.515   3.440  0.2504  0.1912 -0.5592
   12bbb    H13  368   2.040   9.452   3.355 -0.1187  0.3982 -0.5909
   12bbb    H14  369   2.019   9.610   3.416  1.5835  0.8187 -0.9314
   12bbb     C8  370   2.525   9.367   3.748  0.2826 -0.6647 -0.4406
   12bbb    H15  371   2.484   9.287   3.685 -1.3874 -0.5631  0.4483
   12bbb    H16  372   2.497   9.341   3.851 -1.3576 -2.4448 -1.2707
   12bbb     C9  373   2.636   9.982   3.578  0.3959  0.1199 -0.3086
   12bbb    H17  374   2.560  10.008   3.653 -1.7143 -2.6042 -1.3042
   12bbb    H18  375   2.598  10.031   3.487 -2.4525 -0.5021  0.4357
   12bbb     O1  376   2.040   9.458   3.568 -0.0970 -1.0568  0.6358
   13bbb     N1  377   2.724   9.776   4.058 -0.8368  0.3036  0.1543
   13bbb     C1  378   2.708   9.926   4.067  0.8326  0.2610  0.0342
   13bbb     H1  379   2.805   9.977   4.072 -0.6687  3.2924  0.6272
   13bbb     H2  380   2.653   9.955   4.158  0.3564 -0.1093 -0.1321
   13bbb     C2  381   2.811   9.730   3.945 -0.1356  0.1526  0.0252
   13bbb     H3  382   2.753   9.744   3.853  0.7943  1.0079 -0.4609
   13bbb     H4  383   2.815   9.621   3.954 -0.4661 -0.1901 -2.9633
   13bbb     C3  384   2.590   9.702   4.068 -0.0773  0.6227 -0.7828
   13bbb     H5  385   2.515   9.728   3.993 -0.3555  0.1191 -0.6829
   13bbb     H6  386   2.543   9.735   4.161  1.2420 -0.3857  0.2943
   13bbb     C4  387   2.601   9.547   4.077  0.0066  0.4143  0.3741
   13bbb     H7  388   2.680   9.530   4.151  0.1379  0.5525  0.2670
   13bbb     H8  389   2.641   9.503   3.985 -0.0608  0.6297  0.2398
   13bbb     C5  390   2.640   9.989   3.949 -0.3386 -0.2388  0.2443
   13bbb     H9  391   2.544   9.944   3.924 -0.5941  1.2352 -1.6450
   13bbb    H10  392   2.707   9.979   3.863 -0.6768  0.0459 -0.0535
   13bbb     C6  393   2.957   9.786   3.931 -0.3335  0.5786 -0.6779
   13bbb    H11  394   2.953   9.893   3.907 -2.0112  1.0698  1.4204
   13bbb    H12  395   3.002   9.721   3.855 -1.7860 -3.3476  1.5018
   13bbb     C7  396   2.470   9.479   4.125  0.2472 -0.3147  0.3925
   13bbb    H13  397   2.444   9.504   4.228 -2.5156  0.5659 -0.4450
   13bbb    H14  398   2.468   9.369   4.122 -0.4158 -0.3183  0.7617
   13bbb     C8  399   3.039   9.776   4.057 -0.0834 -0.2516 -0.0875
   13bbb    H15  400   3.020   9.675   4.095  0.8583 -0.8767 -1.1986
   13bbb    H16  401   3.006   9.849   4.131 -0.7039  0.8629 -1.4309
   13bbb     C9  402   2.603  10.140   3.970 -0.2361  0.1100  0.4031
   13bbb    H17  403   2.696  10.199   3.979  0.2344 -0.1624 -2.1646
   13bbb    H18  404   2.561  10.154   4.071  1.8572 -0.2469  1.3896
   13bbb     O1  405   2.355   9.534   4.052 -0.2315  0.0027  0.5803
   14bbb     N1  406  -0.419   7.690   3.352  0.5442  0.3190 -0.3074
   14bbb     C1  407  -0.457   7.636   3.483 -0.5273  0.0819 -0.6227
   14bbb     H1  408  -0.489   7.722   3.543  0.1931 -0.6170  0.8115
   14bbb     H2  409  -0.372   7.589   3.533 -0.0185  0.2202 -1.3458
   14bbb     C2  410  -0.410   7.591   3.248 -0.3074  0.1449  1.1404
   14bbb     H3  411  -0.511   7.551   3.231  0.8356 -1.6225 -2.6573
   14bbb     H4  412  -0.354   7.499   3.270  1.5829  0.9561 -0.0265
   14bbb     C3  413  -0.308   7.787   3.360 -0.5082 -0.1971  0.4382
   14bbb     H5  414  -0.349   7.861   3.430 -0.4345  1.2564 -1.0213
   14bbb     H6  415  -0.298   7.846   3.269  2.0065 -0.9977  0.0984
   14bbb     C4  416  -0.164   7.732   3.401  0.0266 -0.0927  0.7079
   14bbb     H7  417  -0.123   7.651   3.339 -0.3950  1.2869 -1.4870
   14bbb     H8  418  -0.170   7.689   3.502 -2.4868  0.3096  0.8013
   14bbb     C5  419  -0.570   7.535   3.502 -0.5112  0.0498 -0.6194
   14bbb     H9  420  -0.588   7.515   3.608 -0.7569 -3.5065 -1.2237
   14bbb    H10  421  -0.530   7.442   3.461  0.1030  0.7177 -1.5938
   14bbb     C6  422  -0.354   7.643   3.117  0.2094  0.1906  0.3046
   14bbb    H11  423  -0.256   7.692   3.126  0.4208 -0.2445  0.4499
   14bbb    H12  424  -0.421   7.715   3.071 -0.2027 -0.2316  0.2358
   14bbb     C7  425  -0.050   7.833   3.409  0.7486 -0.3308  0.3780
   14bbb    H13  426  -0.083   7.927   3.455 -0.3681  0.0662 -1.1235
   14bbb    H14  427  -0.029   7.859   3.304 -1.3281  0.9784  0.2382
   14bbb     C8  428  -0.338   7.532   3.014  0.2111 -0.7341  0.1485
   14bbb    H15  429  -0.436   7.486   2.995  0.7627 -1.7420 -0.3953
   14bbb    H16  430  -0.270   7.450   3.044 -1.8796 -1.9575  1.8953
   14bbb     C9  431  -0.700   7.564   3.435  0.1316 -0.1416  0.1745
   14bbb    H17  432  -0.686   7.563   3.326  1.0796  1.6694  0.2414
   14bbb    H18  433  -0.731   7.665   3.466  1.6656  0.0884  1.0242
   14bbb     O1  434   0.064   7.772   3.470  0.1793 -0.5460 -0.0330
   15bbb     N1  435   0.034   7.468   3.797 -0.1302  0.7116  0.1317
   15bbb     C1  436  -0.072   7.553   3.849  0.3122 -0.2741 -0.8098
   15bbb     H1  437  -0.056   7.572   3.956 -0.1702  0.3271 -0.8371
   15bbb     H2  438  -0.173   7.512   3.854 -1.7172  4.1805  0.4756
   15bbb     C2  439   0.003   7.391   3.670  0.4236  0.0948  0.1637
   15bbb     H3  440   0.054   7.294   3.679 -2.3225 -1.4205  0.4730
   15bbb     H4  441   0.042   7.446   3.584 -0.3978 -1.2445 -1.1012
   15bbb     C3  442   0.171   7.523   3.812  0.1875 -0.9947 -0.3537
   15bbb     H5  443   0.183   7.581   3.905  0.5184 -1.4204 -0.1269
   15bbb     H6  444   0.182   7.594   3.729 -0.0410  0.2967  0.6673
   15bbb     C4  445   0.284   7.432   3.809 -0.3284  0.1990 -0.4992
   15bbb     H7  446   0.279   7.370   3.719 -1.3779  1.1330 -1.1081
   15bbb     H8  447   0.263   7.364   3.893  0.2604 -0.9576 -1.2536
   15bbb     C5  448  -0.077   7.695   3.784 -0.3352  1.0001 -0.4190
   15bbb     H9  449  -0.039   7.693   3.681  0.8771  1.3782  0.0007
   15bbb    H10  450  -0.001   7.756   3.834  0.1512  1.2170 -1.3935
   15bbb     C6  451  -0.138   7.360   3.645 -0.1449  0.0452  0.0540
   15bbb    H11  452  -0.199   7.452   3.647  1.0966  0.8878  1.6779
   15bbb    H12  453  -0.175   7.287   3.718  0.0539  0.1064  0.2165
   15bbb     C7  454   0.416   7.500   3.825 -0.0225  0.5604  0.0910
   15bbb    H13  455   0.500   7.432   3.845  0.9509  1.8418  0.4843
   15bbb    H14  456   0.418   7.565   3.913 -0.8304 -0.9702  1.2873
   15bbb     C8  457  -0.151   7.299   3.504 -0.4055  0.3718 -0.6303
   15bbb    H15  458  -0.134   7.364   3.417  0.7052 -2.6971 -2.8924
   15bbb    H16  459  -0.253   7.262   3.489  0.2216 -0.9568 -1.8288
   15bbb     C9  460  -0.218   7.763   3.793 -0.0152  0.4783  0.7416
   15bbb    H17  461  -0.265   7.740   3.889 -1.9487 -2.5002 -0.7705
   15bbb    H18  462  -0.284   7.719   3.717 -0.4948 -0.0032  1.4309
   15bbb     O1  463   0.431   7.571   3.700 -0.1839  0.1000 -0.5105
   16bbb     N1  464   0.183   7.322   4.203 -0.0762  0.6165 -0.2773
   16bbb     C1  465   0.084   7.430   4.166 -0.0992  0.1991  0.1917
   16bbb     H1  466  -0.015   7.387   4.185  0.0644 -0.4257 -0.3457
   16bbb     H2  467   0.088   7.456   4.059  0.2132 -2.2454 -0.4468
   16bbb     C2  468   0.152   7.195   4.124  0.2319 -0.1572 -0.0053
   16bbb     H3  469   0.222   7.118   4.159 -1.3086 -1.1071  1.1371
   16bbb     H4  470   0.171   7.208   4.017 -0.1068 -1.4584 -0.2451
   16bbb     C3  471   0.327   7.358   4.197  0.3543 -0.0377  0.6230
   16bbb     H5  472   0.335   7.410   4.101 -1.1112 -1.3283 -0.2418
   16bbb     H6  473   0.383   7.264   4.195  0.6650  0.1610 -0.8054
   16bbb     C4  474   0.386   7.439   4.319 -0.1478 -0.0944  0.2861
   16bbb     H7  475   0.394   7.370   4.404  0.2432  0.4077  0.6581
   16bbb     H8  476   0.331   7.529   4.347  0.2852  0.1922  0.2265
   16bbb     C5  477   0.097   7.564   4.241 -0.3356  0.2147  0.3767
   16bbb     H9  478   0.116   7.547   4.348 -1.5616 -0.4667  0.5000
   16bbb    H10  479  -0.003   7.607   4.246 -1.0382 -0.6296 -3.2849
   16bbb     C6  480   0.017   7.126   4.150  0.3973 -0.3500 -0.1193
   16bbb    H11  481  -0.055   7.171   4.082 -0.3579 -0.2723  0.7170
   16bbb    H12  482  -0.013   7.141   4.254 -0.5695  1.1698 -0.5947
   16bbb     C7  483   0.539   7.488   4.296  0.3589  0.2395 -0.1766
   16bbb    H13  484   0.600   7.400   4.271  0.7951  0.5132 -0.0940
   16bbb    H14  485   0.589   7.532   4.383 -0.2584  2.2151 -0.7680
   16bbb     C8  486   0.017   6.973   4.136  1.0430 -0.5599  0.0509
   16bbb    H15  487  -0.078   6.925   4.160  0.4721 -0.4822 -1.9194
   16bbb    H16  488   0.091   6.933   4.207 -2.9313 -3.2937  3.0900
   16bbb     C9  489   0.182   7.677   4.176 -0.2055  0.1631 -0.1658
   16bbb    H17  490   0.145   7.719   4.082 -0.1646 -1.3510 -0.8749
   16bbb    H18  491   0.287   7.645   4.165  0.2126  1.4424 -0.1296
   16bbb     O1  492   0.543   7.580   4.182 -0.5703  0.1121  0.0632
   17bbb     N1  493   0.050   8.359   3.474  0.6543  0.2301  0.9712
   17bbb     C1  494   0.015   8.499   3.511 -0.7103 -0.2715  0.5703
   17bbb     H1  495  -0.014   8.557   3.422 -0.1813 -0.9603 -0.0595
   17bbb     H2  496   0.103   8.546   3.555 -1.1723  0.9417  0.2535
   17bbb     C2  497   0.185   8.347   3.415  0.0711 -0.3313  0.8881
   17bbb     H3  498   0.198   8.246   3.373 -0.1190  0.3831 -0.9758
   17bbb     H4  499   0.258   8.362   3.495  0.4848  0.0818  0.4401
   17bbb     C3  500   0.018   8.250   3.564  0.5839  0.4758 -0.8558
   17bbb     H5  501   0.041   8.156   3.512  1.0569  0.0880  0.0239
   17bbb     H6  502  -0.088   8.246   3.591  0.3450 -0.2000 -1.8481
   17bbb     C4  503   0.103   8.256   3.692 -0.3928 -0.1016 -0.4032
   17bbb     H7  504   0.082   8.353   3.739  1.4974  0.9835 -1.6291
   17bbb     H8  505   0.212   8.256   3.674 -0.3455  1.0763 -0.1963
   17bbb     C5  506  -0.102   8.531   3.608 -0.8502  0.5896  0.9945
   17bbb     H9  507  -0.079   8.488   3.707  4.2051  0.5337  0.0701
   17bbb    H10  508  -0.186   8.466   3.577 -1.1247  1.8398 -1.0498
   17bbb     C6  509   0.228   8.436   3.296 -0.1975  0.5143  0.6182
   17bbb    H11  510   0.213   8.540   3.328 -3.9358  0.5917 -0.9325
   17bbb    H12  511   0.159   8.414   3.214 -0.3127 -0.2130  0.9007
   17bbb     C7  512   0.072   8.151   3.795  0.1230 -0.7893  0.1695
   17bbb    H13  513   0.048   8.055   3.746  1.0782 -1.2905  0.6607
   17bbb    H14  514  -0.014   8.187   3.853  0.5414  0.8056 -0.1543
   17bbb     C8  515   0.376   8.412   3.255  0.2717 -0.0835 -0.2638
   17bbb    H15  516   0.447   8.431   3.336 -0.5335 -0.6978  0.6008
   17bbb    H16  517   0.392   8.481   3.171 -4.0278  0.5842 -0.7994
   17bbb     C9  518  -0.134   8.679   3.623 -0.2081 -0.5734 -0.1435
   17bbb    H17  519  -0.230   8.697   3.674 -0.5578 -0.7818 -0.7203
   17bbb    H18  520  -0.126   8.728   3.525 -1.6194 -4.1259 -2.2529
   17bbb     O1  521   0.192   8.141   3.879  0.2219 -0.1250  0.6424
   18bbb     N1  522   1.502   7.585   4.663 -0.6149  1.1726  0.3878
   18bbb     C1  523   1.521   7.721   4.717  0.2986 -0.0845 -0.2270
   18bbb     H1  524   1.494   7.717   4.824 -0.4697 -0.8796 -0.4379
   18bbb     H2  525   1.451   7.790   4.670 -1.5514 -0.2227  2.1271
   18bbb     C2  526   1.592   7.475   4.713 -0.9657 -0.4070  0.3713
   18bbb     H3  527   1.580   7.460   4.821  0.8734  1.6974  0.9687
   18bbb     H4  528   1.697   7.505   4.701 -1.3364  0.9897  0.4766
   18bbb     C3  529   1.359   7.539   4.647  0.3136 -0.1267 -0.3954
   18bbb     H5  530   1.325   7.489   4.738  0.7497 -1.5226 -0.9677
   18bbb     H6  531   1.351   7.459   4.573 -1.4572 -0.5280  0.1976
   18bbb     C4  532   1.262   7.640   4.594  0.8382 -0.1093 -0.1009
   18bbb     H7  533   1.293   7.693   4.503 -3.0145  2.0623 -0.3344
   18bbb     H8  534   1.231   7.710   4.673 -0.1106  0.8461 -1.2853
   18bbb     C5  535   1.668   7.774   4.710  0.7369  0.5104 -0.2057
   18bbb     H9  536   1.738   7.706   4.760  2.2565  1.0944 -1.4227
   18bbb    H10  537   1.673   7.873   4.757  0.0168  0.1155  0.7264
   18bbb     C6  538   1.569   7.343   4.632 -0.2103  0.7896 -0.0545
   18bbb    H11  539   1.557   7.357   4.524 -1.0063  0.9342  0.0480
   18bbb    H12  540   1.480   7.289   4.668 -0.3742  0.3866 -1.0341
   18bbb     C7  541   1.128   7.577   4.555  0.9454 -0.7185  0.5501
   18bbb    H13  542   1.096   7.514   4.639  1.0968 -2.3482 -0.5507
   18bbb    H14  543   1.139   7.523   4.460  0.9119  0.9860 -0.4619
   18bbb     C8  544   1.689   7.249   4.630  0.8855  0.9231  0.0526
   18bbb    H15  545   1.761   7.270   4.710  0.7909 -2.3205  1.1261
   18bbb    H16  546   1.743   7.260   4.536  1.0078  0.1696  0.0300
   18bbb     C9  547   1.718   7.789   4.563 -0.0468 -0.6476  0.0361
   18bbb    H17  548   1.673   7.886   4.538 -1.6751 -0.4760  3.1353
   18bbb    H18  549   1.694   7.704   4.499  1.8063  0.0098 -1.6445
   18bbb     O1  550   1.031   7.689   4.527  0.8055  0.4824  0.5106
   19bbb     N1  551   1.198   8.755   4.974 -0.5009  0.2810 -0.6455
   19bbb     C1  552   1.115   8.814   4.866 -0.0841 -0.5556  0.2642
   19bbb     H1  553   1.073   8.735   4.803 -0.1016 -1.0009  0.8178
   19bbb     H2  554   1.168   8.878   4.795 -1.3128  1.3088  0.9439
   19bbb     C2  555   1.340   8.731   4.938  0.0787  0.2800 -0.3324
   19bbb     H3  556   1.351   8.692   4.836 -0.0453 -1.9302  0.4523
   19bbb     H4  557   1.380   8.650   5.001  0.4039 -1.3854 -2.5636
   19bbb     C3  558   1.134   8.644   5.051  0.0960 -0.1969  0.4008
   19bbb     H5  559   1.047   8.685   5.104  0.4523 -0.7862  1.4780
   19bbb     H6  560   1.189   8.609   5.139 -0.6955  0.3819  1.1464
   19bbb     C4  561   1.097   8.518   4.967 -0.2955  0.1435  0.6453
   19bbb     H7  562   1.174   8.512   4.889 -2.0359  2.4790 -1.4073
   19bbb     H8  563   1.003   8.537   4.915 -1.6894 -4.4900  0.9779
   19bbb     C5  564   0.991   8.889   4.916 -0.1725 -0.2950  0.2518
   19bbb     H9  565   0.969   8.844   5.013  2.9442  0.0364  1.2208
   19bbb    H10  566   0.908   8.879   4.844 -1.0019 -0.4139  1.2025
   19bbb     C6  567   1.423   8.858   4.963 -0.6629  0.0996 -0.1305
   19bbb    H11  568   1.405   8.905   5.061 -0.7715  1.1377 -0.6288
   19bbb    H12  569   1.391   8.940   4.897  2.7017  1.0977 -0.7336
   19bbb     C7  570   1.085   8.386   5.054 -0.0308 -0.8619  0.4613
   19bbb    H13  571   1.005   8.385   5.128 -0.4858 -3.0346  0.0180
   19bbb    H14  572   1.179   8.363   5.105  0.5311  1.4295  0.5565
   19bbb     C8  573   1.576   8.829   4.951 -0.0734 -0.2213  0.4582
   19bbb    H15  574   1.645   8.910   4.977  0.4137 -0.1400 -0.9977
   19bbb    H16  575   1.601   8.801   4.848 -0.5430 -0.2780  0.3577
   19bbb     C9  576   1.021   9.042   4.939  0.0562 -0.1776 -0.3188
   19bbb    H17  577   1.059   9.099   4.854  1.1584 -1.3075 -0.6080
   19bbb    H18  578   1.112   9.038   4.999 -0.1517 -0.7339 -0.0278
   19bbb     O1  579   1.060   8.270   4.972 -0.8572 -0.8064 -0.3244
   20bbb     N1  580   1.229   7.906   4.255 -0.4749 -0.1149  0.6788
   20bbb     C1  581   1.089   7.892   4.211 -0.6339 -0.1672 -0.3433
   20bbb     H1  582   1.057   7.968   4.138  1.4419 -1.1859 -2.4437
   20bbb     H2  583   1.023   7.899   4.298 -0.5673 -0.6464 -0.2511
   20bbb     C2  584   1.323   7.903   4.140 -0.0138  0.3017 -0.0217
   20bbb     H3  585   1.287   7.982   4.072 -0.9981  0.9757  1.2339
   20bbb     H4  586   1.320   7.805   4.091 -1.0624  0.1900  0.2251
   20bbb     C3  587   1.254   8.018   4.342  0.0405 -0.4701 -0.8602
   20bbb     H5  588   1.257   8.111   4.283 -1.9441 -0.5129 -1.0866
   20bbb     H6  589   1.355   8.006   4.381 -0.1246  0.5441 -0.0685
   20bbb     C4  590   1.163   8.024   4.470  1.1752  0.3531  0.7692
   20bbb     H7  591   1.139   7.923   4.508 -1.2106  0.8309  0.7279
   20bbb     H8  592   1.067   8.073   4.448  1.4046  0.0379 -1.0664
   20bbb     C5  593   1.063   7.761   4.132 -0.0992 -0.4069  0.0954
   20bbb     H9  594   1.119   7.776   4.039 -0.0206  1.7748  0.4629
   20bbb    H10  595   0.960   7.772   4.095  0.2057  1.1815 -0.3516
   20bbb     C6  596   1.477   7.918   4.175  0.6677  0.1831  0.2771
   20bbb    H11  597   1.509   8.018   4.208  0.8229 -0.3396  1.8108
   20bbb    H12  598   1.531   7.902   4.081  2.0402  1.5067  0.7920
   20bbb     C7  599   1.217   8.116   4.572 -0.5737  0.4655 -0.2880
   20bbb    H13  600   1.317   8.085   4.604 -0.9725  0.1878  0.7206
   20bbb    H14  601   1.160   8.109   4.665  2.2858 -2.2599  1.4532
   20bbb     C8  602   1.526   7.808   4.269 -0.0490  0.5539  0.6016
   20bbb    H15  603   1.466   7.808   4.361  1.1211  2.9833  1.4220
   20bbb    H16  604   1.626   7.838   4.301 -0.1243 -0.5009  1.9504
   20bbb     C9  605   1.061   7.630   4.213 -0.1768  0.3364 -0.3395
   20bbb    H17  606   0.978   7.635   4.284 -0.2036  2.2139 -0.4430
   20bbb    H18  607   1.161   7.618   4.257 -0.4294 -0.8389 -0.0584
   20bbb     O1  608   1.228   8.248   4.513  0.3976 -0.4769  0.2656
   21bbb     N1  609   1.513   8.956   3.717 -0.9619  0.3609  0.2068
   21bbb     C1  610   1.398   8.975   3.623  0.1931  0.4770  0.4670
   21bbb     H1  611   1.308   8.933   3.669 -0.6499 -0.8618 -2.2282
   21bbb     H2  612   1.410   8.917   3.531 -0.1157  1.2576 -0.0828
   21bbb     C2  613   1.515   9.041   3.843 -0.8106  0.7254 -0.3250
   21bbb     H3  614   1.500   9.150   3.833  1.7532  0.9333 -4.0731
   21bbb     H4  615   1.612   9.030   3.893 -0.1719  0.1528 -1.6309
   21bbb     C3  616   1.548   8.807   3.740 -0.0108 -0.3957 -0.3673
   21bbb     H5  617   1.527   8.749   3.649 -2.3684  1.3991 -1.0901
   21bbb     H6  618   1.474   8.768   3.811 -0.3322  0.5386 -0.1836
   21bbb     C4  619   1.694   8.790   3.786 -0.7126  0.1842 -0.1583
   21bbb     H7  620   1.722   8.862   3.864  1.0323 -0.2398 -0.3452
   21bbb     H8  621   1.758   8.806   3.699  0.1631  1.0617  0.6166
   21bbb     C5  622   1.365   9.123   3.584 -0.0789  0.0418  0.6759
   21bbb     H9  623   1.443   9.154   3.513 -2.3915 -0.6387 -2.3868
   21bbb    H10  624   1.373   9.184   3.675 -0.6317  0.6992  0.2978
   21bbb     C6  625   1.408   8.989   3.938 -0.3890  0.1012  0.2642
   21bbb    H11  626   1.439   8.889   3.969 -0.4486 -0.3382 -1.0246
   21bbb    H12  627   1.310   8.986   3.888  0.7406  2.3730 -2.3608
   21bbb     C7  628   1.717   8.660   3.861 -0.3824  0.3253  0.1450
   21bbb    H13  629   1.824   8.647   3.880 -0.6025 -0.2778  1.0460
   21bbb    H14  630   1.678   8.575   3.803 -1.5090 -0.4899  2.0056
   21bbb     C8  631   1.379   9.078   4.057 -0.2500  0.0624 -0.4782
   21bbb    H15  632   1.296   9.030   4.110 -1.3642  1.8496 -0.5300
   21bbb    H16  633   1.349   9.176   4.019  5.0815  1.2841 -2.5583
   21bbb     C9  634   1.227   9.149   3.512 -0.4723  0.3584 -0.6498
   21bbb    H17  635   1.220   9.255   3.487 -0.3536  0.7548  0.8858
   21bbb    H18  636   1.154   9.138   3.594 -1.2604 -1.3878 -1.5267
   21bbb     O1  637   1.645   8.662   3.986 -0.9021 -0.2472 -0.7945
   22bbb     N1  638   2.170  10.568   4.443  0.7182 -0.0754  0.3897
   22bbb     C1  639   2.181  10.714   4.480 -0.8507 -0.7567  0.0753
   22bbb     H1  640   2.086  10.754   4.520 -0.2126 -0.6270  1.4961
   22bbb     H2  641   2.203  10.782   4.396 -1.3322  2.8510  2.6045
   22bbb     C2  642   2.115  10.486   4.554  0.2274  0.1652 -0.7220
   22bbb     H3  643   2.009  10.463   4.537 -0.5068  1.3884  1.7291
   22bbb     H4  644   2.116  10.544   4.647 -0.5122 -1.7609  0.5223
   22bbb     C3  645   2.090  10.568   4.312 -0.4238 -0.1129 -0.9339
   22bbb     H5  646   2.131  10.635   4.235  1.1894  1.8231  1.4445
   22bbb     H6  647   1.987  10.594   4.338  0.1973  0.8814  0.6678
   22bbb     C4  648   2.088  10.430   4.240 -0.4569  0.1934  0.4242
   22bbb     H7  649   2.061  10.350   4.310 -1.8336  0.4042  0.1637
   22bbb     H8  650   2.191  10.412   4.205 -0.8267  0.8786 -1.1082
   22bbb     C5  651   2.290  10.759   4.588 -0.3608 -0.2255  0.3053
   22bbb     H9  652   2.393  10.741   4.554 -0.3622 -1.9453  1.0933
   22bbb    H10  653   2.295  10.696   4.678  2.0312 -1.1064 -0.3694
   22bbb     C6  654   2.198  10.365   4.580  0.7529  0.3829  0.5173
   22bbb    H11  655   2.296  10.405   4.610 -0.1989  2.0466  1.4956
   22bbb    H12  656   2.202  10.315   4.482 -0.7166 -0.4850  0.8828
   22bbb     C7  657   1.994  10.430   4.111 -0.8126  0.3467 -0.0931
   22bbb    H13  658   2.034  10.496   4.033  1.4563  1.0548  1.5274
   22bbb    H14  659   1.890  10.449   4.142 -0.8410  0.1236 -0.0539
   22bbb     C8  660   2.138  10.263   4.688 -0.2403  0.0061  0.2245
   22bbb    H15  661   2.114  10.323   4.776  1.2881  1.1321 -0.1053
   22bbb    H16  662   2.221  10.195   4.712  0.4211  1.6887  3.1747
   22bbb     C9  663   2.299  10.917   4.623 -0.5413 -0.3155  0.0159
   22bbb    H17  664   2.400  10.938   4.662  0.2304 -0.9210 -1.5805
   22bbb    H18  665   2.237  10.938   4.711  0.4447 -2.1486  1.2324
   22bbb     O1  666   2.004  10.287   4.074  0.2710  0.3952 -0.0960
   23bbb     N1  667   0.870   9.897   3.632 -0.0170  0.1375 -0.7913
   23bbb     C1  668   0.806   9.791   3.708  0.1391 -0.2744 -0.1135
   23bbb     H1  669   0.858   9.779   3.803  1.6426  1.0485 -0.7385
   23bbb     H2  670   0.817   9.697   3.651  3.7990  0.9219 -1.6764
   23bbb     C2  671   0.802   9.956   3.515  0.0459 -0.3165 -0.5412
   23bbb     H3  672   0.696   9.986   3.522  0.0270  0.0435 -2.0064
   23bbb     H4  673   0.800   9.880   3.436  1.6421 -0.9581 -0.0065
   23bbb     C3  674   1.017   9.869   3.619  0.6495  0.7275  0.4166
   23bbb     H5  675   1.066   9.920   3.535  0.6618 -0.8928 -0.5969
   23bbb     H6  676   1.039   9.763   3.601  0.6398  0.2405  2.8919
   23bbb     C4  677   1.090   9.919   3.736 -0.3762  0.2439 -0.6668
   23bbb     H7  678   1.041   9.874   3.824  1.5128 -0.0830  0.2749
   23bbb     H8  679   1.078  10.027   3.748  1.6560  0.3872  0.5122
   23bbb     C5  680   0.653   9.809   3.723  0.6551 -0.1751  0.6030
   23bbb     H9  681   0.606   9.832   3.627  1.0296 -0.6888  0.2900
   23bbb    H10  682   0.635   9.895   3.790  2.0434 -1.3505  2.6047
   23bbb     C6  683   0.865  10.084   3.472  0.2759 -0.5017  0.0298
   23bbb    H11  684   0.831  10.107   3.370  2.1328  1.0974 -0.2870
   23bbb    H12  685   0.974  10.073   3.459  0.2073 -1.3347  0.0799
   23bbb     C7  686   1.234   9.887   3.721 -0.7053  0.0998  0.9792
   23bbb    H13  687   1.266   9.949   3.637 -1.4951 -1.3405 -0.4336
   23bbb    H14  688   1.239   9.781   3.696 -0.6306  0.1883  0.6149
   23bbb     C8  689   0.851  10.203   3.574 -0.1843  0.0178 -0.4747
   23bbb    H15  690   0.950  10.250   3.581  0.1059 -0.7470  0.9191
   23bbb    H16  691   0.823  10.163   3.672  1.7821 -0.2997  0.0115
   23bbb     C9  692   0.591   9.677   3.775 -0.3090 -1.0178 -0.2319
   23bbb    H17  693   0.603   9.589   3.710 -1.7331 -0.7874 -0.8347
   23bbb    H18  694   0.486   9.700   3.792  0.4186  2.2907  0.3957
   23bbb     O1  695   1.316   9.920   3.833  0.7447  0.0925 -0.0509
   24bbb     N1  696   2.304   9.933   4.394 -0.1308 -0.3516 -0.6164
   24bbb     C1  697   2.298  10.087   4.413  0.2531  0.5675 -0.0376
   24bbb     H1  698   2.299  10.115   4.519  1.7671  0.5758 -0.0277
   24bbb     H2  699   2.203  10.125   4.374  0.3264 -0.0621 -0.8499
   24bbb     C2  700   2.213   9.854   4.480  0.6784 -0.1508 -0.8884
   24bbb     H3  701   2.219   9.750   4.448 -2.2027  0.1179 -2.6283
   24bbb     H4  702   2.111   9.882   4.451 -0.0470 -1.7723 -0.0350
   24bbb     C3  703   2.316   9.879   4.260 -0.1718 -0.2083 -0.0442
   24bbb     H5  704   2.320   9.769   4.256  1.4204 -0.2195  1.0119
   24bbb     H6  705   2.414   9.913   4.223 -1.4849  1.1581 -2.5646
   24bbb     C4  706   2.197   9.915   4.176  0.0578 -0.1298  0.9185
   24bbb     H7  707   2.173  10.022   4.187 -1.2900 -0.1895 -0.9433
   24bbb     H8  708   2.113   9.851   4.206 -1.4069  1.1120 -0.3848
   24bbb     C5  709   2.421  10.152   4.356  0.5644 -0.1631  0.0674
   24bbb     H9  710   2.397  10.259   4.353 -1.2078 -0.5210 -0.1176
   24bbb    H10  711   2.434  10.124   4.251 -1.7507 -0.6563 -0.1530
   24bbb     C6  712   2.237   9.867   4.634 -0.3361 -0.0563  0.2200
   24bbb    H11  713   2.178   9.790   4.684 -0.7786 -0.2535 -0.5767
   24bbb    H12  714   2.196   9.961   4.674  0.7240  0.2510  0.6075
   24bbb     C7  715   2.230   9.907   4.028  0.1978 -0.1382 -0.3139
   24bbb    H13  716   2.281   9.810   4.023 -0.2571 -0.3845 -0.2446
   24bbb    H14  717   2.291   9.996   4.010  1.0454  0.7116  5.1050
   24bbb     C8  718   2.383   9.860   4.675 -0.3648 -0.1558  0.1941
   24bbb    H15  719   2.427   9.960   4.670  0.3495 -0.4442  0.5334
   24bbb    H16  720   2.430   9.797   4.599 -0.0386 -0.0551  0.3079
   24bbb     C9  721   2.543  10.126   4.453 -0.6614  0.5386  0.0183
   24bbb    H17  722   2.633  10.153   4.397 -0.2870  2.1921  1.3275
   24bbb    H18  723   2.545  10.020   4.482  0.0340  0.3154 -0.8103
   24bbb     O1  724   2.103   9.898   3.957 -0.3749 -1.1758 -0.2670
   25bbb     N1  725   2.264  10.475   3.074  0.3363  0.4477  0.2417
   25bbb     C1  726   2.341  10.508   2.950 -0.3041 -0.2608  0.1354
   25bbb     H1  727   2.407  10.593   2.973  1.6357 -1.1375 -1.8617
   25bbb     H2  728   2.281  10.524   2.860  0.0831  0.6242  0.0288
   25bbb     C2  729   2.206  10.590   3.147 -0.1556 -0.8811 -0.3470
   25bbb     H3  730   2.153  10.550   3.235  1.2309  0.3559  1.1130
   25bbb     H4  731   2.131  10.632   3.079 -0.0704  0.3032  0.2541
   25bbb     C3  732   2.175  10.354   3.071  0.4384  0.2384  0.7610
   25bbb     H5  733   2.150  10.325   3.173 -0.6878 -2.4261 -0.1768
   25bbb     H6  734   2.218  10.268   3.019 -1.8169  0.3272 -1.4731
   25bbb     C4  735   2.041  10.372   2.996  0.7391  0.3515  0.1336
   25bbb     H7  736   2.057  10.390   2.888 -2.0026 -0.3180 -0.4623
   25bbb     H8  737   1.985  10.455   3.039 -1.2004 -0.4488 -0.7311
   25bbb     C5  738   2.450  10.404   2.912  0.0584 -0.1971 -0.1229
   25bbb     H9  739   2.496  10.442   2.820 -0.9373  1.1839 -0.0852
   25bbb    H10  740   2.398  10.312   2.883 -0.6271  0.4299 -0.9500
   25bbb     C6  741   2.307  10.707   3.187 -0.2150  0.1518 -0.4112
   25bbb    H11  742   2.350  10.769   3.107  1.9765 -1.4467 -0.5498
   25bbb    H12  743   2.389  10.661   3.243  0.8997 -0.4272 -2.3916
   25bbb     C7  744   1.958  10.250   2.991  0.2205  0.2945  0.0117
   25bbb    H13  745   2.007  10.169   2.935 -0.0097 -0.1961  0.5145
   25bbb    H14  746   1.862  10.267   2.942 -0.5314 -2.5154  0.3347
   25bbb     C8  747   2.243  10.816   3.285 -0.4150  0.0709 -0.1625
   25bbb    H15  748   2.211  10.751   3.368  2.4232 -3.5829 -1.6710
   25bbb    H16  749   2.154  10.867   3.245  0.0137  0.9241 -0.0464
   25bbb     C9  750   2.557  10.382   3.018 -0.4492 -0.2641 -0.1262
   25bbb    H17  751   2.511  10.353   3.114 -2.0388  0.6594 -0.5613
   25bbb    H18  752   2.613  10.475   3.034  0.0877 -0.3462 -1.4480
   25bbb     O1  753   1.932  10.204   3.127 -0.1752  0.5783  0.6418
   26bbb     N1  754   3.070   9.422   3.670 -0.2837  0.4878  0.5844
   26bbb     C1  755   3.104   9.552   3.604 -0.0774 -0.3737  0.0173
   26bbb     H1  756   3.106   9.632   3.679  0.8404 -0.9205  0.5971
   26bbb     H2  757   3.020   9.577   3.539 -0.5959 -0.1475  0.7566
   26bbb     C2  758   3.177   9.365   3.750 -0.1764 -0.2932  0.1739
   26bbb     H3  759   3.264   9.339   3.690  0.0675 -1.3196  0.9272
   26bbb     H4  760   3.135   9.268   3.782 -2.8564  0.5667 -0.5131
   26bbb     C3  761   2.937   9.424   3.731  0.6484 -0.2269  0.1330
   26bbb     H5  762   2.869   9.469   3.657 -0.5711  1.1656  2.0033
   26bbb     H6  763   2.927   9.489   3.819 -0.2070 -0.8215  0.4968
   26bbb     C4  764   2.886   9.285   3.762 -0.0394  1.4443 -0.4128
   26bbb     H7  765   2.944   9.234   3.839 -1.7543  1.2380  0.7903
   26bbb     H8  766   2.897   9.219   3.675  0.4534  1.9803 -0.7598
   26bbb     C5  767   3.230   9.556   3.519  1.1233  0.3748  0.0772
   26bbb     H9  768   3.215   9.486   3.436 -1.1519  0.7280  0.1213
   26bbb    H10  769   3.316   9.527   3.580  0.3872 -0.8088  0.6060
   26bbb     C6  770   3.215   9.451   3.872 -0.3128  0.2906 -0.2930
   26bbb    H11  771   3.127   9.502   3.912  0.8926  4.1931 -2.1326
   26bbb    H12  772   3.278   9.534   3.838  1.8558 -1.4300 -0.6848
   26bbb     C7  773   2.739   9.284   3.805  1.3443 -0.0334 -0.0294
   26bbb    H13  774   2.737   9.315   3.910  2.0124  0.9698 -0.2892
   26bbb    H14  775   2.694   9.184   3.806 -1.1952  0.9537 -2.1881
   26bbb     C8  776   3.285   9.378   3.988  0.5388 -0.4309 -0.4114
   26bbb    H15  777   3.319   9.440   4.073 -0.2962 -0.1833 -0.2429
   26bbb    H16  778   3.378   9.330   3.956 -0.2087 -1.8027 -0.5877
   26bbb     C9  779   3.265   9.692   3.457  0.1831 -0.0788 -0.4141
   26bbb    H17  780   3.276   9.760   3.542 -0.3378  1.5422 -1.5925
   26bbb    H18  781   3.193   9.730   3.383  3.3577  3.2470 -2.1057
   26bbb     O1  782   2.661   9.386   3.727 -0.5780  0.4377 -0.3526
   27bbb     N1  783   3.103  10.177   3.859 -0.0933 -0.1131 -0.1829
   27bbb     C1  784   3.226  10.161   3.786 -0.4234 -0.4207  0.3708
   27bbb     H1  785   3.303  10.236   3.808  0.3470 -0.2013 -2.5873
   27bbb     H2  786   3.207  10.182   3.679 -1.8560 -1.2850  0.4369
   27bbb     C2  787   3.108  10.170   4.005 -0.4361  0.4696 -0.0900
   27bbb     H3  788   3.133  10.069   4.040  2.6022  1.0302 -0.3869
   27bbb     H4  789   3.009  10.195   4.044 -0.0011 -0.0903  1.4563
   27bbb     C3  790   2.977  10.139   3.784  0.2264  0.6746 -0.7329
   27bbb     H5  791   2.889  10.164   3.845  0.5342 -0.8157  0.4016
   27bbb     H6  792   2.975  10.030   3.769  2.2498  0.5244 -0.1166
   27bbb     C4  793   2.944  10.199   3.652  0.2362  0.0572  0.4568
   27bbb     H7  794   3.014  10.153   3.581 -0.1761 -0.1678  0.1909
   27bbb     H8  795   2.966  10.307   3.653 -1.6651  0.5766 -2.1765
   27bbb     C5  796   3.291  10.017   3.792 -0.4732 -0.5960  0.2558
   27bbb     H9  797   3.213   9.946   3.765  0.7921 -1.4565 -1.3650
   27bbb    H10  798   3.321   9.996   3.896 -0.7124 -2.0907  0.0432
   27bbb     C6  799   3.217  10.263   4.074 -1.0376 -0.3194  0.0134
   27bbb    H11  800   3.315  10.215   4.058 -0.7282 -1.0501  3.3987
   27bbb    H12  801   3.206  10.260   4.183  2.7082 -1.6842  0.5047
   27bbb     C7  802   2.798  10.162   3.603  0.1235 -0.1488 -0.3359
   27bbb    H13  803   2.796  10.189   3.497  1.8566  0.5336 -0.2291
   27bbb    H14  804   2.724  10.229   3.648 -1.2303 -1.2155 -0.8991
   27bbb     C8  805   3.226  10.412   4.027  0.0499  0.0072 -0.0031
   27bbb    H15  806   3.136  10.471   4.048  2.0101  3.0905  0.2448
   27bbb    H16  807   3.243  10.407   3.919  1.1546  1.2799  0.0947
   27bbb     C9  808   3.418   9.997   3.698  0.6424  0.1846 -0.2110
   27bbb    H17  809   3.502  10.067   3.713 -2.0793  3.7970 -0.4359
   27bbb    H18  810   3.388  10.034   3.599 -1.6868  0.4999  0.5464
   27bbb     O1  811   2.766  10.024   3.617  0.1817  1.1223  0.7214
   28bbb     N1  812   3.562   9.932   4.236 -0.0893  1.4400  0.5499
   28bbb     C1  813   3.522   9.881   4.366  0.1644 -0.2051 -1.1134
   28bbb     H1  814   3.452   9.797   4.366  1.1054 -1.0255  0.1946
   28bbb     H2  815   3.464   9.960   4.415  0.9574  0.6994 -1.5786
   28bbb     C2  816   3.641  10.054   4.229  0.3692  0.1622  0.6771
   28bbb     H3  817   3.642  10.081   4.123  0.7176  0.7787  0.8312
   28bbb     H4  818   3.744  10.036   4.264  0.7593  0.6787 -0.1800
   28bbb     C3  819   3.445   9.918   4.139  0.7701  0.2775 -0.2052
   28bbb     H5  820   3.484   9.966   4.048 -0.0517  0.7371 -0.3310
   28bbb     H6  821   3.362   9.978   4.179  0.6750 -0.6388  1.0232
   28bbb     C4  822   3.405   9.774   4.108 -0.0662  0.9589 -0.2562
   28bbb     H7  823   3.468   9.697   4.156 -2.0728  0.0003  0.9692
   28bbb     H8  824   3.429   9.758   4.002 -1.8658 -2.1435 -0.3263
   28bbb     C5  825   3.637   9.843   4.465  0.0768 -0.7149 -0.3924
   28bbb     H9  826   3.596   9.820   4.564  1.2644  2.0796  0.8538
   28bbb    H10  827   3.715   9.919   4.476  1.6449 -2.0964 -1.5322
   28bbb     C6  828   3.579  10.169   4.315  0.1421 -0.3404  0.1582
   28bbb    H11  829   3.586  10.135   4.420  3.3144 -0.1682  0.1093
   28bbb    H12  830   3.474  10.170   4.282  0.4123 -0.0457 -0.7166
   28bbb     C7  831   3.261   9.741   4.132 -0.4572  0.2981  0.6130
   28bbb    H13  832   3.237   9.776   4.233  0.2560  2.0244  0.2170
   28bbb    H14  833   3.248   9.632   4.132  0.1583  0.0613 -3.3647
   28bbb     C8  834   3.654  10.305   4.302  0.1898  0.2167 -0.9910
   28bbb    H15  835   3.587  10.382   4.341 -0.1012 -0.0479 -0.9637
   28bbb    H16  836   3.682  10.334   4.200  0.5038  1.9443 -0.4514
   28bbb     C9  837   3.715   9.716   4.415 -0.1611  0.3955  0.4420
   28bbb    H17  838   3.749   9.728   4.312  0.0224 -1.9393  0.1561
   28bbb    H18  839   3.655   9.624   4.419  0.4820 -0.0411  0.2466
   28bbb     O1  840   3.178   9.800   4.030  0.3655 -0.2434  0.6718
   29bbb     N1  841   2.224  10.379   3.582 -0.1321 -0.2283  0.2052
   29bbb     C1  842   2.082  10.358   3.574  0.5417 -0.6054 -0.0149
   29bbb     H1  843   2.039  10.409   3.661 -2.3730  0.6891 -2.0444
   29bbb     H2  844   2.057  10.251   3.580  2.8466 -1.1874  0.0691
   29bbb     C2  845   2.306  10.332   3.460 -0.3077 -0.7135  0.0478
   29bbb     H3  846   2.415  10.333   3.473 -0.0329 -4.4476 -0.7454
   29bbb     H4  847   2.287  10.391   3.370  1.4235  2.1010  1.3939
   29bbb     C3  848   2.278  10.331   3.710 -0.1836 -0.0126 -0.3863
   29bbb     H5  849   2.282  10.222   3.721  2.6861  0.1750  1.7055
   29bbb     H6  850   2.209  10.365   3.788 -1.2363 -4.4715  0.9294
   29bbb     C4  851   2.419  10.382   3.757 -0.4081  0.0040 -0.5060
   29bbb     H7  852   2.413  10.491   3.768 -0.1037  0.1310 -1.4686
   29bbb     H8  853   2.490  10.378   3.674 -3.2463  0.0970 -3.1207
   29bbb     C5  854   2.011  10.436   3.454  0.1626  0.2928  0.7637
   29bbb     H9  855   2.024  10.377   3.362  0.8420  0.5229  0.7102
   29bbb    H10  856   2.070  10.527   3.442  2.2543 -1.2395 -1.5871
   29bbb     C6  857   2.286  10.185   3.417 -0.1678  0.2527 -0.0263
   29bbb    H11  858   2.190  10.185   3.362  0.6481  2.6737 -1.6080
   29bbb    H12  859   2.290  10.126   3.509 -1.9018  0.7455  0.4147
   29bbb     C7  860   2.470  10.321   3.892 -0.4771  0.4956  0.0698
   29bbb    H13  861   2.382  10.309   3.956 -0.3410 -1.1873 -0.0145
   29bbb    H14  862   2.540  10.391   3.939 -0.1555  0.8735 -0.9379
   29bbb     C8  863   2.400  10.132   3.318 -0.5991 -0.9871 -0.1069
   29bbb    H15  864   2.493  10.175   3.358 -0.9418 -1.2595  1.0148
   29bbb    H16  865   2.385  10.178   3.219 -0.3891 -0.5459  0.0592
   29bbb     C9  866   1.858  10.461   3.478  0.6254 -0.4998 -0.2708
   29bbb    H17  867   1.810  10.363   3.476 -1.8916  0.6562  0.0926
   29bbb    H18  868   1.811  10.514   3.395  0.9133 -0.2221 -0.2592
   29bbb     O1  869   2.520  10.187   3.864 -0.3409 -0.1876 -0.2118
   30ccc     C1  870  -0.176   7.819   2.776 -0.9678 -0.7785 -0.5981
   30ccc     H1  871  -0.156   7.872   2.869 -0.4588  0.3727 -1.3376
   30ccc     H2  872  -0.282   7.799   2.765 -1.1202 -0.7573  0.7096
   30ccc     C2  873  -0.091   7.688   2.785  0.0322 -0.9422  0.1330
   30ccc     H3  874  -0.102   7.638   2.688 -2.0225  0.0799 -0.2313
   30ccc     H4  875   0.014   7.719   2.794 -0.3314  0.3458  0.1279
   30ccc     C3  876  -0.128   7.597   2.898  0.0345  0.3110  0.9061
   30ccc     H5  877  -0.095   7.640   2.993  3.2862 -1.5538  0.7710
   30ccc     H6  878  -0.079   7.501   2.875 -0.0643  0.8938 -2.1995
   30ccc     N1  879  -0.130   7.921   2.672  0.4511 -0.3574 -0.5385
   30ccc     H7  880  -0.158   8.017   2.696 -0.0984 -1.1053  2.1593
   30ccc     H8  881  -0.028   7.935   2.667  0.2825  1.4286  0.3803
   30ccc     O1  882  -0.271   7.576   2.888  0.0023  0.0681 -0.2802
   30ccc    H17  883  -0.159   7.889   2.578  0.9626 -1.7481 -0.2560
   31ccc     C1  884  -1.061   7.335   3.499  0.2552 -0.1168 -1.5628
   31ccc     H1  885  -0.988   7.304   3.424  0.7004  2.1964 -2.1454
   31ccc     H2  886  -1.122   7.416   3.460 -1.3817 -0.7777 -0.5059
   31ccc     C2  887  -0.982   7.387   3.624 -0.1935 -0.7886 -0.4578
   31ccc     H3  888  -1.051   7.433   3.695  3.2557  1.4127  1.7608
   31ccc     H4  889  -0.926   7.306   3.673  1.3516  0.0507 -0.7747
   31ccc     C3  890  -0.880   7.507   3.588 -0.1468  0.3564 -0.8199
   31ccc     H5  891  -0.808   7.521   3.670 -0.9750  0.4273 -0.1020
   31ccc     H6  892  -0.935   7.601   3.580 -1.9168 -0.3437  1.7999
   31ccc     N1  893  -1.156   7.221   3.528  0.8800  0.0872 -0.1142
   31ccc     H7  894  -1.250   7.248   3.560  0.3508 -0.4277 -1.1785
   31ccc     H8  895  -1.169   7.153   3.452 -1.1873  2.9856 -2.5858
   31ccc     O1  896  -0.803   7.470   3.472 -0.0651  0.2665  0.1839
   31ccc    H17  897  -1.129   7.163   3.610  0.7967  0.5413  0.2376
   32ccc     C1  898   0.168   7.184   3.304  0.0520 -0.3720 -0.3195
   32ccc     H1  899   0.204   7.094   3.354  1.9174  0.3367 -0.3141
   32ccc     H2  900   0.180   7.269   3.371 -0.6923 -0.1536 -0.4487
   32ccc     C2  901   0.021   7.183   3.267  0.6313  0.0870  0.4525
   32ccc     H3  902  -0.008   7.288   3.255 -3.2362 -0.8231  0.3172
   32ccc     H4  903   0.002   7.121   3.178 -2.6675  1.6617 -0.1030
   32ccc     C3  904  -0.067   7.114   3.371  0.3754 -0.5300  0.2231
   32ccc     H5  905  -0.019   7.015   3.373  0.7697 -0.3708 -0.9151
   32ccc     H6  906  -0.171   7.112   3.337  0.1985  1.5952  0.4823
   32ccc     N1  907   0.255   7.208   3.177  0.0935  0.6252  0.3670
   32ccc     H7  908   0.351   7.236   3.201  0.8484 -0.4020 -1.3177
   32ccc     H8  909   0.260   7.118   3.128  0.4707  1.5761 -1.4389
   32ccc     O1  910  -0.069   7.182   3.498 -0.1232  0.2617  0.2098
   32ccc    H17  911   0.217   7.273   3.106 -1.8392 -3.0493 -2.2809
   33ccc     C1  912  -0.545   8.063   3.737 -0.2295 -0.1203  0.0358
   33ccc     H1  913  -0.554   8.079   3.844 -0.0067  3.1836 -0.3091
   33ccc     H2  914  -0.634   8.028   3.685 -1.0660 -0.9172  1.9364
   33ccc     C2  915  -0.432   7.964   3.708 -0.3724 -0.8695 -0.1056
   33ccc     H3  916  -0.484   7.868   3.711 -2.8637  0.3011 -1.6865
   33ccc     H4  917  -0.390   7.977   3.607 -0.9244  2.9990 -0.0217
   33ccc     C3  918  -0.317   7.984   3.809 -0.6621  0.8925 -0.4319
   33ccc     H5  919  -0.349   7.971   3.913 -1.2043  0.8257 -0.6037
   33ccc     H6  920  -0.280   8.087   3.798  2.6054  0.0789  1.6416
   33ccc     N1  921  -0.536   8.194   3.668 -0.0299 -0.3240  0.3374
   33ccc     H7  922  -0.452   8.247   3.698 -1.1029  0.7275  1.5964
   33ccc     H8  923  -0.525   8.171   3.568  1.4551 -3.6277  1.1132
   33ccc     O1  924  -0.201   7.903   3.771 -0.1150 -0.4554  0.1810
   33ccc    H17  925  -0.619   8.248   3.695  0.9587 -0.4451  4.1786
   34ccc     C1  926   0.005   6.809   3.728 -0.1365 -0.3057 -0.3549
   34ccc     H1  927   0.000   6.917   3.714 -2.4964 -0.4246 -0.9468
   34ccc     H2  928  -0.095   6.784   3.766 -0.4221  1.6770  0.2782
   34ccc     C2  929   0.108   6.769   3.832  0.2121 -0.4682 -0.0001
   34ccc     H3  930   0.145   6.666   3.833  1.3540 -0.0856  1.5083
   34ccc     H4  931   0.199   6.828   3.814 -0.0857  0.0146  0.0478
   34ccc     C3  932   0.046   6.801   3.978  0.5272  0.5186  0.4528
   34ccc     H5  933   0.101   6.748   4.057  1.1413 -0.7983 -0.8001
   34ccc     H6  934  -0.054   6.757   3.966 -0.2079  2.6376 -1.9636
   34ccc     N1  935   0.033   6.756   3.587  0.4602  0.0844  0.2308
   34ccc     H7  936  -0.045   6.770   3.521  0.4370  1.0523  0.4455
   34ccc     H8  937   0.119   6.799   3.550  0.7431 -0.6918 -0.0428
   34ccc     O1  938   0.049   6.941   4.001 -0.2014 -0.3773 -0.1205
   34ccc    H17  939   0.067   6.659   3.594 -0.4285 -0.3027 -0.5070
   35ccc     C1  940   0.174   7.932   4.539 -0.1047 -0.1545 -0.6126
   35ccc     H1  941   0.185   8.030   4.585  2.8930 -0.4610 -0.4436
   35ccc     H2  942   0.192   7.848   4.607 -1.1772  0.8175  0.9013
   35ccc     C2  943   0.277   7.918   4.434 -0.2803 -0.4586 -0.2331
   35ccc     H3  944   0.260   7.996   4.358 -1.9282 -0.0709  0.4744
   35ccc     H4  945   0.367   7.944   4.490  0.9911  0.4041 -2.5508
   35ccc     C3  946   0.290   7.789   4.364 -0.1905 -0.1504  0.4928
   35ccc     H5  947   0.294   7.710   4.440 -0.7513 -0.0467  0.6306
   35ccc     H6  948   0.381   7.801   4.304 -0.0400 -2.0782  0.2556
   35ccc     N1  949   0.033   7.918   4.498 -0.2587 -0.3096 -0.2115
   35ccc     H7  950  -0.022   7.962   4.573 -0.2293 -1.1194  0.2942
   35ccc     H8  951   0.017   7.960   4.405  0.2998 -0.8144 -0.5480
   35ccc     O1  952   0.182   7.783   4.267 -0.1391  0.2347 -0.1911
   35ccc    H17  953   0.001   7.820   4.495  0.1354 -0.6805  3.2985
   36ccc     C1  954   0.426   8.127   2.959  0.3701 -0.2691 -0.0713
   36ccc     H1  955   0.409   8.227   2.918 -1.1848 -0.2712  0.4939
   36ccc     H2  956   0.331   8.102   3.006  0.5697 -0.6094  0.1539
   36ccc     C2  957   0.532   8.132   3.064 -0.3163  0.0857  0.3969
   36ccc     H3  958   0.546   8.044   3.128 -0.7545  0.1606  0.6018
   36ccc     H4  959   0.628   8.140   3.013 -0.6783  0.5764 -0.2314
   36ccc     C3  960   0.524   8.271   3.142 -0.5711  0.5785  0.6092
   36ccc     H5  961   0.535   8.345   3.061 -4.0908  0.4580 -0.1203
   36ccc     H6  962   0.604   8.284   3.215  1.5877  0.9193 -1.6697
   36ccc     N1  963   0.449   8.023   2.851 -0.3629  0.0128  0.7428
   36ccc     H7  964   0.477   7.931   2.887  1.1787 -0.0681 -0.5203
   36ccc     H8  965   0.364   8.013   2.793 -1.0082 -0.6238  1.7664
   36ccc     O1  966   0.397   8.279   3.207  0.0417  0.1024  0.0101
   36ccc    H17  967   0.519   8.051   2.780 -1.6022 -0.5919 -0.7840
   37ccc     C1  968   0.077   8.891   4.029 -0.2673 -0.4593 -0.2087
   37ccc     H1  969   0.174   8.938   4.045 -0.8065  0.7329 -0.4018
   37ccc     H2  970   0.050   8.818   4.105 -1.2208 -0.4876 -0.5655
   37ccc     C2  971   0.087   8.822   3.890 -0.0882  0.7747  0.4054
   37ccc     H3  972   0.125   8.893   3.816  1.0181  1.8749  1.9438
   37ccc     H4  973   0.160   8.740   3.895 -0.8848 -0.0725 -1.1637
   37ccc     C3  974  -0.047   8.760   3.836 -0.4609 -0.1898  0.4190
   37ccc     H5  975  -0.125   8.837   3.838  0.4203  0.8073 -1.2625
   37ccc     H6  976  -0.071   8.684   3.911 -2.0201  1.4807  1.6925
   37ccc     N1  977  -0.016   9.005   4.037 -0.4391 -0.6213  0.2314
   37ccc     H7  978  -0.005   9.072   3.960  0.5767 -0.5471  0.4282
   37ccc     H8  979  -0.114   8.973   4.033 -0.3421 -0.8092 -1.0999
   37ccc     O1  980  -0.021   8.727   3.697 -0.0308 -0.0150 -0.5749
   37ccc    H17  981  -0.005   9.058   4.125 -0.0132  1.3415 -0.9448
   38ccc     C1  982   1.591   6.851   4.512 -0.5528 -0.4451  0.8094
   38ccc     H1  983   1.672   6.861   4.440  0.4679  0.2979  2.0307
   38ccc     H2  984   1.518   6.931   4.497 -1.2725 -1.3503 -0.6984
   38ccc     C2  985   1.659   6.871   4.651 -0.0492  0.1962 -0.4981
   38ccc     H3  986   1.582   6.856   4.728 -0.3687 -1.3843 -1.0931
   38ccc     H4  987   1.730   6.788   4.656  0.0528  0.3566  2.9865
   38ccc     C3  988   1.729   7.005   4.668  0.0799  0.0570  0.1125
   38ccc     H5  989   1.809   7.011   4.593  1.6412 -1.3534  1.5932
   38ccc     H6  990   1.789   7.017   4.759  2.7282 -0.9653 -1.3915
   38ccc     N1  991   1.522   6.719   4.480  0.0002 -0.2541  0.3098
   38ccc     H7  992   1.456   6.691   4.554 -0.4067  1.4836  0.6482
   38ccc     H8  993   1.462   6.725   4.397 -2.0353 -3.9937  1.2937
   38ccc     O1  994   1.636   7.111   4.637 -0.0471 -0.5030 -0.3434
   38ccc    H17  995   1.585   6.638   4.467 -1.6868 -1.7570  1.0324
   39ccc     C1  996   2.004   7.863   4.223  0.6848 -0.3543 -0.1295
   39ccc     H1  997   1.926   7.798   4.182  1.4913 -0.0609 -2.2548
   39ccc     H2  998   2.095   7.805   4.238 -0.0838 -1.3606  0.7740
   39ccc     C2  999   1.958   7.902   4.364 -0.3475 -0.3246  0.5436
   39ccc     H3 1000   2.038   7.959   4.411  1.2882 -0.7938 -1.4976
   39ccc     H4 1001   1.866   7.962   4.353  0.0048  0.5367  2.0890
   39ccc     C3 1002   1.936   7.774   4.447 -0.4311 -0.1955  0.3778
   39ccc     H5 1003   2.029   7.722   4.473 -1.4635 -2.0907  0.5425
   39ccc     H6 1004   1.879   7.698   4.391 -0.0314 -0.7043  0.6476
   39ccc     N1 1005   2.009   7.978   4.132  0.4810  0.0558 -0.0916
   39ccc     H7 1006   2.082   8.047   4.155  0.3270  1.2787 -2.8923
   39ccc     H8 1007   2.019   7.950   4.033 -2.9076  1.7914 -1.0555
   39ccc     O1 1008   1.868   7.799   4.569  0.2109 -0.0076 -0.3716
   39ccc    H17 1009   1.922   8.031   4.121  1.2823  1.2788 -0.7433
   40ccc     C1 1010   1.683   8.518   5.234 -0.2321  0.0503 -0.1709
   40ccc     H1 1011   1.575   8.510   5.246 -0.0074 -0.1440  2.1121
   40ccc     H2 1012   1.723   8.606   5.284  1.1172 -1.3024  1.2434
   40ccc     C2 1013   1.720   8.514   5.085 -0.1225 -0.1513 -0.0746
   40ccc     H3 1014   1.810   8.455   5.063  0.6542  0.0209  2.3240
   40ccc     H4 1015   1.642   8.473   5.020 -1.4105  0.9482  0.7193
   40ccc     C3 1016   1.735   8.662   5.030 -0.0784  0.3580 -0.0847
   40ccc     H5 1017   1.773   8.660   4.927 -0.0943 -1.4708 -0.0790
   40ccc     H6 1018   1.800   8.723   5.093 -1.6180  1.4803  0.4847
   40ccc     N1 1019   1.732   8.397   5.313 -0.1809 -0.6281 -0.3006
   40ccc     H7 1020   1.832   8.414   5.334 -0.0701 -1.9295  0.2966
   40ccc     H8 1021   1.680   8.378   5.399  0.1356 -0.0372  0.0300
   40ccc     O1 1022   1.600   8.722   5.041  0.6631  0.6895 -0.2973
   40ccc    H17 1023   1.731   8.313   5.253  3.1448 -0.4289 -0.8375
   41ccc     C1 1024   0.750   9.328   5.101 -0.2963  0.2163  0.3220
   41ccc     H1 1025   0.700   9.259   5.032  1.4570 -0.6978 -0.1023
   41ccc     H2 1026   0.793   9.404   5.036  0.7426 -0.4846  0.1736
   41ccc     C2 1027   0.840   9.245   5.197 -0.1191 -0.2416  0.4300
   41ccc     H3 1028   0.882   9.312   5.273 -0.9316  2.4157 -1.3104
   41ccc     H4 1029   0.782   9.170   5.252  3.9423 -2.4785  2.0312
   41ccc     C3 1030   0.961   9.180   5.134  0.1106  0.3340  0.2281
   41ccc     H5 1031   1.015   9.115   5.203  1.0233 -0.6688 -1.3650
   41ccc     H6 1032   1.036   9.254   5.102  0.7364 -0.5151 -0.3214
   41ccc     N1 1033   0.637   9.393   5.184  0.0212  0.0896  0.1906
   41ccc     H7 1034   0.578   9.453   5.124  3.6965  2.9471 -0.9001
   41ccc     H8 1035   0.579   9.327   5.239 -0.3881 -0.4174 -0.8335
   41ccc     O1 1036   0.918   9.102   5.022  0.2570 -0.4098  0.3735
   41ccc    H17 1037   0.673   9.462   5.253 -1.3197 -0.5684  1.6181
   42ccc     C1 1038   1.641   7.400   4.093  0.0458 -0.4242  0.0549
   42ccc     H1 1039   1.635   7.292   4.083  0.0299 -0.2934 -1.5199
   42ccc     H2 1040   1.742   7.423   4.128 -0.6219  0.3617  1.5489
   42ccc     C2 1041   1.539   7.441   4.208 -0.2596  0.3641  0.5156
   42ccc     H3 1042   1.440   7.434   4.162 -0.3976 -0.0173  0.8591
   42ccc     H4 1043   1.558   7.367   4.288  1.5364  0.5915  0.3501
   42ccc     C3 1044   1.580   7.571   4.273 -0.3181 -0.0904  0.3090
   42ccc     H5 1045   1.689   7.573   4.275 -0.0550 -1.5455 -3.3338
   42ccc     H6 1046   1.554   7.568   4.379  0.6108  1.1274  0.5906
   42ccc     N1 1047   1.628   7.475   3.957 -0.3025  0.7861 -0.3439
   42ccc     H7 1048   1.680   7.563   3.949 -0.2305  0.8547  0.8148
   42ccc     H8 1049   1.668   7.411   3.887 -0.1186  0.2162  0.2751
   42ccc     O1 1050   1.529   7.680   4.200  0.3016 -0.4558 -0.1050
   42ccc    H17 1051   1.528   7.482   3.934 -0.5446 -0.3892  0.2911
   43ccc     C1 1052   1.008   7.284   3.963 -0.4515  0.4972  0.8310
   43ccc     H1 1053   1.018   7.377   3.907 -1.0905  1.2605  1.9601
   43ccc     H2 1054   0.899   7.276   3.974 -0.3873 -1.2737  0.5892
   43ccc     C2 1055   1.080   7.290   4.097 -0.2660  0.8783 -0.5512
   43ccc     H3 1056   1.068   7.194   4.148  0.2521  0.6506 -0.8566
   43ccc     H4 1057   1.181   7.316   4.064 -0.6509  2.5655 -0.5105
   43ccc     C3 1058   1.022   7.400   4.193 -0.3581 -0.0432 -0.0390
   43ccc     H5 1059   1.078   7.399   4.288 -1.5023 -1.8146  0.6825
   43ccc     H6 1060   0.913   7.389   4.206 -0.4923  0.7280 -0.4712
   43ccc     N1 1061   1.053   7.172   3.865  0.0647  0.3653  0.3576
   43ccc     H7 1062   1.133   7.195   3.803 -1.1360 -0.0561 -1.4292
   43ccc     H8 1063   1.075   7.088   3.920  0.0212  0.5062  0.5885
   43ccc     O1 1064   1.040   7.520   4.119  0.0232  0.4036 -0.5602
   43ccc    H17 1065   0.988   7.144   3.790  1.3548  1.7974 -1.4059
   44ccc     C1 1066   1.674   8.995   4.349  0.4132 -0.9901 -0.5641
   44ccc     H1 1067   1.707   8.944   4.259 -1.6190 -4.3838  0.4242
   44ccc     H2 1068   1.583   8.940   4.374  1.2639 -3.4575 -2.4801
   44ccc     C2 1069   1.632   9.144   4.317 -0.8720  0.1357  0.0452
   44ccc     H3 1070   1.643   9.214   4.402  1.8291  1.1538 -1.0210
   44ccc     H4 1071   1.701   9.174   4.237 -0.4165 -1.2746 -0.1070
   44ccc     C3 1072   1.487   9.160   4.252  0.1579 -0.0923 -0.1984
   44ccc     H5 1073   1.470   9.267   4.240  0.0534  0.0518  1.0615
   44ccc     H6 1074   1.410   9.121   4.319  1.0751  0.0814  0.9931
   44ccc     N1 1075   1.783   8.988   4.445  0.5321 -0.0238 -0.2881
   44ccc     H7 1076   1.863   9.044   4.412  1.8130 -1.3146  0.5084
   44ccc     H8 1077   1.746   9.026   4.534  1.7554  1.0331 -0.1960
   44ccc     O1 1078   1.497   9.106   4.125 -0.0735 -0.1594  0.8221
   44ccc    H17 1079   1.816   8.892   4.462  1.0252  0.5321  2.3358
   45ccc     C1 1080   1.101   9.037   3.127  0.1677 -0.9928 -0.1105
   45ccc     H1 1081   1.101   9.145   3.112 -0.3866 -0.5647  2.4978
   45ccc     H2 1082   1.037   9.003   3.209  2.4416 -2.4787  1.1537
   45ccc     C2 1083   1.253   9.013   3.166 -0.1136  0.3654  0.1086
   45ccc     H3 1084   1.267   8.908   3.195 -0.9256  0.3450  0.4409
   45ccc     H4 1085   1.321   9.041   3.085 -0.4619  1.8985  0.3024
   45ccc     C3 1086   1.287   9.106   3.281 -0.1839  0.3834  0.1443
   45ccc     H5 1087   1.283   9.212   3.255 -1.7441 -0.2024 -2.3205
   45ccc     H6 1088   1.392   9.077   3.299  0.0068  0.4674 -0.7967
   45ccc     N1 1089   1.066   8.966   3.002 -0.2454 -0.4916 -0.0844
   45ccc     H7 1090   1.121   8.997   2.920 -1.7678  0.7503 -0.6854
   45ccc     H8 1091   1.081   8.865   3.010 -0.0091 -0.7800 -2.9887
   45ccc     O1 1092   1.207   9.063   3.397 -0.6508  0.3179  0.0352
   45ccc    H17 1093   0.965   8.964   2.983 -0.6572  0.0493  1.7930
   46ccc     C1 1094   1.870   9.941   4.557  0.0336  0.2209  0.1826
   46ccc     H1 1095   1.930   9.879   4.624 -1.0401  1.4735  2.4027
   46ccc     H2 1096   1.936   9.972   4.476 -1.0760  0.9351 -0.4710
   46ccc     C2 1097   1.831  10.066   4.637  0.8575 -0.5632 -0.3964
   46ccc     H3 1098   1.781  10.139   4.572  1.7774  0.9158  0.4967
   46ccc     H4 1099   1.756  10.040   4.712  1.0234  0.8836  0.3099
   46ccc     C3 1100   1.943  10.132   4.716 -0.4206  0.3358  0.0049
   46ccc     H5 1101   1.994  10.061   4.783  0.6138  0.1952 -0.9065
   46ccc     H6 1102   1.892  10.208   4.777 -0.6763  1.0457 -1.0614
   46ccc     N1 1103   1.755   9.863   4.495  0.3802 -0.4827  0.9928
   46ccc     H7 1104   1.786   9.774   4.454 -1.6335 -0.5700 -0.4963
   46ccc     H8 1105   1.680   9.850   4.565 -0.9758 -0.7118 -0.4364
   46ccc     O1 1106   2.028  10.193   4.629 -0.1881  0.1532 -0.2616
   46ccc    H17 1107   1.701   9.912   4.422 -1.0569  0.3401  2.5362
   47ccc     C1 1108   2.457  11.228   4.459  0.2434  0.3477 -0.2407
   47ccc     H1 1109   2.378  11.242   4.533 -0.1608 -0.9284 -0.4058
   47ccc     H2 1110   2.414  11.270   4.368 -0.7520  0.1923  0.1444
   47ccc     C2 1111   2.495  11.081   4.441 -0.3527  0.1686  0.8588
   47ccc     H3 1112   2.579  11.071   4.371  0.4093 -0.2495  1.8088
   47ccc     H4 1113   2.538  11.046   4.536  0.2146  0.5325  0.7403
   47ccc     C3 1114   2.368  11.008   4.393  0.6351 -0.4123 -0.3262
   47ccc     H5 1115   2.389  10.912   4.344  1.1039 -1.4088  1.7168
   47ccc     H6 1116   2.309  11.070   4.325 -1.7156 -0.6957  1.3643
   47ccc     N1 1117   2.569  11.299   4.526  0.0344 -0.3308 -0.3729
   47ccc     H7 1118   2.536  11.393   4.552 -2.0842 -0.9053 -0.7686
   47ccc     H8 1119   2.596  11.240   4.606  2.2166  0.0850 -0.7546
   47ccc     O1 1120   2.272  11.002   4.508 -0.0588  0.1490  0.0651
   47ccc    H17 1121   2.656  11.298   4.471  1.4539  2.0141  1.6636
   48ccc     C1 1122   0.570  10.503   3.460 -0.2898 -0.7746  0.0218
   48ccc     H1 1123   0.484  10.492   3.527  0.7188  0.6118  1.6221
   48ccc     H2 1124   0.575  10.413   3.398 -1.4959 -0.9438  0.1520
   48ccc     C2 1125   0.692  10.534   3.547 -0.1218  0.5341 -0.0317
   48ccc     H3 1126   0.783  10.558   3.491  0.2350  0.8742  0.6739
   48ccc     H4 1127   0.670  10.617   3.616 -2.5307 -0.8616  1.0096
   48ccc     C3 1128   0.731  10.412   3.630  0.1919  0.5887  0.2342
   48ccc     H5 1129   0.650  10.378   3.695 -0.7470 -0.6213 -1.4873
   48ccc     H6 1130   0.825  10.423   3.686 -0.0648  1.8665  0.4573
   48ccc     N1 1131   0.542  10.612   3.366 -0.4110 -1.0615 -0.3704
   48ccc     H7 1132   0.621  10.623   3.301  1.9994  2.1284  2.6704
   48ccc     H8 1133   0.458  10.595   3.309 -0.8224 -1.6069  0.3694
   48ccc     O1 1134   0.750  10.300   3.540  0.3295  0.4306 -0.2464
   48ccc    H17 1135   0.531  10.708   3.402  0.2278 -0.9683 -0.4010
   49ccc     C1 1136   0.558   9.711   4.169 -0.5849 -0.4126 -0.2269
   49ccc     H1 1137   0.652   9.685   4.216  0.8199  2.0527 -1.4710
   49ccc     H2 1138   0.488   9.725   4.251  1.2040 -0.0711  1.3008
   49ccc     C2 1139   0.504   9.606   4.080  0.6315 -0.2898 -1.0983
   49ccc     H3 1140   0.482   9.536   4.162  1.2159  2.2464  1.4079
   49ccc     H4 1141   0.416   9.639   4.024 -0.8593 -1.6348  0.3563
   49ccc     C3 1142   0.610   9.538   3.987 -0.0549 -0.1556  0.0115
   49ccc     H5 1143   0.562   9.456   3.933 -3.5069  0.8532  1.2723
   49ccc     H6 1144   0.700   9.511   4.044 -0.0190  1.8013  0.9986
   49ccc     N1 1145   0.598   9.841   4.101 -0.0470  1.1171 -0.1222
   49ccc     H7 1146   0.619   9.904   4.180 -1.1572 -0.4542  1.5016
   49ccc     H8 1147   0.675   9.831   4.033  0.3029 -1.8097  0.5672
   49ccc     O1 1148   0.659   9.648   3.898 -0.0098 -0.5522  0.0126
   49ccc    H17 1149   0.518   9.877   4.046  0.9415 -0.8020 -3.0713
   50ccc     C1 1150   2.620   9.888   4.959  0.3476 -0.1082  0.0718
   50ccc     H1 1151   2.536   9.957   4.947  0.7607  0.1542 -1.6515
   50ccc     H2 1152   2.714   9.941   4.942  0.2091  0.2604  0.4609
   50ccc     C2 1153   2.617   9.777   4.847 -0.4427  0.3000  0.1236
   50ccc     H3 1154   2.646   9.819   4.750 -0.3531  1.8348  0.7916
   50ccc     H4 1155   2.697   9.704   4.868 -1.3960 -0.0670  2.8982
   50ccc     C3 1156   2.479   9.702   4.825  0.0829 -0.4123 -0.5227
   50ccc     H5 1157   2.465   9.653   4.922 -0.6644  3.4698  1.4943
   50ccc     H6 1158   2.489   9.631   4.742 -1.9880  0.2114 -1.3667
   50ccc     N1 1159   2.634   9.832   5.102  0.0306 -0.1060 -0.1940
   50ccc     H7 1160   2.724   9.781   5.098 -0.8211 -1.5918 -1.5926
   50ccc     H8 1161   2.632   9.900   5.179  1.4372  2.4326 -2.2266
   50ccc     O1 1162   2.379   9.805   4.802  0.2617 -0.0993 -0.0578
   50ccc    H17 1163   2.561   9.762   5.117 -2.2690  1.7712 -1.9218
   51ccc     C1 1164   2.699  10.273   4.919  0.5249  0.5239  0.9098
   51ccc     H1 1165   2.745  10.370   4.898 -3.2404  2.0320 -1.5301
   51ccc     H2 1166   2.783  10.204   4.915  0.7815  0.8873 -1.4026
   51ccc     C2 1167   2.585  10.234   4.814 -0.2684  0.3619 -0.1867
   51ccc     H3 1168   2.532  10.142   4.842 -0.6164  1.1080  1.8119
   51ccc     H4 1169   2.510  10.314   4.803 -0.6717 -0.0013 -0.1025
   51ccc     C3 1170   2.641  10.208   4.667 -0.5527 -0.0556  0.7793
   51ccc     H5 1171   2.694  10.112   4.668  1.1953  0.7643 -2.0821
   51ccc     H6 1172   2.709  10.286   4.632 -1.2912  0.1441 -0.2695
   51ccc     N1 1173   2.660  10.278   5.061 -0.0769  0.0513  0.1994
   51ccc     H7 1174   2.637  10.188   5.105  0.0545  0.1860  0.5438
   51ccc     H8 1175   2.732  10.322   5.120 -0.0241 -0.8800  0.8568
   51ccc     O1 1176   2.530  10.205   4.578  0.0307  0.2178 -0.5976
   51ccc    H17 1177   2.575  10.332   5.080  1.0111  1.2740  1.8505
   52ccc     C1 1178   2.511  11.116   3.405 -0.1886 -0.2535 -0.1530
   52ccc     H1 1179   2.505  11.069   3.307 -0.6845 -1.1458  0.2928
   52ccc     H2 1180   2.615  11.133   3.436 -0.2895  0.6345 -0.2705
   52ccc     C2 1181   2.436  11.039   3.508 -0.5344  0.2636  0.2953
   52ccc     H3 1182   2.506  10.962   3.543 -0.7373 -0.5810 -1.0568
   52ccc     H4 1183   2.410  11.104   3.592 -1.5421  0.3087 -0.0383
   52ccc     C3 1184   2.312  10.979   3.447  0.0987  0.9461 -0.9093
   52ccc     H5 1185   2.228  11.049   3.444  0.4254  1.3465 -0.8395
   52ccc     H6 1186   2.285  10.900   3.518  3.1552  0.4918 -0.1019
   52ccc     N1 1187   2.447  11.254   3.384  0.0148  0.2946 -0.5138
   52ccc     H7 1188   2.469  11.279   3.286 -1.6685  1.5209 -0.6141
   52ccc     H8 1189   2.345  11.249   3.390  0.0751  1.1369  2.3102
   52ccc     O1 1190   2.346  10.910   3.328  0.2799 -0.8770 -0.0411
   52ccc    H17 1191   2.474  11.329   3.449  1.2452 -0.3152 -0.2861
   53ccc     C1 1192   2.784  10.106   2.794  0.8081 -0.9170 -0.4419
   53ccc     H1 1193   2.713  10.137   2.717  0.1568  4.2488  1.7836
   53ccc     H2 1194   2.729  10.051   2.871 -0.4339 -0.3958 -0.9382
   53ccc     C2 1195   2.859  10.232   2.857  0.1611  0.1619  0.7287
   53ccc     H3 1196   2.927  10.196   2.936  1.6417 -0.2318 -0.6663
   53ccc     H4 1197   2.928  10.276   2.784  0.4913 -1.2804  0.1254
   53ccc     C3 1198   2.762  10.340   2.911 -0.0457 -0.1073  0.4301
   53ccc     H5 1199   2.721  10.399   2.828 -2.3568 -0.5051  1.2384
   53ccc     H6 1200   2.823  10.397   2.982  0.0191 -1.6866  1.7066
   53ccc     N1 1201   2.874   9.993   2.739  0.0841 -0.1422 -0.4196
   53ccc     H7 1202   2.923   9.955   2.821 -0.5834  0.7274  0.4036
   53ccc     H8 1203   2.823   9.917   2.693  1.1571 -0.5023 -1.0751
   53ccc     O1 1204   2.654  10.279   2.977 -0.0960 -0.2560 -0.0042
   53ccc    H17 1205   2.944  10.028   2.670 -0.3115 -0.8462 -1.1957
   54ccc     C1 1206   3.176   9.177   4.322 -0.1402  0.1593 -0.3403
   54ccc     H1 1207   3.155   9.097   4.394 -1.4278  1.0058  0.2773
   54ccc     H2 1208   3.203   9.254   4.395  2.1961 -1.3642  0.5344
   54ccc     C2 1209   3.060   9.199   4.226 -0.3833  0.2227  0.3750
   54ccc     H3 1210   3.047   9.102   4.177  2.4115  0.2647 -0.6229
   54ccc     H4 1211   2.982   9.231   4.296 -1.1611  2.3112 -1.3423
   54ccc     C3 1212   3.086   9.315   4.125 -0.2311 -0.1373  0.0646
   54ccc     H5 1213   3.111   9.411   4.172 -0.2514 -0.0897 -0.0234
   54ccc     H6 1214   2.995   9.336   4.067 -0.0771  0.9903  0.2083
   54ccc     N1 1215   3.313   9.155   4.263  0.1345  0.6415 -0.1249
   54ccc     H7 1216   3.376   9.085   4.306  0.8995 -0.5676 -2.9480
   54ccc     H8 1217   3.320   9.137   4.162 -0.2366  0.4817 -0.1233
   54ccc     O1 1218   3.197   9.271   4.042 -0.2295 -0.6034  0.2705
   54ccc    H17 1219   3.365   9.244   4.269 -0.6348  1.0159  1.5754
   55ccc     C1 1220   3.485   9.812   3.105 -0.6041 -0.3852 -0.4833
   55ccc     H1 1221   3.447   9.915   3.106  0.7461  0.1403  1.0117
   55ccc     H2 1222   3.404   9.742   3.083  0.0224 -0.9394 -1.0522
   55ccc     C2 1223   3.551   9.791   3.244  0.0596  0.6927 -0.5380
   55ccc     H3 1224   3.582   9.686   3.256 -1.9864  0.0820 -0.1982
   55ccc     H4 1225   3.644   9.847   3.261  1.2950 -0.6528 -2.4359
   55ccc     C3 1226   3.448   9.808   3.360 -0.1629 -0.3286  0.4277
   55ccc     H5 1227   3.384   9.896   3.344  1.6681  1.3624  1.8144
   55ccc     H6 1228   3.509   9.831   3.449  1.3207 -0.5104 -0.4967
   55ccc     N1 1229   3.583   9.797   2.992  0.4463  0.0232 -0.6224
   55ccc     H7 1230   3.541   9.819   2.901  0.6419 -2.0585 -1.2675
   55ccc     H8 1231   3.670   9.849   3.009  1.2510 -1.3950 -0.2319
   55ccc     O1 1232   3.384   9.686   3.388 -0.2908 -0.2290 -0.1806
   55ccc    H17 1233   3.600   9.695   2.990  1.0193  0.1226 -0.8281
   56ccc     C1 1234   3.258  10.730   4.213  0.0949  0.0138 -0.2662
   56ccc     H1 1235   3.170  10.697   4.268  0.6339 -1.4014 -0.2016
   56ccc     H2 1236   3.244  10.722   4.106  0.6324 -1.6738 -0.2350
   56ccc     C2 1237   3.371  10.641   4.266  0.1866 -0.4019 -0.1057
   56ccc     H3 1238   3.468  10.672   4.224  1.4503 -2.9490  0.6804
   56ccc     H4 1239   3.381  10.652   4.375  1.4898 -1.1529 -0.1213
   56ccc     C3 1240   3.339  10.491   4.227  0.3464 -0.2828  1.0713
   56ccc     H5 1241   3.240  10.462   4.265  0.3260 -1.4391  0.1551
   56ccc     H6 1242   3.409  10.416   4.265  0.2415  0.1651  2.1856
   56ccc     N1 1243   3.285  10.866   4.250 -0.6560 -0.6112 -0.3336
   56ccc     H7 1244   3.321  10.880   4.346 -0.6278  0.9202 -0.5469
   56ccc     H8 1245   3.349  10.902   4.178 -2.5203 -1.1871 -2.3764
   56ccc     O1 1246   3.336  10.485   4.088 -0.6010 -0.3175 -0.1056
   56ccc    H17 1247   3.199  10.923   4.242 -1.2828 -0.9363  2.7824
   57ccc     C1 1248   3.765   9.649   3.741 -0.3118 -0.0334  0.2816
   57ccc     H1 1249   3.781   9.654   3.848 -0.8646  0.6862  0.3424
   57ccc     H2 1250   3.826   9.719   3.684  3.1878 -1.6103  1.8435
   57ccc     C2 1251   3.618   9.682   3.717  0.2259  0.2390 -0.1648
   57ccc     H3 1252   3.592   9.660   3.613 -1.1113 -2.7571  0.7093
   57ccc     H4 1253   3.548   9.621   3.775  0.1858 -1.3522 -1.7927
   57ccc     C3 1254   3.584   9.829   3.742  0.4176  0.0539  0.7302
   57ccc     H5 1255   3.646   9.888   3.673  3.6048 -0.5841  2.8429
   57ccc     H6 1256   3.600   9.864   3.844  0.4614 -0.8467  1.0467
   57ccc     N1 1257   3.803   9.506   3.707 -0.0597 -0.8048 -0.2241
   57ccc     H7 1258   3.795   9.471   3.611 -1.4087 -1.3064  0.0449
   57ccc     H8 1259   3.903   9.488   3.722  0.1109 -1.7435 -2.1831
   57ccc     O1 1260   3.447   9.857   3.704  0.1294 -0.3143  0.3996
   57ccc    H17 1261   3.736   9.447   3.760 -0.8282  0.4888  0.2965
   58ccc     C1 1262   3.901  10.364   4.611  0.1455 -0.6203  0.0363
   58ccc     H1 1263   3.864  10.261   4.611 -1.2674 -0.1523 -1.1521
   58ccc     H2 1264   3.814  10.426   4.632  2.2289  2.9863 -1.1278
   58ccc     C2 1265   3.957  10.414   4.475  0.3698 -0.1279 -0.2929
   58ccc     H3 1266   3.990  10.518   4.481 -0.8190  0.2783 -0.4399
   58ccc     H4 1267   4.025  10.338   4.436  0.2013 -0.5840  0.2892
   58ccc     C3 1268   3.842  10.425   4.372 -1.1519 -0.5015 -0.7215
   58ccc     H5 1269   3.894  10.431   4.275  1.1488  1.4861  0.5225
   58ccc     H6 1270   3.781  10.514   4.391  1.8255  1.5410  0.0489
   58ccc     N1 1271   4.001  10.376   4.721  0.3432  0.4032  0.5182
   58ccc     H7 1272   4.090  10.334   4.691 -1.3751 -2.1019 -1.4979
   58ccc     H8 1273   4.013  10.474   4.751 -0.2768  0.6706 -0.0905
   58ccc     O1 1274   3.776  10.303   4.380  0.1162 -0.1704  0.4558
   58ccc    H17 1275   3.971  10.324   4.805  2.2566 -1.2048  0.2891
   59ccc     C1 1276   4.069   9.582   4.636  0.1570 -0.1077 -0.0112
   59ccc     H1 1277   4.033   9.480   4.634 -3.4793  1.0174  0.6117
   59ccc     H2 1278   4.002   9.647   4.693 -0.7551  1.2481 -2.4952
   59ccc     C2 1279   4.061   9.642   4.493  0.8765  0.3293 -0.1268
   59ccc     H3 1280   4.072   9.751   4.496 -0.2469  0.4285  2.2985
   59ccc     H4 1281   4.141   9.599   4.431  1.0283  0.0340  0.2664
   59ccc     C3 1282   3.925   9.614   4.428 -0.2429 -0.1879  0.6153
   59ccc     H5 1283   3.900   9.511   4.457  1.6604 -0.4827  1.3256
   59ccc     H6 1284   3.923   9.626   4.319  1.4770  1.9575  0.7591
   59ccc     N1 1285   4.208   9.577   4.703 -0.1145 -0.1428  0.0648
   59ccc     H7 1286   4.261   9.665   4.700  1.9112 -1.2676  0.8562
   59ccc     H8 1287   4.206   9.535   4.797 -1.4921 -1.2840 -0.4512
   59ccc     O1 1288   3.836   9.705   4.492 -0.0654  0.0762  0.7764
   59ccc    H17 1289   4.267   9.522   4.639  1.9502  3.1543 -1.1606
   60ccc     C1 1290   2.446   9.934   3.005 -0.1306  0.4780 -0.1954
   60ccc     H1 1291   2.530   9.981   3.057  0.8120  1.8156 -2.6879
   60ccc     H2 1292   2.446   9.997   2.915  0.8875 -0.3544 -0.8067
   60ccc     C2 1293   2.306   9.956   3.076 -0.4716  0.3255  0.0113
   60ccc     H3 1294   2.269  10.059   3.068 -1.5652  0.0966  1.5945
   60ccc     H4 1295   2.230   9.903   3.018  1.5240 -0.2005 -2.2729
   60ccc     C3 1296   2.303   9.921   3.224 -0.3812 -0.3649 -0.0886
   60ccc     H5 1297   2.316   9.813   3.235 -0.5891 -0.6480 -2.1767
   60ccc     H6 1298   2.207   9.958   3.260 -0.8268 -0.1643 -1.4296
   60ccc     N1 1299   2.474   9.789   2.969 -0.7084 -0.3279  0.1503
   60ccc     H7 1300   2.557   9.782   2.908 -1.2707  2.1815 -1.0282
   60ccc     H8 1301   2.494   9.739   3.057 -2.8964 -2.7732 -0.6216
   60ccc     O1 1302   2.408   9.989   3.302  0.0347 -0.3612 -0.2112
   60ccc    H17 1303   2.399   9.743   2.915 -1.9709 -1.7965  2.9502
   61ccc     C1 1304   1.549  10.698   3.780 -0.2814 -0.5814 -0.0804
   61ccc     H1 1305   1.469  10.624   3.773 -0.2705 -0.6547  0.5484
   61ccc     H2 1306   1.530  10.774   3.704 -1.3825 -0.0091  0.7313
   61ccc     C2 1307   1.690  10.636   3.769 -0.6943 -0.2419 -0.1053
   61ccc     H3 1308   1.770  10.711   3.771  0.9864 -1.9729  0.4253
   61ccc     H4 1309   1.703  10.569   3.855 -2.8980  0.3147  0.7450
   61ccc     C3 1310   1.699  10.557   3.634  0.1088  0.2940 -0.6175
   61ccc     H5 1311   1.663  10.616   3.549  0.6968  1.9226  0.2191
   61ccc     H6 1312   1.644  10.462   3.637  1.3744 -0.4773 -1.0159
   61ccc     N1 1313   1.516  10.779   3.907  0.2782 -0.1069  0.1225
   61ccc     H7 1314   1.414  10.795   3.906  0.0397 -1.4375 -2.1503
   61ccc     H8 1315   1.542  10.736   3.997  0.3852  1.1409  0.7115
   61ccc     O1 1316   1.840  10.519   3.605 -0.2023 -0.2953 -0.6424
   61ccc    H17 1317   1.562  10.871   3.909 -0.3168  0.2954 -2.1812
   62SOL     OW 1318   0.084   7.142   6.338  0.3515 -0.9327 -0.0572
   62SOL    HW1 1319   0.045   7.058   6.362  2.4799 -2.0416 -0.2605
   62SOL    HW2 1320   0.026   7.177   6.270 -0.1946 -2.5894 -0.4942
   63SOL     OW 1321   5.117   2.885   1.754  0.2805  0.1332 -0.4100
   63SOL    HW1 1322   5.095   2.968   1.711 -0.8536 -0.4963 -1.0894
   63SOL    HW2 1323   5.099   2.900   1.846 -0.6244  0.4285 -0.6232
   64SOL     OW 1324   2.181   7.270   0.147 -0.0054  0.5100  1.1010
   64SOL    HW1 1325   2.150   7.361   0.147  0.9129  0.8539 -0.3506
   64SOL    HW2 1326   2.219   7.257   0.234  0.2180  1.6461  1.1841
   65SOL     OW 1327   1.521   0.662   7.187 -0.2533 -0.3518 -0.3083
   65SOL    HW1 1328   1.439   0.673   7.140 -1.3122  0.2255  1.5336
   65SOL    HW2 1329   1.520   0.571   7.217 -0.3017 -0.3100 -0.1793
   66SOL     OW 1330   5.743   1.045   7.637  0.1028  0.2224  0.6416
   66SOL    HW1 1331   5.729   1.042   7.731  0.5283  0.4386  0.7136
   66SOL    HW2 1332   5.655   1.057   7.600 -0.3813 -2.2267  0.8606
   67SOL     OW 1333   1.069   1.953   6.889 -0.0386  0.2452  0.1106
   67SOL    HW1 1334   1.119   1.899   6.949  1.1497  2.3225  1.0935
   67SOL    HW2 1335   1.131   2.018   6.856 -1.7656  2.2300  0.4995
   68SOL     OW 1336   7.507   7.999   5.478  0.2690 -1.0063 -0.1123
   68SOL    HW1 1337   7.566   7.995   5.553 -0.5895  0.7649  0.7292
   68SOL    HW2 1338   7.419   7.990   5.515 -0.0966 -2.0024 -1.1524
   69SOL     OW 1339   2.167   1.408   7.862  0.2207  0.3243  0.6100
   69SOL    HW1 1340   2.196   1.422   7.772 -0.2929  0.4230  0.4548
   69SOL    HW2 1341   2.201   1.322   7.885  1.0675  0.6473  0.6159
   70SOL     OW 1342   6.656   9.010   3.872  0.0144 -0.1816 -0.8704
   70SOL    HW1 1343   6.687   9.014   3.781 -1.7431  1.0461 -1.4766
   70SOL    HW2 1344   6.672   9.098   3.906  0.6005 -0.6172  0.0025
   71SOL     OW 1345   5.388   6.209   1.647  0.4280 -0.1257  0.4411
   71SOL    HW1 1346   5.372   6.170   1.733 -0.5708  0.0071  0.3205
   71SOL    HW2 1347   5.433   6.291   1.667  2.0965 -1.0643  0.7193
   72SOL     OW 1348   1.185   5.031   1.910 -0.2595 -0.0177  0.2882
   72SOL    HW1 1349   1.119   4.966   1.886  0.3789 -0.3841 -0.5426
   72SOL    HW2 1350   1.253   4.981   1.955  0.6225 -0.0952 -1.0716
   73SOL     OW 1351   1.712   2.552   2.889  0.7095 -0.6227 -0.7217
   73SOL    HW1 1352   1.638   2.596   2.847  0.8489  0.3199 -0.0449
   73SOL    HW2 1353   1.691   2.556   2.983  1.6024 -0.3421 -0.5241
   74SOL     OW 1354   5.732   1.251   1.714  0.1268  0.5825 -0.3526
   74SOL    HW1 1355   5.791   1.323   1.738  0.1499  1.2630 -2.2742
   74SOL    HW2 1356   5.753   1.232   1.623 -0.0746 -1.7168  0.0371
   75SOL     OW 1357   1.015   8.175   7.042  0.0012 -0.1999  0.3120
   75SOL    HW1 1358   1.085   8.232   7.074 -0.7521  1.1591 -0.3379
   75SOL    HW2 1359   1.031   8.091   7.084  0.7046  0.6989  1.9654
   76SOL     OW 1360   3.168   1.163   4.949  0.4230 -0.0850 -0.2011
   76SOL    HW1 1361   3.115   1.191   5.024  0.0759  0.8732 -0.7828
   76SOL    HW2 1362   3.167   1.068   4.953  1.1362 -0.0722  1.5208
   77SOL     OW 1363   7.495   5.137   4.409 -0.1361  0.9198 -0.0537
   77SOL    HW1 1364   7.457   5.119   4.323  0.2142 -0.3532  0.0459
   77SOL    HW2 1365   7.519   5.051   4.444 -0.4086  1.3995  1.3887
   78SOL     OW 1366   0.944   2.570   4.604  0.1189 -0.2516 -0.0212
   78SOL    HW1 1367   0.981   2.648   4.562  0.9547  0.4307  1.8522
   78SOL    HW2 1368   0.850   2.579   4.594  0.1755  1.2698  0.5603
   79SOL     OW 1369   2.533   3.587   1.670  0.4454  0.4152 -0.0650
   79SOL    HW1 1370   2.522   3.575   1.575 -0.1810  1.4121 -0.1365
   79SOL    HW2 1371   2.591   3.516   1.697  0.4318 -0.0287 -1.1570
   80SOL     OW 1372   6.586   7.625   2.087  0.3602 -0.3180 -0.1038
   80SOL    HW1 1373   6.590   7.565   2.012  2.7399 -0.0100 -0.3010
   80SOL    HW2 1374   6.551   7.706   2.050  0.4658 -0.5037 -0.6275
   81SOL     OW 1375   3.827   8.324   8.800 -0.0030  0.0743 -0.1482
   81SOL    HW1 1376   3.901   8.286   8.846 -0.6612 -0.5546  0.4199
   81SOL    HW2 1377   3.848   8.314   8.707  1.7254  2.1173 -0.0477
   82SOL     OW 1378   2.873   3.442   8.265 -0.5874  0.2379 -0.3639
   82SOL    HW1 1379   2.841   3.464   8.352 -0.3630  0.8769 -0.4404
   82SOL    HW2 1380   2.900   3.350   8.273  1.2511  0.8173  0.8076
   83SOL     OW 1381   3.173   0.744   2.291 -0.6253 -0.6767  0.7217
   83SOL    HW1 1382   3.139   0.745   2.202  0.4051  0.3422  0.3036
   83SOL    HW2 1383   3.268   0.742   2.280 -0.4872 -0.8586  1.8047
   84SOL     OW 1384   6.987   3.007   8.852  0.0052  0.2467  0.0667
   84SOL    HW1 1385   7.079   2.981   8.848  0.2515  0.9167  0.9827
   84SOL    HW2 1386   6.989   3.097   8.884 -0.8921  0.9120 -1.6770
   85SOL     OW 1387   6.697   4.025   8.115 -0.5546 -0.4678 -0.3634
   85SOL    HW1 1388   6.717   3.932   8.126 -0.9939 -0.4122  1.2421
   85SOL    HW2 1389   6.632   4.043   8.183 -0.8492  0.9049 -0.9789
   86SOL     OW 1390   7.421   2.496   9.051  0.3538  0.1987 -0.5354
   86SOL    HW1 1391   7.486   2.515   9.118  0.7050  0.9393 -1.0690
   86SOL    HW2 1392   7.473   2.471   8.974 -0.0226 -0.1835 -0.6678
   87SOL     OW 1393   4.187   4.471   4.302  0.0979  0.4628  0.1157
   87SOL    HW1 1394   4.134   4.548   4.322 -1.5215 -0.5615 -0.0762
   87SOL    HW2 1395   4.137   4.423   4.236  1.0701 -0.7558  0.2221
   88SOL     OW 1396   4.858   2.697   4.464 -0.4317 -0.7199  0.1968
   88SOL    HW1 1397   4.929   2.650   4.420  0.5548 -0.3894  1.3726
   88SOL    HW2 1398   4.817   2.631   4.520  0.2308 -0.4655  0.9996
   89SOL     OW 1399   8.338   1.252   7.478  0.3457 -0.3741  0.3314
   89SOL    HW1 1400   8.365   1.297   7.398  0.8329 -0.9889  0.1401
   89SOL    HW2 1401   8.370   1.162   7.467  0.9392 -0.3211  1.4729
   90SOL     OW 1402   1.735   3.400   6.733  0.2144 -0.5527  0.3870
   90SOL    HW1 1403   1.810   3.459   6.735  1.5021 -2.1282  2.1123
   90SOL    HW2 1404   1.663   3.450   6.770  0.6904  0.6083 -0.2085
   91SOL     OW 1405   8.710   3.544   7.881 -0.1962 -0.4021 -0.2203
   91SOL    HW1 1406   8.778   3.479   7.864 -0.8392 -1.6592  1.6250
   91SOL    HW2 1407   8.711   3.601   7.804  0.5986 -2.4022 -1.7840
   92SOL     OW 1408   6.838   2.829   3.464 -0.4276  0.3333  0.2804
   92SOL    HW1 1409   6.856   2.776   3.541 -2.3484 -0.1599  0.4541
   92SOL    HW2 1410   6.748   2.860   3.477  0.1528  2.5373 -0.4695
   93SOL     OW 1411   5.561   4.081   1.610  0.2179 -0.2007 -0.3025
   93SOL    HW1 1412   5.627   4.053   1.547  0.7403 -1.1778  0.6396
   93SOL    HW2 1413   5.575   4.175   1.619  1.3777 -0.3544 -0.2746
   94SOL     OW 1414   8.690   4.743   2.659 -0.2988 -0.3890  0.0393
   94SOL    HW1 1415   8.628   4.781   2.597 -0.8304 -0.5325  0.4720
   94SOL    HW2 1416   8.646   4.750   2.744  1.0898  1.3741  0.6994
   95SOL     OW 1417   4.299   1.799   2.232  0.3248  0.4118  0.5969
   95SOL    HW1 1418   4.361   1.748   2.180 -0.0143  0.8751 -0.2648
   95SOL    HW2 1419   4.338   1.802   2.319  1.0703 -0.0645  0.2873
   96SOL     OW 1420   4.728   5.658   5.934 -0.0348  0.4157  0.0002
   96SOL    HW1 1421   4.693   5.594   5.872  0.4602 -1.2097  1.3024
   96SOL    HW2 1422   4.680   5.739   5.916 -2.4036 -0.9304 -0.1640
   97SOL     OW 1423   3.813   5.719   0.519 -0.0536  0.0780 -0.6290
   97SOL    HW1 1424   3.797   5.813   0.518 -1.1094  0.0474  2.8769
   97SOL    HW2 1425   3.853   5.702   0.604 -0.9165 -2.7898 -0.6921
   98SOL     OW 1426   7.876   8.333   2.760  0.0963  0.2784  0.4511
   98SOL    HW1 1427   7.882   8.329   2.855 -2.2765 -1.7366  0.6202
   98SOL    HW2 1428   7.783   8.337   2.741  0.4833  0.3184 -1.8043
   99SOL     OW 1429   6.691   6.827   3.181 -0.1286  0.2164  0.1347
   99SOL    HW1 1430   6.719   6.914   3.209  0.1500  0.3195 -0.4451
   99SOL    HW2 1431   6.596   6.826   3.195 -0.1771  0.7228 -0.1495
  100SOL     OW 1432   6.424   6.379   4.613 -0.4157  0.1503 -0.2127
  100SOL    HW1 1433   6.444   6.420   4.697 -2.2854 -0.3257  0.4994
  100SOL    HW2 1434   6.445   6.446   4.548  2.0884  0.1650  0.4993
  101SOL     OW 1435   4.519   3.908   1.024  0.2683 -0.1564  0.4549
  101SOL    HW1 1436   4.507   3.990   0.975  0.4183 -1.2418 -1.5068
  101SOL    HW2 1437   4.475   3.842   0.970  0.4722 -1.4376  1.8120
  102SOL     OW 1438   3.132   1.257   4.488 -0.1350 -0.6978  0.1240
  102SOL    HW1 1439   3.056   1.238   4.434 -0.0414 -0.0462 -0.2396
  102SOL    HW2 1440   3.096   1.297   4.567 -0.1598 -0.1231 -0.1703
  103SOL     OW 1441   7.666   9.058   8.397 -0.1166 -0.1319 -0.0356
  103SOL    HW1 1442   7.742   9.000   8.406 -0.3285 -0.4155 -0.0729
  103SOL    HW2 1443   7.698   9.130   8.342 -0.0188 -0.5079 -0.4798
  104SOL     OW 1444   0.317   4.929   3.141  0.0757 -0.1195 -0.0383
  104SOL    HW1 1445   0.317   4.837   3.115  1.9626 -0.4874  1.0655
  104SOL    HW2 1446   0.409   4.949   3.159 -0.0801  2.3769 -1.5141
  105SOL     OW 1447   6.727   2.681   7.630 -0.0350  0.2400  0.0715
  105SOL    HW1 1448   6.689   2.606   7.584  1.6564  0.0378 -1.0713
  105SOL    HW2 1449   6.662   2.702   7.698 -0.2980 -2.6065  0.8413
  106SOL     OW 1450   4.521   8.650   8.992  0.2345  0.2455 -0.8628
  106SOL    HW1 1451   4.497   8.558   8.999  0.7697  0.1650  0.0292
  106SOL    HW2 1452   4.446   8.691   8.949  0.4690 -0.8027 -2.3704
  107SOL     OW 1453   8.414   5.381   1.129 -0.0012 -0.0134 -0.0897
  107SOL    HW1 1454   8.446   5.293   1.148 -1.8758 -0.9002 -0.8241
  107SOL    HW2 1455   8.446   5.399   1.040 -1.6545 -0.9964 -0.9201
  108SOL     OW 1456   6.633   6.016   5.343  0.1957  0.1987 -0.2118
  108SOL    HW1 1457   6.590   5.940   5.382  0.7476 -0.2876 -0.5412
  108SOL    HW2 1458   6.724   5.991   5.334  0.8213  1.6433  1.5319
  109SOL     OW 1459   8.629   4.171   8.508 -0.2190 -0.2210 -0.3238
  109SOL    HW1 1460   8.639   4.151   8.602  0.2417 -1.2664 -0.5789
  109SOL    HW2 1461   8.707   4.222   8.486 -0.8050  0.8701  0.0666
  110SOL     OW 1462   8.839   3.270   3.745  0.2955 -0.7107  0.0135
  110SOL    HW1 1463   8.887   3.243   3.823 -2.4739 -0.2991  2.0426
  110SOL    HW2 1464   8.828   3.365   3.756 -0.0672 -0.6367 -0.9066
  111SOL     OW 1465   1.599   1.959   7.999 -0.4573  0.3269  0.0804
  111SOL    HW1 1466   1.633   1.880   7.957  1.1852  0.3192  1.3096
  111SOL    HW2 1467   1.514   1.933   8.035 -0.5794 -0.4621 -0.7557
  112SOL     OW 1468   3.215   8.560   6.827 -0.4216  0.4337  0.1599
  112SOL    HW1 1469   3.231   8.514   6.909  0.3918 -1.1829 -0.8637
  112SOL    HW2 1470   3.302   8.583   6.795 -0.7831  2.0466  0.2666
  113SOL     OW 1471   1.677   4.456   2.252 -0.5822  0.6518 -0.8030
  113SOL    HW1 1472   1.751   4.397   2.267  0.1844  1.7724  0.0011
  113SOL    HW2 1473   1.701   4.506   2.175 -1.6058 -0.6138 -1.9900
  114SOL     OW 1474   2.592   2.886   3.319 -0.3307  0.2498  0.3216
  114SOL    HW1 1475   2.602   2.974   3.284  0.0543  0.0063 -0.1990
  114SOL    HW2 1476   2.646   2.831   3.262  0.0500 -0.2088  1.1051
  115SOL     OW 1477   7.107   9.068   3.114  0.0903 -0.1766 -0.2196
  115SOL    HW1 1478   7.168   9.068   3.040 -0.1325 -0.0296 -0.4042
  115SOL    HW2 1479   7.023   9.042   3.076 -0.0754  0.1247 -0.0634
  116SOL     OW 1480   1.777   4.882   4.690 -0.5516  0.2394 -0.2479
  116SOL    HW1 1481   1.704   4.846   4.741  0.5530  0.6497  1.7246
  116SOL    HW2 1482   1.845   4.814   4.695 -0.0933  0.6814 -0.3910
  117SOL     OW 1483   3.384   8.588   1.789  0.4503 -0.8146  0.6210
  117SOL    HW1 1484   3.397   8.680   1.766 -1.1154 -0.7551 -0.2042
  117SOL    HW2 1485   3.469   8.546   1.773  0.9387  0.3163  0.1380
  118SOL     OW 1486   3.819   2.234   3.461 -0.3402  0.6186  0.3526
  118SOL    HW1 1487   3.755   2.270   3.400 -0.8625 -0.8282  0.0090
  118SOL    HW2 1488   3.904   2.264   3.428 -0.6742  0.5039 -0.6328
  119SOL     OW 1489   5.708   8.183   0.118  0.3837 -0.3769  0.2825
  119SOL    HW1 1490   5.690   8.089   0.114 -1.6113 -0.0246 -0.0095
  119SOL    HW2 1491   5.633   8.220   0.164  0.0374  1.3042 -1.5042
  120SOL     OW 1492   1.862   0.136   6.693 -0.3990  0.4478 -0.5086
  120SOL    HW1 1493   1.803   0.158   6.621  1.8789  0.3832 -2.5221
  120SOL    HW2 1494   1.883   0.221   6.733 -1.0016  0.5899 -0.4902
  121SOL     OW 1495   5.665   9.051   6.338 -0.1055 -0.4064 -0.5769
  121SOL    HW1 1496   5.597   9.018   6.396 -1.0921 -0.7677 -1.8935
  121SOL    HW2 1497   5.747   9.027   6.381 -0.7705  0.3199  1.2113
  122SOL     OW 1498   2.697   7.540   1.016  0.1299 -0.3745  0.0447
  122SOL    HW1 1499   2.670   7.563   1.105  0.9070 -2.4596  0.8834
  122SOL    HW2 1500   2.626   7.572   0.961 -0.4388  0.8472  1.4006
  123SOL     OW 1501   5.447   2.671   3.603  0.2189  0.0044  0.1007
  123SOL    HW1 1502   5.354   2.655   3.588 -0.1458  2.8051 -1.4060
  123SOL    HW2 1503   5.492   2.597   3.561 -1.2613  0.9688 -3.5703
  124SOL     OW 1504   6.290   8.072   2.020  0.1257 -0.1159  0.0097
  124SOL    HW1 1505   6.319   8.055   2.110 -1.0974 -0.2355  0.4107
  124SOL    HW2 1506   6.205   8.115   2.031  1.0869  2.1809 -1.0740
  125SOL     OW 1507   0.490   6.829   8.444 -0.4328  0.1333 -0.0047
  125SOL    HW1 1508   0.482   6.923   8.463 -3.3440  0.2005 -1.1523
  125SOL    HW2 1509   0.496   6.788   8.530  1.0460  1.3251  0.5180
  126SOL     OW 1510   6.257   6.318   0.507 -0.0088 -0.1930 -0.0568
  126SOL    HW1 1511   6.216   6.297   0.424 -1.9909 -1.5541  1.1817
  126SOL    HW2 1512   6.228   6.408   0.527  1.3067  0.5363 -1.2478
  127SOL     OW 1513   2.556   7.674   8.191 -0.3795  0.3407 -0.8350
  127SOL    HW1 1514   2.578   7.686   8.098  1.1104  5.1108 -0.1209
  127SOL    HW2 1515   2.638   7.685   8.237 -1.3870 -0.2277  1.2057
  128SOL     OW 1516   3.511   0.455   6.550  0.4688 -0.9168 -0.0582
  128SOL    HW1 1517   3.459   0.535   6.554 -0.3496 -1.4614  0.5679
  128SOL    HW2 1518   3.447   0.385   6.564  1.3789 -1.6031  0.7541
  129SOL     OW 1519   7.457   4.381   7.012 -0.1324 -0.7708  0.0234
  129SOL    HW1 1520   7.489   4.463   6.975  1.1645 -0.7750  1.0706
  129SOL    HW2 1521   7.482   4.315   6.947 -2.3431 -0.2570 -1.4662
  130SOL     OW 1522   2.701   7.091   8.611  0.2847 -0.6752 -0.5112
  130SOL    HW1 1523   2.759   7.139   8.670 -2.9038  1.9774  0.7354
  130SOL    HW2 1524   2.755   7.018   8.579  3.5723  0.3587  2.1091
  131SOL     OW 1525   0.902   6.886   2.804  0.5020 -0.3797  0.0040
  131SOL    HW1 1526   0.971   6.952   2.812 -0.4149  0.7431 -0.9347
  131SOL    HW2 1527   0.902   6.862   2.712  0.2522 -1.0575  0.1737
  132SOL     OW 1528   9.078   6.969   8.513  0.2570 -0.1420  0.4463
  132SOL    HW1 1529   8.989   6.974   8.548  0.8485 -1.4418  2.2807
  132SOL    HW2 1530   9.097   6.875   8.511  0.7036 -0.0798 -2.3943
  133SOL     OW 1531   6.957   7.909   1.865 -0.3767 -0.0938 -0.4952
  133SOL    HW1 1532   6.864   7.886   1.855 -0.2725 -0.1747 -1.3929
  133SOL    HW2 1533   6.964   7.942   1.954 -0.7091 -2.7884  0.6494
  134SOL     OW 1534   2.351   5.859   2.520  0.4170  0.1595 -0.2680
  134SOL    HW1 1535   2.386   5.946   2.502  1.6490 -0.5283 -1.3453
  134SOL    HW2 1536   2.428   5.803   2.531 -0.3428 -0.9043 -0.1420
  135SOL     OW 1537   2.025   3.587   4.158 -0.4091 -0.2322 -0.3307
  135SOL    HW1 1538   2.107   3.604   4.204  0.4865 -1.4423 -1.3918
  135SOL    HW2 1539   1.987   3.511   4.203 -0.4783 -0.2372 -0.3964
  136SOL     OW 1540   8.644   0.721   1.860 -0.2528  0.1429  0.4113
  136SOL    HW1 1541   8.549   0.704   1.863  0.0054 -1.4298  0.6331
  136SOL    HW2 1542   8.661   0.773   1.938 -0.8994  0.2411  0.4990
  137SOL     OW 1543   1.463   8.483   3.380 -0.1118  0.4731 -0.1893
  137SOL    HW1 1544   1.392   8.522   3.431  0.2799  1.3607 -0.3115
  137SOL    HW2 1545   1.485   8.549   3.314  0.7779  0.1787 -0.2056
  138SOL     OW 1546   4.839   0.663   7.117 -0.1064 -0.2780  0.2804
  138SOL    HW1 1547   4.838   0.749   7.160 -0.5318 -0.0398 -0.1884
  138SOL    HW2 1548   4.931   0.645   7.100 -0.1561  1.7465 -2.8501
  139SOL     OW 1549   5.549   6.655   6.616  0.3620 -0.6703 -0.5848
  139SOL    HW1 1550   5.523   6.589   6.551  0.6257 -0.3850 -0.9866
  139SOL    HW2 1551   5.468   6.701   6.638  0.0676 -1.5068  0.1395
  140SOL     OW 1552   2.631   1.127   8.340  0.0178 -0.1097 -0.3156
  140SOL    HW1 1553   2.539   1.105   8.354 -0.5855  1.3961 -1.5696
  140SOL    HW2 1554   2.662   1.062   8.277 -0.3250 -0.3658 -0.2206
  141SOL     OW 1555   3.843   1.160   9.078 -0.2115  0.2795 -0.1790
  141SOL    HW1 1556   3.914   1.102   9.107  0.0755  0.4185 -0.5911
  141SOL    HW2 1557   3.810   1.200   9.158  1.5135  1.7464 -0.1408
  142SOL     OW 1558   8.808   6.525   7.583 -0.2442  0.7134 -0.2737
  142SOL    HW1 1559   8.851   6.610   7.591  2.9178 -0.8574  1.1398
  142SOL    HW2 1560   8.809   6.489   7.672  0.7581 -1.7679 -1.2043
  143SOL     OW 1561   6.681   1.848   0.468 -0.0543  0.2643 -0.0305
  143SOL    HW1 1562   6.701   1.931   0.424 -1.4529  0.5700 -0.1579
  143SOL    HW2 1563   6.751   1.836   0.531  1.1898  0.5920 -1.3024
  144SOL     OW 1564   2.626   5.488   7.973 -0.4006 -0.1584  0.1531
  144SOL    HW1 1565   2.592   5.568   8.012 -1.7177 -0.4230 -0.4144
  144SOL    HW2 1566   2.613   5.421   8.040 -0.7169 -0.2058  0.0412
  145SOL     OW 1567   5.095   7.209   5.277 -0.5497 -0.2251  0.2288
  145SOL    HW1 1568   5.131   7.149   5.342  0.1827  0.6817  0.6884
  145SOL    HW2 1569   5.129   7.176   5.194 -1.3251 -1.2734  0.3079
  146SOL     OW 1570   1.583   1.684   2.374  0.6879  0.4940 -0.0814
  146SOL    HW1 1571   1.615   1.678   2.284 -3.2299  1.0318 -1.7096
  146SOL    HW2 1572   1.494   1.649   2.370 -0.0723  1.6262  3.3642
  147SOL     OW 1573   7.106   7.508   8.848 -0.2590 -0.1053  0.4518
  147SOL    HW1 1574   7.014   7.494   8.869  0.0823 -0.2894  1.9379
  147SOL    HW2 1575   7.143   7.545   8.928  0.8837  0.3167 -0.2510
  148SOL     OW 1576   9.058   6.898   2.992  0.0419  0.3734  0.1349
  148SOL    HW1 1577   8.974   6.934   3.019 -0.4863  0.9677 -2.0637
  148SOL    HW2 1578   9.056   6.901   2.896  2.6436  0.5930 -0.0007
  149SOL     OW 1579   2.248   4.568   8.138  0.0663  0.1654 -0.1219
  149SOL    HW1 1580   2.184   4.625   8.182 -0.7885 -0.7043 -0.2116
  149SOL    HW2 1581   2.292   4.626   8.076 -0.9918  0.6740 -0.4316
  150SOL     OW 1582   3.223   1.739   3.011  0.3947 -0.7807  0.1234
  150SOL    HW1 1583   3.138   1.705   2.983 -1.2687  1.6100  1.8214
  150SOL    HW2 1584   3.254   1.791   2.937  0.2520 -1.4221 -0.3912
  151SOL     OW 1585   4.410   7.076   1.877  0.1096  0.3087 -0.4759
  151SOL    HW1 1586   4.459   7.061   1.796  1.4561  0.2567  0.3046
  151SOL    HW2 1587   4.438   7.006   1.935  0.1862  1.0950  0.4650
  152SOL     OW 1588   8.518   1.599   5.428  0.3579  0.3590  0.6193
  152SOL    HW1 1589   8.565   1.534   5.480  2.7960  1.5057 -0.0077
  152SOL    HW2 1590   8.537   1.576   5.338 -0.7155  0.6105  0.3051
  153SOL     OW 1591   4.243   8.824   0.128 -0.0930 -0.6922  0.9973
  153SOL    HW1 1592   4.248   8.757   0.196 -1.1260 -0.9439  0.8360
  153SOL    HW2 1593   4.228   8.775   0.047  0.7793 -0.3716  0.6248
  154SOL     OW 1594   8.625   7.116   8.131 -0.1360 -0.1507 -0.2191
  154SOL    HW1 1595   8.595   7.097   8.043 -0.5380  0.4764 -0.2280
  154SOL    HW2 1596   8.548   7.153   8.175  0.3429  0.5320  0.0677
  155SOL     OW 1597   0.240   2.675   4.991  0.2215 -0.4495  0.1789
  155SOL    HW1 1598   0.220   2.591   4.950 -0.4051 -0.2704  0.1171
  155SOL    HW2 1599   0.331   2.693   4.964 -0.4118  0.0413 -1.8150
  156SOL     OW 1600   1.929   6.531   2.662 -0.8356  0.0254  0.3711
  156SOL    HW1 1601   1.842   6.497   2.682 -1.4601  0.0798 -1.9460
  156SOL    HW2 1602   1.919   6.573   2.576  2.0962 -2.6232 -1.4831
  157SOL     OW 1603   7.695   2.227   3.230  0.4992 -0.6267 -0.0370
  157SOL    HW1 1604   7.764   2.198   3.171  1.5834  0.8691  0.4284
  157SOL    HW2 1605   7.621   2.247   3.174  0.6853 -1.5469 -0.6236
  158SOL     OW 1606   4.521   8.368   8.985 -0.3747  0.3904 -0.5726
  158SOL    HW1 1607   4.484   8.352   8.898  1.5958 -2.0676 -1.0626
  158SOL    HW2 1608   4.612   8.393   8.968  0.7795 -2.5049  0.7391
  159SOL     OW 1609   5.609   5.481   5.054  0.1904 -0.2558 -0.1694
  159SOL    HW1 1610   5.540   5.538   5.088  0.0753 -0.9421  0.8017
  159SOL    HW2 1611   5.611   5.407   5.116  0.9777 -0.8278 -0.8611
  160SOL     OW 1612   2.925   1.697   7.602 -0.4901 -0.0409 -0.2953
  160SOL    HW1 1613   2.951   1.644   7.527 -0.8186 -0.4194 -0.1417
  160SOL    HW2 1614   2.876   1.637   7.658 -1.5632  0.6212 -0.5047
  161SOL     OW 1615   6.296   6.027   8.244 -0.3786  0.1969  0.1721
  161SOL    HW1 1616   6.250   6.053   8.164  0.3177 -0.2987 -0.3972
  161SOL    HW2 1617   6.323   6.110   8.284  0.9865  0.4183 -1.1264
  162SOL     OW 1618   8.247   2.703   8.775  0.2335  0.2812  0.0499
  162SOL    HW1 1619   8.154   2.686   8.762  0.2997 -0.0816  0.0601
  162SOL    HW2 1620   8.289   2.618   8.769  0.5083  0.3766  0.5398
  163SOL     OW 1621   1.575   7.106   7.610  0.2601 -0.0509  0.4057
  163SOL    HW1 1622   1.653   7.160   7.620 -0.8005  1.7413 -0.4896
  163SOL    HW2 1623   1.555   7.075   7.698  1.1631  0.6514  0.8690
  164SOL     OW 1624   6.893   3.820   6.590  0.1237  0.3256 -0.2202
  164SOL    HW1 1625   6.971   3.769   6.609  0.1267  0.3517 -0.1622
  164SOL    HW2 1626   6.906   3.902   6.638  0.2327  0.4798 -0.5129
  165SOL     OW 1627   3.666   7.012   8.818  0.2577 -0.0698  0.3423
  165SOL    HW1 1628   3.717   7.069   8.874  1.4506  0.3076 -1.0729
  165SOL    HW2 1629   3.731   6.958   8.773 -0.7262 -1.0672  0.0679
  166SOL     OW 1630   1.423   3.770   0.399 -0.0138 -0.1244 -0.2440
  166SOL    HW1 1631   1.403   3.746   0.309  0.9285 -0.3657 -0.4012
  166SOL    HW2 1632   1.393   3.860   0.407  0.4648  0.1130 -0.9963
  167SOL     OW 1633   1.018   4.995   6.899 -0.7768 -0.7805 -0.2726
  167SOL    HW1 1634   0.945   4.944   6.934 -0.9088 -0.9328 -0.7732
  167SOL    HW2 1635   1.056   4.940   6.831  2.7389 -2.8837  2.9235
  168SOL     OW 1636   1.524   7.474   2.538  0.1849 -0.0700 -0.1808
  168SOL    HW1 1637   1.477   7.525   2.472 -1.4694 -0.3736  0.7040
  168SOL    HW2 1638   1.546   7.537   2.606  0.8033  0.0097 -0.4478
  169SOL     OW 1639   3.723   2.709   6.662  0.0934  0.2149  0.4655
  169SOL    HW1 1640   3.754   2.725   6.751 -0.0593  0.7084  0.4320
  169SOL    HW2 1641   3.800   2.726   6.607  0.3729 -0.7320  0.5453
  170SOL     OW 1642   9.116   3.394   8.866 -0.2465  0.7049 -0.9183
  170SOL    HW1 1643   9.183   3.417   8.929  0.5039  1.2786 -1.8929
  170SOL    HW2 1644   9.133   3.302   8.844 -2.4771 -0.6108  2.0327
  171SOL     OW 1645   6.115   5.459   8.455  0.0330 -0.1964  0.2083
  171SOL    HW1 1646   6.048   5.453   8.388  1.3761 -1.8117 -1.0789
  171SOL    HW2 1647   6.125   5.369   8.487  0.1285  0.3725  1.8771
  172SOL     OW 1648   3.139   6.828   3.225  0.5081 -0.2432 -0.4641
  172SOL    HW1 1649   3.076   6.818   3.297  0.1731  1.2883 -0.5212
  172SOL    HW2 1650   3.220   6.791   3.259  0.1941 -0.0785  0.4868
  173SOL     OW 1651   4.934   5.005   8.741  0.5424 -0.2444 -0.1442
  173SOL    HW1 1652   4.932   4.924   8.792  4.6656 -0.4275  0.0897
  173SOL    HW2 1653   4.943   4.977   8.650 -0.4223  0.0130 -0.3279
  174SOL     OW 1654   1.185   2.032   7.205 -0.6623  0.6000 -0.0030
  174SOL    HW1 1655   1.173   2.036   7.300 -2.7604  0.0170 -0.2104
  174SOL    HW2 1656   1.185   2.123   7.177 -0.3138  0.7647  0.5051
  175SOL     OW 1657   3.607   1.183   7.337 -0.5928  0.1658  0.8053
  175SOL    HW1 1658   3.614   1.209   7.429  0.7187 -0.8404  1.0225
  175SOL    HW2 1659   3.662   1.246   7.291  0.8035 -0.8108  1.0600
  176SOL     OW 1660   2.808   1.526   4.757  0.4884  0.3916 -0.1505
  176SOL    HW1 1661   2.873   1.457   4.773  0.0773  0.2769  1.1172
  176SOL    HW2 1662   2.845   1.604   4.797 -0.1078  0.3464  0.5004
  177SOL     OW 1663   2.684   6.069   2.696 -0.1153 -0.0115 -0.3893
  177SOL    HW1 1664   2.607   6.045   2.747 -0.1180  0.0473 -0.3658
  177SOL    HW2 1665   2.658   6.150   2.651  1.2772  2.4160  2.7650
  178SOL     OW 1666   6.061   3.818   6.681 -0.1756 -0.3429 -0.3104
  178SOL    HW1 1667   5.991   3.880   6.701  0.1603  0.0514 -0.3479
  178SOL    HW2 1668   6.035   3.737   6.725 -1.1800 -0.5230 -1.1786
  179SOL     OW 1669   1.686   3.657   4.261 -0.2902  0.2449 -0.3857
  179SOL    HW1 1670   1.728   3.713   4.196  0.9745 -1.9841 -1.5990
  179SOL    HW2 1671   1.686   3.570   4.222 -1.4315 -0.8007  1.7481
  180SOL     OW 1672   7.851   7.475   3.149  0.4533 -0.2676 -0.2194
  180SOL    HW1 1673   7.924   7.532   3.172  0.7226 -0.1348 -1.3275
  180SOL    HW2 1674   7.815   7.513   3.069 -0.8277 -0.3462  0.3060
  181SOL     OW 1675   1.226   7.236   8.905 -0.2706 -0.2758 -0.6853
  181SOL    HW1 1676   1.177   7.291   8.844 -0.5360 -1.3979 -1.5087
  181SOL    HW2 1677   1.249   7.158   8.855  3.3592  0.6216 -0.7123
  182SOL     OW 1678   0.582   6.804   6.742  0.0592 -0.1676 -0.0548
  182SOL    HW1 1679   0.655   6.836   6.796  0.7419 -1.0806 -0.3997
  182SOL    HW2 1680   0.510   6.863   6.762 -0.0860 -1.1049  2.7329
  183SOL     OW 1681   3.446   9.069   8.618  0.2501 -0.3384  0.0620
  183SOL    HW1 1682   3.388   9.071   8.542  1.1323  1.2717 -0.6100
  183SOL    HW2 1683   3.527   9.028   8.587  1.2369  1.8178 -0.4026
  184SOL     OW 1684   3.549   7.438   5.329 -0.0108 -0.1234  0.3712
  184SOL    HW1 1685   3.581   7.488   5.404  2.4136 -1.0210  0.0474
  184SOL    HW2 1686   3.590   7.352   5.338 -0.1202 -0.4477 -1.6514
  185SOL     OW 1687   8.384   0.332   7.536  0.7550 -0.1642 -0.3395
  185SOL    HW1 1688   8.316   0.396   7.559  2.3301  0.9544  1.4818
  185SOL    HW2 1689   8.384   0.332   7.440 -1.3265  0.2959 -0.3872
  186SOL     OW 1690   2.880   3.036   3.893 -0.4846 -0.3651 -0.3287
  186SOL    HW1 1691   2.792   3.019   3.860 -0.8254  1.4818 -0.5118
  186SOL    HW2 1692   2.866   3.082   3.976  0.3340 -1.2688  0.3277
  187SOL     OW 1693   8.517   5.153   2.593 -0.4739  0.2355 -0.4241
  187SOL    HW1 1694   8.602   5.169   2.633 -0.4586  0.1037 -0.4029
  187SOL    HW2 1695   8.532   5.080   2.533 -0.1648  1.3777 -1.7656
  188SOL     OW 1696   5.288   5.458   2.665 -0.1675  0.0020 -0.0083
  188SOL    HW1 1697   5.353   5.422   2.726 -3.5441 -2.8995  2.2937
  188SOL    HW2 1698   5.297   5.405   2.586  0.0638 -0.5845  0.4064
  189SOL     OW 1699   5.350   6.023   3.489 -0.9709  0.4573 -0.1474
  189SOL    HW1 1700   5.432   6.008   3.535  0.0847  0.0400 -2.0876
  189SOL    HW2 1701   5.348   6.118   3.473 -0.0246  0.2631 -1.5509
  190SOL     OW 1702   9.091   1.339   5.254  0.3346 -0.0844  1.1131
  190SOL    HW1 1703   9.123   1.249   5.264  0.0531 -0.2570  0.5172
  190SOL    HW2 1704   9.049   1.358   5.337  0.5583 -0.4385  1.3131
  191SOL     OW 1705   1.436   6.902   1.324 -0.2034  0.0016  0.2314
  191SOL    HW1 1706   1.369   6.926   1.260  0.1564 -0.3347 -0.2799
  191SOL    HW2 1707   1.502   6.855   1.273  0.0065 -0.4210  0.8804
  192SOL     OW 1708   5.028   6.375   6.252  0.0826 -1.0219 -0.2082
  192SOL    HW1 1709   5.058   6.438   6.188  2.3889 -0.0873  1.6321
  192SOL    HW2 1710   4.937   6.398   6.268  0.6084  1.2952 -0.2585
  193SOL     OW 1711   5.296   7.505   1.048  0.3879  0.1427  0.0218
  193SOL    HW1 1712   5.339   7.440   0.993 -0.0819 -0.0037 -0.1754
  193SOL    HW2 1713   5.276   7.578   0.989  1.2983  0.6516  0.3313
  194SOL     OW 1714   2.021   5.462   5.730 -0.2862  0.0210 -0.4619
  194SOL    HW1 1715   2.000   5.493   5.818 -1.2369 -0.4924 -0.4923
  194SOL    HW2 1716   2.113   5.485   5.717 -0.2929  0.5932  0.4515
  195SOL     OW 1717   5.063   7.732   7.480 -0.0232  0.4137  0.5051
  195SOL    HW1 1718   5.072   7.686   7.564  1.2429  1.1930  0.8185
  195SOL    HW2 1719   5.153   7.742   7.449 -0.2475  2.7367  0.4803
  196SOL     OW 1720   9.074   5.532   1.398  0.2977 -0.6431  0.3221
  196SOL    HW1 1721   9.158   5.504   1.433 -0.0970 -1.6168  0.5051
  196SOL    HW2 1722   9.030   5.451   1.371  0.4590  0.0020 -2.1635
  197SOL     OW 1723   7.551   3.918   6.907 -0.1293  0.1767  0.4369
  197SOL    HW1 1724   7.511   3.835   6.930  0.9624 -0.4367  0.1714
  197SOL    HW2 1725   7.625   3.895   6.851  0.8518  1.2392  1.2337
  198SOL     OW 1726   0.021   8.915   6.794  0.5265  0.5990 -0.3212
  198SOL    HW1 1727  -0.030   8.996   6.787  1.4117  1.0832 -1.5283
  198SOL    HW2 1728   0.021   8.879   6.705 -1.0975 -1.5635  0.4630
  199SOL     OW 1729   7.643   2.900   2.351 -0.5377  0.3793 -0.1052
  199SOL    HW1 1730   7.570   2.839   2.362 -1.4621  1.3617 -0.6428
  199SOL    HW2 1731   7.721   2.844   2.355 -1.3771 -0.9752 -1.5874
  200SOL     OW 1732   2.943   2.278   4.803 -0.1888  0.4244  0.2869
  200SOL    HW1 1733   2.898   2.290   4.886 -0.3050 -1.3152  0.5147
  200SOL    HW2 1734   2.924   2.358   4.754 -1.8613  0.6043  1.1446
  201SOL     OW 1735   1.368   7.085   7.056 -1.0990  0.3376 -0.5412
  201SOL    HW1 1736   1.374   7.067   6.962  0.5703  0.1829 -0.4284
  201SOL    HW2 1737   1.356   7.180   7.061 -1.6152  0.2980 -0.9140
  202SOL     OW 1738   4.224   4.402   5.177  0.5102  0.1891 -0.1289
  202SOL    HW1 1739   4.173   4.369   5.104 -0.4615  2.2362 -0.4641
  202SOL    HW2 1740   4.310   4.423   5.140  0.5565 -0.3168 -0.3022
  203SOL     OW 1741   0.798   6.619   4.850 -0.3300  0.6597  0.6331
  203SOL    HW1 1742   0.832   6.708   4.861 -1.6977  1.1170  1.4029
  203SOL    HW2 1743   0.834   6.570   4.923  0.6593  0.4887  0.0466
  204SOL     OW 1744   0.505   4.393   8.579 -0.6504  0.5025  0.1085
  204SOL    HW1 1745   0.501   4.467   8.518 -0.2096  0.3510 -0.1097
  204SOL    HW2 1746   0.598   4.380   8.594 -0.7456  0.3060  0.5365
  205SOL     OW 1747   8.388   3.354   4.869  0.2182  0.1644 -0.1602
  205SOL    HW1 1748   8.342   3.339   4.952  1.1411  0.6465  0.4605
  205SOL    HW2 1749   8.319   3.360   4.804 -0.4583 -1.8951  0.2955
  206SOL     OW 1750   3.172   0.251   6.867  0.1300 -0.9161  0.5151
  206SOL    HW1 1751   3.188   0.158   6.883 -0.0282 -1.1162 -0.4239
  206SOL    HW2 1752   3.145   0.255   6.775  2.8639  0.3867 -0.3141
  207SOL     OW 1753   5.304   1.340   2.727 -0.1550 -0.0110 -0.3455
  207SOL    HW1 1754   5.209   1.348   2.739  0.1775  1.6375  1.9192
  207SOL    HW2 1755   5.330   1.426   2.693  0.3622 -1.0736 -2.8117
  208SOL     OW 1756   5.748   3.388   0.745 -0.4075  0.3643 -0.6865
  208SOL    HW1 1757   5.775   3.430   0.826 -0.8670 -0.0868 -0.2929
  208SOL    HW2 1758   5.697   3.455   0.699 -1.0756  0.2745 -0.0940
  209SOL     OW 1759   8.537   7.094   1.480 -0.4235 -0.3253 -0.5261
  209SOL    HW1 1760   8.605   7.067   1.419  0.3870  1.5482 -0.5378
  209SOL    HW2 1761   8.467   7.129   1.424 -1.1498 -1.6871 -0.4896
  210SOL     OW 1762   1.544   0.947   6.589  0.0174  0.0196  0.0305
  210SOL    HW1 1763   1.524   1.024   6.537  0.3783 -0.2603 -0.5412
  210SOL    HW2 1764   1.497   0.876   6.546 -0.6760 -0.0072  0.8160
  211SOL     OW 1765   2.992   8.984   4.532 -0.4208  0.2037  0.1843
  211SOL    HW1 1766   2.961   8.906   4.578  0.0726 -0.1646 -0.0844
  211SOL    HW2 1767   2.921   9.008   4.473 -1.0055  0.6043  1.0425
  212SOL     OW 1768   7.028   8.189   8.357 -0.3166 -0.5764 -0.2079
  212SOL    HW1 1769   7.064   8.118   8.409  1.8148 -0.3280 -1.2507
  212SOL    HW2 1770   7.029   8.156   8.267 -1.4225 -0.0335 -0.4406
  213SOL     OW 1771   0.939   0.638   1.473  0.1213 -0.3541  0.0172
  213SOL    HW1 1772   0.916   0.546   1.485 -2.8533  0.0144 -1.7935
  213SOL    HW2 1773   0.926   0.677   1.559 -0.0158 -1.3650  0.4731
  214SOL     OW 1774   4.741   6.872   3.844  0.6332 -0.2164  0.0434
  214SOL    HW1 1775   4.708   6.889   3.933  0.4500 -0.6824  0.0677
  214SOL    HW2 1776   4.829   6.908   3.844  1.1634 -1.4348  0.8572
  215SOL     OW 1777   2.559   5.474   4.943  0.1977  0.3522 -0.3805
  215SOL    HW1 1778   2.632   5.443   4.889 -0.1472 -1.6438  0.2192
  215SOL    HW2 1779   2.485   5.420   4.916 -0.2630  0.1331  1.2211
  216SOL     OW 1780   8.366   2.347   0.320 -0.0433  0.1713  0.1643
  216SOL    HW1 1781   8.333   2.258   0.335 -0.8695  0.4949  0.3093
  216SOL    HW2 1782   8.439   2.335   0.259  0.2471 -0.6641  0.6549
  217SOL     OW 1783   3.385   5.869   9.062  0.3086  0.4375  0.6901
  217SOL    HW1 1784   3.370   5.961   9.040 -0.3033  0.1404 -0.1907
  217SOL    HW2 1785   3.381   5.866   9.157 -0.4580  1.1954  0.6949
  218SOL     OW 1786   2.849   5.230   4.859  0.4581  0.3845  0.4788
  218SOL    HW1 1787   2.914   5.191   4.800 -1.5755 -1.7410 -0.5122
  218SOL    HW2 1788   2.837   5.319   4.825 -0.1909 -0.5562 -2.0216
  219SOL     OW 1789   6.344   4.759   6.233 -0.4261 -0.7447  0.3693
  219SOL    HW1 1790   6.318   4.724   6.318 -0.3901  1.1788  1.2240
  219SOL    HW2 1791   6.269   4.742   6.176 -0.4504 -2.0573  0.7687
  220SOL     OW 1792   7.352   6.634   7.808 -0.1616  0.2850  0.0599
  220SOL    HW1 1793   7.417   6.622   7.739  0.0983  2.6406 -0.1913
  220SOL    HW2 1794   7.300   6.554   7.806  2.0534 -1.2355 -0.4250
  221SOL     OW 1795   5.579   2.261   6.360 -0.1538 -0.5058 -0.2899
  221SOL    HW1 1796   5.591   2.190   6.423 -3.0023 -1.2893 -0.4875
  221SOL    HW2 1797   5.634   2.237   6.286  1.6475 -0.6365  1.0341
  222SOL     OW 1798   2.910   7.465   2.286  0.4103 -0.0542  0.2313
  222SOL    HW1 1799   2.962   7.451   2.366 -1.3066  3.2114  2.1150
  222SOL    HW2 1800   2.961   7.527   2.235  0.3493 -0.2115 -0.0211
  223SOL     OW 1801   7.878   7.222   8.152 -0.1841  0.5743  0.4745
  223SOL    HW1 1802   7.837   7.150   8.199 -1.2334  1.3059  0.7220
  223SOL    HW2 1803   7.927   7.181   8.081  1.1548 -0.5368  1.9708
  224SOL     OW 1804   6.268   4.071   3.418  0.0816 -0.2630  0.1949
  224SOL    HW1 1805   6.319   4.063   3.499  0.0008 -1.8782  0.1101
  224SOL    HW2 1806   6.240   4.163   3.417 -1.1468 -0.4952  2.7728
  225SOL     OW 1807   5.934   7.217   3.116  0.2234 -0.1257 -0.7853
  225SOL    HW1 1808   5.890   7.286   3.065  0.9705  0.0354 -1.2245
  225SOL    HW2 1809   5.956   7.150   3.052 -2.7473 -2.0195 -0.0054
  226SOL     OW 1810   3.309   3.870   6.912 -0.0192 -0.9673 -0.4179
  226SOL    HW1 1811   3.381   3.831   6.964  0.3749  0.6756  0.3425
  226SOL    HW2 1812   3.349   3.890   6.827  0.0890 -1.1824 -0.4181
  227SOL     OW 1813   3.230   1.811   7.567  0.2370  0.3488  0.0509
  227SOL    HW1 1814   3.274   1.726   7.579  1.7106  1.3246  2.4474
  227SOL    HW2 1815   3.139   1.789   7.551  0.7252 -1.7155 -0.1932
  228SOL     OW 1816   4.146   1.556   7.552  0.2216 -0.0975 -0.5279
  228SOL    HW1 1817   4.117   1.589   7.637  3.2162 -0.7534  0.8936
  228SOL    HW2 1818   4.173   1.634   7.504 -0.1857  0.1705 -0.3268
  229SOL     OW 1819   2.114   4.916   5.439  0.3766 -0.1890 -0.7857
  229SOL    HW1 1820   2.158   5.000   5.423  1.0215 -0.6157 -1.3075
  229SOL    HW2 1821   2.034   4.921   5.386  1.0640 -0.4112 -1.8926
  230SOL     OW 1822   1.712   7.886   5.072  0.0879 -0.3229 -0.3181
  230SOL    HW1 1823   1.692   7.844   5.156 -0.4728 -0.8023 -0.6909
  230SOL    HW2 1824   1.632   7.933   5.049  0.6891  0.9528  0.0744
  231SOL     OW 1825   5.171   1.289   0.157 -0.3767 -0.0329  0.3191
  231SOL    HW1 1826   5.237   1.356   0.173  0.9726 -0.6285 -2.2702
  231SOL    HW2 1827   5.108   1.331   0.099  0.0109 -0.7157 -0.6107
  232SOL     OW 1828   0.212   2.469   2.487 -0.4046 -0.0931  0.0972
  232SOL    HW1 1829   0.143   2.472   2.421 -0.5490 -1.2245  0.1824
  232SOL    HW2 1830   0.186   2.398   2.546  0.9635 -0.7173 -0.0216
  233SOL     OW 1831   7.261   3.081   3.378 -0.3425 -0.0407 -0.3619
  233SOL    HW1 1832   7.185   3.089   3.437  1.5116 -0.8466  2.3260
  233SOL    HW2 1833   7.263   2.988   3.355  0.1849 -0.1367  0.0768
  234SOL     OW 1834   4.408   4.470   7.939 -0.2979 -0.8858  0.4755
  234SOL    HW1 1835   4.502   4.465   7.922 -0.2787 -1.0294  0.6273
  234SOL    HW2 1836   4.400   4.469   8.034 -0.5007 -1.7558  0.4616
  235SOL     OW 1837   7.986   0.710   8.608 -0.2516  0.3439  0.1647
  235SOL    HW1 1838   8.009   0.782   8.550  0.9647 -1.3752 -1.6150
  235SOL    HW2 1839   8.066   0.695   8.660 -1.1131  1.4372  1.8992
  236SOL     OW 1840   7.558   2.306   6.690  0.2981  0.0724 -0.1283
  236SOL    HW1 1841   7.543   2.249   6.765  0.8031 -1.2491 -0.9870
  236SOL    HW2 1842   7.531   2.393   6.720 -1.5432 -0.7811  0.8690
  237SOL     OW 1843   0.349   8.035   7.287  0.2968 -0.1669  0.1386
  237SOL    HW1 1844   0.398   8.002   7.212 -0.0391  0.3338 -0.3166
  237SOL    HW2 1845   0.400   8.110   7.318  0.2831 -0.1892  0.2134
  238SOL     OW 1846   5.010   0.040   3.287 -0.4266  0.1858 -0.5166
  238SOL    HW1 1847   4.993   0.003   3.201  0.9024  1.1547 -1.2338
  238SOL    HW2 1848   4.984   0.132   3.278 -0.1865  0.3152  0.0887
  239SOL     OW 1849   7.789   3.568   3.574  0.0115  0.1944  0.0807
  239SOL    HW1 1850   7.792   3.663   3.563 -0.1990  0.2004  0.0704
  239SOL    HW2 1851   7.879   3.543   3.593  0.5489  0.1185 -2.2450
  240SOL     OW 1852   8.018   0.058   3.911  0.1701  0.2741 -0.2486
  240SOL    HW1 1853   8.023   0.128   3.977 -3.7017  2.6079 -2.0993
  240SOL    HW2 1854   8.068   0.092   3.837  1.6531 -0.8373  0.1948
  241SOL     OW 1855   0.974   5.752   8.369 -0.0320 -0.2309  0.7996
  241SOL    HW1 1856   0.936   5.715   8.449 -0.7732  0.8169  0.9586
  241SOL    HW2 1857   0.924   5.833   8.354  1.0591  0.3353  0.0786
  242SOL     OW 1858   5.146   2.870   2.389 -0.4806  0.2165 -0.9411
  242SOL    HW1 1859   5.143   2.861   2.293  0.1050  1.8815 -1.1535
  242SOL    HW2 1860   5.222   2.819   2.415 -0.8096 -0.4844 -1.3304
  243SOL     OW 1861   1.981   1.021   6.638  0.1041  0.0885 -0.0915
  243SOL    HW1 1862   2.068   1.022   6.678 -0.1356  2.4902  0.4813
  243SOL    HW2 1863   1.973   0.933   6.601  1.7840 -1.0237  1.9785
  244SOL     OW 1864   8.369   9.054   2.842  0.1003 -0.2070 -0.8356
  244SOL    HW1 1865   8.433   9.003   2.793 -0.3263 -0.5625 -1.0377
  244SOL    HW2 1866   8.346   9.126   2.784  0.4882  0.0483 -0.6696
  245SOL     OW 1867   3.316   2.715   0.875 -0.1286  0.4543  0.1908
  245SOL    HW1 1868   3.357   2.747   0.955  0.7998 -0.1403 -0.0327
  245SOL    HW2 1869   3.308   2.621   0.888  0.1017  0.3393 -0.4440
  246SOL     OW 1870   5.610   8.561   2.197  0.4999  0.1113 -0.1939
  246SOL    HW1 1871   5.593   8.637   2.253 -1.8272  1.1710 -2.1607
  246SOL    HW2 1872   5.629   8.599   2.111  0.8936 -1.5188 -0.8619
  247SOL     OW 1873   0.563   5.151   2.830 -0.2175  0.1905  0.6641
  247SOL    HW1 1874   0.483   5.111   2.865 -0.1475 -0.0036  0.6014
  247SOL    HW2 1875   0.607   5.186   2.907  0.2797 -0.8421  0.8696
  248SOL     OW 1876   1.587   6.188   0.112  0.0822 -0.3665 -0.1509
  248SOL    HW1 1877   1.645   6.213   0.040  0.0185 -0.3502 -0.1974
  248SOL    HW2 1878   1.599   6.257   0.178  1.4658 -1.3036  0.6227
  249SOL     OW 1879   4.919   2.780   6.244  0.3565 -0.1352  0.0760
  249SOL    HW1 1880   4.960   2.849   6.296  1.6033 -0.5978 -0.2539
  249SOL    HW2 1881   4.845   2.823   6.201  0.5943  0.7748  0.5537
  250SOL     OW 1882   7.810   3.380   2.729 -0.2972 -0.2122 -0.1368
  250SOL    HW1 1883   7.756   3.381   2.650 -1.1822  2.0843  0.4180
  250SOL    HW2 1884   7.747   3.381   2.801  0.2460  3.9467  0.5559
  251SOL     OW 1885   0.780   0.530   5.190 -0.3161 -0.1006 -0.2760
  251SOL    HW1 1886   0.839   0.587   5.239  0.9032 -0.9350 -0.7184
  251SOL    HW2 1887   0.829   0.508   5.111  0.2908 -3.6252  0.9239
  252SOL     OW 1888   1.326   0.951   8.225  0.3683 -0.0674  0.3533
  252SOL    HW1 1889   1.234   0.977   8.235 -0.1484 -1.2428 -0.9235
  252SOL    HW2 1890   1.350   0.981   8.138  0.1228 -2.5930 -0.6664
  253SOL     OW 1891   1.106   4.977   4.389  0.1930  0.7623 -0.0255
  253SOL    HW1 1892   1.035   5.014   4.440 -0.0203 -0.7052  0.7999
  253SOL    HW2 1893   1.157   4.926   4.452 -0.6633 -1.9720 -1.3689
  254SOL     OW 1894   2.101   4.290   7.902 -0.1770  0.0791 -0.2522
  254SOL    HW1 1895   2.079   4.313   7.992  2.3363 -0.3050  0.5274
  254SOL    HW2 1896   2.085   4.370   7.853 -1.0725  0.4462  0.5885
  255SOL     OW 1897   3.933   4.030   4.800  0.4000  0.3474  0.1171
  255SOL    HW1 1898   3.872   4.066   4.865  1.4936  1.5018  0.5360
  255SOL    HW2 1899   3.960   3.945   4.836  0.6507  0.7809  0.9562
  256SOL     OW 1900   0.415   6.627   1.228  0.7344 -0.4896 -0.0195
  256SOL    HW1 1901   0.365   6.674   1.163 -1.0939 -0.7365  1.1436
  256SOL    HW2 1902   0.380   6.538   1.227  0.4024 -0.4173  1.4913
  257SOL     OW 1903   6.905   2.355   1.142 -0.3869 -0.1182 -0.2599
  257SOL    HW1 1904   6.960   2.399   1.077  0.4140 -1.3776 -0.4622
  257SOL    HW2 1905   6.920   2.404   1.223  0.4794 -0.0020 -0.4822
  258SOL     OW 1906   4.688   6.817   1.100  0.3156 -0.1390 -0.4695
  258SOL    HW1 1907   4.729   6.731   1.102  2.3633  0.7490 -1.6405
  258SOL    HW2 1908   4.665   6.834   1.191  0.9942 -1.4100 -0.0328
  259SOL     OW 1909   8.496   0.130   6.795 -0.1230 -0.7835  0.0942
  259SOL    HW1 1910   8.538   0.141   6.710  0.1150  1.4590  0.4429
  259SOL    HW2 1911   8.439   0.054   6.784  1.1209 -1.5500 -1.5443
  260SOL     OW 1912   7.518   7.044   6.483  0.4879  0.6968  0.2265
  260SOL    HW1 1913   7.571   7.035   6.404  0.6450  0.3145  0.3766
  260SOL    HW2 1914   7.434   7.003   6.460  0.9675 -0.5946  0.6768
  261SOL     OW 1915   8.659   0.850   7.854 -0.5628  0.0849  0.1439
  261SOL    HW1 1916   8.638   0.935   7.815 -0.6933 -0.4520 -0.9756
  261SOL    HW2 1917   8.752   0.838   7.839 -0.9024 -0.8215 -1.4468
  262SOL     OW 1918   7.891   9.101   7.774 -0.0296 -0.2409 -0.6951
  262SOL    HW1 1919   7.914   9.138   7.859  1.6735  0.9335 -1.6032
  262SOL    HW2 1920   7.797   9.119   7.764  0.1242  1.2308  0.1776
  263SOL     OW 1921   2.601   1.663   0.387  0.6211  0.4785  0.0641
  263SOL    HW1 1922   2.644   1.582   0.415  2.2673  1.7729  1.5374
  263SOL    HW2 1923   2.521   1.634   0.343  1.2350 -1.9308  0.3896
  264SOL     OW 1924   0.543   3.826   6.734  0.1992  0.3190  0.4343
  264SOL    HW1 1925   0.468   3.872   6.771 -1.0987 -0.7678 -0.7450
  264SOL    HW2 1926   0.515   3.735   6.727  0.8416  0.2305 -1.9365
  265SOL     OW 1927   0.683   6.091   3.672  0.6657 -0.1525  0.0210
  265SOL    HW1 1928   0.685   6.186   3.677  0.2953  0.2432 -3.8136
  265SOL    HW2 1929   0.773   6.066   3.653  0.6055 -0.4837  0.1558
  266SOL     OW 1930   7.717   0.659   7.152  0.1127 -0.3836 -0.4577
  266SOL    HW1 1931   7.668   0.718   7.095 -1.2123 -0.5686  0.4439
  266SOL    HW2 1932   7.796   0.638   7.102 -0.4724  0.3243 -1.7438
  267SOL     OW 1933   1.080   5.705   3.393 -1.0274  0.0807 -0.3541
  267SOL    HW1 1934   1.144   5.737   3.329 -0.3909  0.0183  0.2397
  267SOL    HW2 1935   1.096   5.611   3.398 -0.1279  0.2765  0.9069
  268SOL     OW 1936   6.009   8.309   4.101  0.4375 -0.0088  0.2270
  268SOL    HW1 1937   5.997   8.319   4.007  3.1259  0.2618 -0.1747
  268SOL    HW2 1938   6.053   8.390   4.128  0.5151 -0.4637  1.5422
  269SOL     OW 1939   5.934   8.217   0.324  0.2650 -0.4779  0.5489
  269SOL    HW1 1940   5.970   8.193   0.238 -1.0531 -2.0517  0.3947
  269SOL    HW2 1941   5.983   8.296   0.349  0.3960  0.2819 -1.8316
  270SOL     OW 1942   7.535   8.641   8.623  0.0568  0.1911 -0.1872
  270SOL    HW1 1943   7.621   8.601   8.627  0.8786  1.8945 -0.0513
  270SOL    HW2 1944   7.501   8.618   8.536  0.4719 -0.7985 -0.0943
  271SOL     OW 1945   1.311   3.608   7.944  0.3285 -0.4017  0.2575
  271SOL    HW1 1946   1.265   3.526   7.927 -1.6116  0.6147  0.2752
  271SOL    HW2 1947   1.266   3.646   8.019 -0.5429  1.8591 -1.2940
  272SOL     OW 1948   2.547   8.078   8.080  1.1843 -0.1979  0.7316
  272SOL    HW1 1949   2.546   8.022   8.003  0.5525 -0.9889  1.3021
  272SOL    HW2 1950   2.457   8.109   8.088  0.7585 -1.7050  2.2659
  273SOL     OW 1951   0.936   2.291   0.717 -0.0724 -0.7851 -0.1169
  273SOL    HW1 1952   0.909   2.323   0.631  0.3859 -0.5220 -0.1650
  273SOL    HW2 1953   0.927   2.367   0.775  0.8455 -0.6095 -0.1943
  274SOL     OW 1954   0.450   6.300   1.711  0.5124 -0.5676 -0.1041
  274SOL    HW1 1955   0.436   6.295   1.806 -0.7934 -1.0780 -0.2955
  274SOL    HW2 1956   0.514   6.370   1.700  2.7655 -2.2890  1.3162
  275SOL     OW 1957   7.247   5.850   7.202  0.0401  0.1445 -0.3732
  275SOL    HW1 1958   7.177   5.854   7.267  1.5978 -1.3445  1.5148
  275SOL    HW2 1959   7.248   5.937   7.163 -2.7546  0.2353 -0.4161
  276SOL     OW 1960   8.197   6.087   5.804  0.0684  0.5519  0.0417
  276SOL    HW1 1961   8.174   6.150   5.736  0.2912  1.7363  1.0384
  276SOL    HW2 1962   8.118   6.034   5.816 -0.2413  0.8676 -0.5375
  277SOL     OW 1963   1.822   6.140   1.079  0.1971 -0.0516  0.2033
  277SOL    HW1 1964   1.732   6.172   1.079 -1.4295 -4.1340 -0.1059
  277SOL    HW2 1965   1.845   6.131   0.987  0.8908  0.6660  0.2837
  278SOL     OW 1966   1.199   4.677   3.128  0.0436 -0.4653 -0.0021
  278SOL    HW1 1967   1.262   4.606   3.133  0.1601 -0.3477  0.2546
  278SOL    HW2 1968   1.206   4.710   3.039  1.5073  0.5986  0.4612
  279SOL     OW 1969   0.221   5.857   3.771  0.4524 -0.1382 -0.2493
  279SOL    HW1 1970   0.286   5.877   3.703  0.1483 -0.1048 -0.5292
  279SOL    HW2 1971   0.240   5.920   3.840 -0.7810  1.4748 -1.3061
  280SOL     OW 1972   2.876   7.836   2.659 -0.2689  0.5548  0.2890
  280SOL    HW1 1973   2.804   7.812   2.717 -1.7870 -0.1474 -1.7628
  280SOL    HW2 1974   2.926   7.755   2.647 -0.5524  0.4440 -0.1627
  281SOL     OW 1975   4.526   7.004   7.879  0.3156 -0.2478  0.5465
  281SOL    HW1 1976   4.614   7.011   7.842  0.3866 -2.0773  0.2674
  281SOL    HW2 1977   4.493   7.093   7.880  2.3656  0.5672  1.1373
  282SOL     OW 1978   3.916   5.732   3.730 -0.5703  0.3888  0.8257
  282SOL    HW1 1979   3.916   5.646   3.687  0.1080 -0.2970  2.1408
  282SOL    HW2 1980   3.838   5.776   3.697 -0.9295 -0.7312  0.1382
  283SOL     OW 1981   8.360   6.207   8.843  0.0945 -0.8714  0.0162
  283SOL    HW1 1982   8.327   6.126   8.882 -1.6511 -0.1264  0.1705
  283SOL    HW2 1983   8.308   6.219   8.764  0.5306 -0.0583 -0.1589
  284SOL     OW 1984   8.490   1.438   7.980  0.0226  0.1014  1.2163
  284SOL    HW1 1985   8.554   1.384   7.934  0.0666  0.0476  1.3380
  284SOL    HW2 1986   8.406   1.395   7.964 -0.4905  1.9821 -1.7197
  285SOL     OW 1987   4.798   1.445   7.166 -0.0923  0.2459 -0.5115
  285SOL    HW1 1988   4.800   1.493   7.249  0.3521 -0.1358 -0.2987
  285SOL    HW2 1989   4.742   1.498   7.109  0.3899  1.0209 -0.2773
  286SOL     OW 1990   1.098   2.944   0.682  0.2004 -0.0968  0.2386
  286SOL    HW1 1991   1.169   2.880   0.671  0.1550 -0.3546  1.3136
  286SOL    HW2 1992   1.056   2.919   0.765 -0.1853  0.9754  0.3820
  287SOL     OW 1993   7.178   1.624   7.874  0.6432  0.6453  0.5262
  287SOL    HW1 1994   7.107   1.686   7.892 -0.4733 -1.1838  3.0806
  287SOL    HW2 1995   7.190   1.577   7.956  0.6593 -3.2654 -1.5015
  288SOL     OW 1996   1.517   5.606   0.398  0.5888  0.1298 -0.4705
  288SOL    HW1 1997   1.462   5.571   0.468 -0.2830  0.8318 -0.7842
  288SOL    HW2 1998   1.511   5.541   0.328 -1.0422  0.8550 -1.0589
  289SOL     OW 1999   5.816   7.939   1.320  0.3295 -0.3522  0.4829
  289SOL    HW1 2000   5.869   7.884   1.262  0.4992 -0.0577  0.3566
  289SOL    HW2 2001   5.746   7.971   1.264 -0.6130 -1.6023  0.9041
  290SOL     OW 2002   3.272   6.423   4.326 -0.0152  0.2375  0.0071
  290SOL    HW1 2003   3.197   6.480   4.311 -0.5615 -0.2721  0.6972
  290SOL    HW2 2004   3.331   6.475   4.381  0.1681  0.6607 -0.5855
  291SOL     OW 2005   1.886   4.294   8.543  0.0152  0.1706  0.3899
  291SOL    HW1 2006   1.927   4.363   8.490 -1.4890 -0.1055 -1.2226
  291SOL    HW2 2007   1.800   4.281   8.503 -1.7972  0.8401  3.7228
  292SOL     OW 2008   2.039   4.099   8.652 -0.4212  0.0474 -0.5809
  292SOL    HW1 2009   2.096   4.074   8.578 -1.1516 -2.2269 -0.4611
  292SOL    HW2 2010   1.988   4.172   8.619  0.7356  0.4441 -1.5955
  293SOL     OW 2011   0.253   7.756   5.819  0.6010 -0.2579 -0.3364
  293SOL    HW1 2012   0.334   7.779   5.773  0.1749 -0.5147 -1.2383
  293SOL    HW2 2013   0.198   7.715   5.752 -0.4590  0.3339  0.1488
  294SOL     OW 2014   2.789   4.482   0.730 -0.4653  0.3020  0.2272
  294SOL    HW1 2015   2.785   4.557   0.790 -0.7320 -0.0206  0.6219
  294SOL    HW2 2016   2.771   4.407   0.786  1.5674 -0.2614  0.1879
  295SOL     OW 2017   5.057   3.959   6.088 -0.0230 -0.1245  0.0580
  295SOL    HW1 2018   5.025   3.898   6.021 -0.3154 -0.2165  0.2833
  295SOL    HW2 2019   5.138   3.918   6.120 -0.8844 -1.0473  1.1229
  296SOL     OW 2020   2.461   5.857   5.145  0.1299 -0.5917 -0.4761
  296SOL    HW1 2021   2.383   5.837   5.093  0.3088 -1.4561 -0.4400
  296SOL    HW2 2022   2.468   5.784   5.206 -1.7878  1.8350  2.9252
  297SOL     OW 2023   2.370   3.114   3.775  0.2432  0.0067  0.0373
  297SOL    HW1 2024   2.291   3.061   3.759  0.8694 -0.9283 -0.0482
  297SOL    HW2 2025   2.387   3.103   3.869 -1.3898  2.6100  0.7299
  298SOL     OW 2026   3.508   3.716   0.659 -0.0721 -0.5331 -0.1224
  298SOL    HW1 2027   3.442   3.782   0.640  0.1614  0.3246  1.7625
  298SOL    HW2 2028   3.464   3.653   0.715  0.3741 -0.5976  0.1644
  299SOL     OW 2029   8.501   5.372   6.228  0.5261  0.5922 -0.1596
  299SOL    HW1 2030   8.537   5.310   6.164 -1.6454 -1.3666  0.3555
  299SOL    HW2 2031   8.432   5.418   6.181  0.5660  0.9071  0.0878
  300SOL     OW 2032   7.432   4.084   6.510  0.1412  0.1414  0.2027
  300SOL    HW1 2033   7.371   4.084   6.436  0.1220 -0.2641  0.2192
  300SOL    HW2 2034   7.500   4.146   6.484 -0.5941  1.0823  0.4531
  301SOL     OW 2035   0.031   2.139   7.496 -0.4279 -0.0450 -0.2066
  301SOL    HW1 2036  -0.023   2.092   7.433  1.4608  0.6934 -2.5059
  301SOL    HW2 2037  -0.010   2.225   7.504 -1.8463 -0.8024  1.2612
  302SOL     OW 2038   2.009   7.855   1.391 -0.1788  0.0218  0.0893
  302SOL    HW1 2039   1.947   7.928   1.392 -0.9993 -0.6616  0.3700
  302SOL    HW2 2040   2.014   7.828   1.300 -0.5744 -0.1540  0.1195
  303SOL     OW 2041   4.608   3.044   1.064  0.1854  0.1647 -0.3699
  303SOL    HW1 2042   4.667   3.115   1.088  0.7488 -0.1397 -0.8404
  303SOL    HW2 2043   4.661   2.965   1.070 -0.0285 -0.0601 -1.2835
  304SOL     OW 2044   4.768   2.592   2.639  0.1218  0.1063  0.8934
  304SOL    HW1 2045   4.709   2.642   2.583  0.1665  1.4681  1.9963
  304SOL    HW2 2046   4.790   2.514   2.588 -2.4949 -0.3915  0.3823
  305SOL     OW 2047   5.558   0.100   4.148 -0.0292 -0.4050 -0.0351
  305SOL    HW1 2048   5.522   0.012   4.139  1.3022 -0.9532 -0.3057
  305SOL    HW2 2049   5.550   0.139   4.061 -0.9464 -0.1147  0.1722
  306SOL     OW 2050   0.836   9.105   4.266 -0.7623 -0.2427 -0.2412
  306SOL    HW1 2051   0.877   9.181   4.224 -1.0707 -0.3518 -0.7415
  306SOL    HW2 2052   0.748   9.102   4.229 -1.7078  0.7667  1.7468
  307SOL     OW 2053   2.115   5.297   7.072 -0.2225  0.3890 -0.0962
  307SOL    HW1 2054   2.032   5.259   7.100  0.2396 -1.9377 -1.6289
  307SOL    HW2 2055   2.096   5.336   6.987  0.0980  0.4486 -0.1418
  308SOL     OW 2056   2.709   0.172   4.239  0.2643 -0.2071  0.3176
  308SOL    HW1 2057   2.666   0.146   4.157  2.1008  0.5563 -0.9619
  308SOL    HW2 2058   2.724   0.089   4.285 -0.4696 -0.6902 -0.2839
  309SOL     OW 2059   8.428   8.198   8.689 -0.3665  0.0695  0.2455
  309SOL    HW1 2060   8.342   8.209   8.729 -1.6625 -1.5222 -1.8796
  309SOL    HW2 2061   8.430   8.106   8.661  0.8226  0.7827 -2.2989
  310SOL     OW 2062   1.107   3.412   5.794 -0.0981  0.1831  0.7274
  310SOL    HW1 2063   1.025   3.446   5.832 -0.4752 -0.1093  0.1949
  310SOL    HW2 2064   1.119   3.327   5.837  1.5227  1.4570  3.0106
  311SOL     OW 2065   6.834   7.218   0.823  0.1302 -0.0019 -0.3277
  311SOL    HW1 2066   6.865   7.135   0.860  0.0065 -0.3904 -1.0923
  311SOL    HW2 2067   6.741   7.221   0.845 -0.0096 -0.3723 -0.8486
  312SOL     OW 2068   1.548   2.203   0.538  0.0457 -0.0345  0.3457
  312SOL    HW1 2069   1.532   2.166   0.625  1.3321 -2.3047 -0.3153
  312SOL    HW2 2070   1.473   2.176   0.485 -0.6646  1.2247  0.6542
  313SOL     OW 2071   6.140   1.014   6.817 -0.0251 -0.1959  0.5017
  313SOL    HW1 2072   6.078   1.001   6.745 -0.7876 -0.8330  1.2567
  313SOL    HW2 2073   6.092   1.067   6.880 -0.3884 -1.9668  1.7799
  314SOL     OW 2074   6.276   5.170   5.881  0.0144  0.1805 -0.2945
  314SOL    HW1 2075   6.270   5.124   5.797 -0.8946 -2.0826  0.9431
  314SOL    HW2 2076   6.337   5.118   5.933 -0.4922  0.7666  0.9258
  315SOL     OW 2077   9.050   7.238   6.110 -0.1584  0.1820 -0.6067
  315SOL    HW1 2078   8.967   7.284   6.117 -0.0726  0.1451  1.0665
  315SOL    HW2 2079   9.039   7.180   6.034 -1.3834  0.7016 -0.8438
  316SOL     OW 2080   5.779   8.287   5.827 -0.0732  0.3950  0.8198
  316SOL    HW1 2081   5.760   8.376   5.858  0.8995  0.0181  2.6590
  316SOL    HW2 2082   5.811   8.299   5.738 -0.1967  1.8736  0.9463
  317SOL     OW 2083   3.136   1.673   0.342  0.1127 -0.0326  0.3544
  317SOL    HW1 2084   3.179   1.758   0.330  0.1719 -0.2413 -1.0456
  317SOL    HW2 2085   3.143   1.630   0.257 -2.5824 -0.2243  0.1457
  318SOL     OW 2086   2.252   5.906   4.392  0.1435 -0.7760  0.1200
  318SOL    HW1 2087   2.222   5.909   4.301 -1.9167  3.6434  0.6971
  318SOL    HW2 2088   2.179   5.869   4.441  0.2802 -0.8073  0.3018
  319SOL     OW 2089   0.712   7.512   8.128  0.2794  0.1695  0.2687
  319SOL    HW1 2090   0.768   7.586   8.107 -0.2089  0.2835 -0.6963
  319SOL    HW2 2091   0.769   7.436   8.123  0.1842  0.1910 -1.5520
  320SOL     OW 2092   3.453   5.111   3.371  0.2012  0.0469 -0.2326
  320SOL    HW1 2093   3.537   5.109   3.326  0.2522  1.5961 -0.2576
  320SOL    HW2 2094   3.441   5.022   3.404  2.1343 -0.0561  0.3078
  321SOL     OW 2095   1.034   2.625   1.114 -0.6734 -0.0105 -0.7349
  321SOL    HW1 2096   1.037   2.626   1.019  1.9407  1.1049 -0.7278
  321SOL    HW2 2097   0.972   2.695   1.137 -0.7400  0.2214 -1.6008
  322SOL     OW 2098   6.343   3.840   5.472  0.1621 -0.4013 -0.0209
  322SOL    HW1 2099   6.382   3.878   5.393  1.8231 -1.9861 -0.0122
  322SOL    HW2 2100   6.362   3.903   5.541  1.4800 -0.4627 -0.3065
  323SOL     OW 2101   4.549   3.723   2.309 -0.3104  0.3372  0.1225
  323SOL    HW1 2102   4.577   3.764   2.227 -1.7373  0.0853 -0.5052
  323SOL    HW2 2103   4.607   3.647   2.318 -0.1849  0.3261 -0.6859
  324SOL     OW 2104   9.000   0.117   0.174 -0.3630  0.5822  0.5294
  324SOL    HW1 2105   9.033   0.138   0.086 -0.4227 -0.6331  0.1976
  324SOL    HW2 2106   9.074   0.073   0.216 -0.5496  0.5958  0.8672
  325SOL     OW 2107   3.463   0.064   5.161 -0.6492  0.3184  0.1110
  325SOL    HW1 2108   3.510   0.025   5.236 -0.9323 -0.6225 -0.1926
  325SOL    HW2 2109   3.527   0.061   5.090 -0.3664  1.2523  0.3107
  326SOL     OW 2110   6.953   2.076   1.489  0.2876 -0.2213  0.4223
  326SOL    HW1 2111   6.904   2.124   1.555  2.1930  1.2245  0.8816
  326SOL    HW2 2112   6.891   2.064   1.417 -1.4072 -0.5857  1.8675
  327SOL     OW 2113   8.198   3.434   2.384  0.0662 -0.1497 -0.0304
  327SOL    HW1 2114   8.280   3.386   2.365  0.1423 -0.7660  1.6767
  327SOL    HW2 2115   8.217   3.483   2.464 -1.2025 -0.2365  0.3454
  328SOL     OW 2116   1.480   0.006   6.865  0.2218  0.6539 -0.0536
  328SOL    HW1 2117   1.562   0.001   6.913 -0.0602  2.8793  0.8050
  328SOL    HW2 2118   1.413  -0.021   6.928  0.2823 -1.7225 -0.9244
  329SOL     OW 2119   2.642   8.471   5.710 -0.0344  0.1412 -0.0746
  329SOL    HW1 2120   2.690   8.528   5.770  0.3167  1.3092 -1.4278
  329SOL    HW2 2121   2.551   8.500   5.717  0.0059  0.2746 -0.0998
  330SOL     OW 2122   4.504   2.142   2.453 -0.6035 -0.1544 -0.7421
  330SOL    HW1 2123   4.459   2.216   2.494 -0.8753 -0.2084 -0.9430
  330SOL    HW2 2124   4.438   2.073   2.451 -0.7930  0.0328 -1.8224
  331SOL     OW 2125   4.439   4.871   3.814 -0.0226 -0.2347 -0.4059
  331SOL    HW1 2126   4.501   4.879   3.886 -1.0440  0.3487  0.4488
  331SOL    HW2 2127   4.450   4.782   3.781  1.3549 -0.0897 -0.3750
  332SOL     OW 2128   6.143   1.584   2.447  0.6948 -0.3774  0.0815
  332SOL    HW1 2129   6.052   1.557   2.458  0.6796 -0.4288 -0.1573
  332SOL    HW2 2130   6.152   1.601   2.353  0.2989  1.9278  0.4041
  333SOL     OW 2131   5.841   9.067   2.964  0.0083 -0.6615  0.0067
  333SOL    HW1 2132   5.795   9.111   3.036 -0.5242  0.3122 -0.8980
  333SOL    HW2 2133   5.774   9.057   2.896  0.8311 -0.3313 -0.8686
  334SOL     OW 2134   8.677   4.250   5.210  0.2016 -0.3800  0.1503
  334SOL    HW1 2135   8.639   4.290   5.287  2.5397 -0.9934  1.7299
  334SOL    HW2 2136   8.747   4.310   5.184 -0.5773 -0.1557 -1.5657
  335SOL     OW 2137   5.810   8.093   7.361  0.4334  0.1050  0.4807
  335SOL    HW1 2138   5.883   8.076   7.419 -0.6516 -0.7746  1.6416
  335SOL    HW2 2139   5.737   8.115   7.419  0.0154  2.0203 -0.6797
  336SOL     OW 2140   6.547   2.573   9.063  0.0999  0.0370 -0.3627
  336SOL    HW1 2141   6.581   2.645   9.009  1.3369 -1.7491 -2.1327
  336SOL    HW2 2142   6.565   2.600   9.153  2.4686  1.0816 -1.0583
  337SOL     OW 2143   3.409   2.266   3.737 -0.2665  0.0116 -0.3130
  337SOL    HW1 2144   3.456   2.345   3.712  1.9717 -1.2454 -0.3984
  337SOL    HW2 2145   3.412   2.210   3.659  0.5571 -1.1590  0.5068
  338SOL     OW 2146   2.454   3.582   2.710 -0.1777 -0.9207 -0.1664
  338SOL    HW1 2147   2.415   3.661   2.672 -1.2933 -1.0347  0.6966
  338SOL    HW2 2148   2.380   3.524   2.727  0.7656 -3.0946 -2.7627
  339SOL     OW 2149   0.698   2.135   5.958 -0.9471  0.3148  0.1497
  339SOL    HW1 2150   0.774   2.147   5.902 -1.6335 -0.0752 -0.8979
  339SOL    HW2 2151   0.693   2.041   5.973 -0.8504  0.4021  0.7643
  340SOL     OW 2152   5.127   8.735   4.990  0.7473 -0.2765 -0.6714
  340SOL    HW1 2153   5.116   8.640   4.995 -2.0326  0.0045  2.4602
  340SOL    HW2 2154   5.188   8.755   5.061  1.4973  0.2829 -1.4652
  341SOL     OW 2155   2.073   0.087   7.147  0.7896  0.0073 -0.1817
  341SOL    HW1 2156   2.015   0.070   7.073  2.2167  1.1776 -1.6420
  341SOL    HW2 2157   2.146   0.027   7.135  0.4638 -0.6548  0.9972
  342SOL     OW 2158   8.267   4.092   6.453 -0.6372 -0.4135 -0.6206
  342SOL    HW1 2159   8.190   4.074   6.399 -1.0461  0.6732 -0.4186
  342SOL    HW2 2160   8.255   4.182   6.483  0.0417 -0.6850  0.5235
  343SOL     OW 2161   8.107   6.089   4.565  0.1735 -0.2366  0.1353
  343SOL    HW1 2162   8.169   6.056   4.501 -0.6860 -1.2722 -0.1985
  343SOL    HW2 2163   8.070   6.011   4.607 -0.5858  0.3559  0.6248
  344SOL     OW 2164   6.188   7.053   6.567  0.1022 -0.0786 -0.5240
  344SOL    HW1 2165   6.281   7.035   6.562  0.2944 -0.9387  3.3135
  344SOL    HW2 2166   6.149   6.970   6.596 -1.3481  1.0814  1.0459
  345SOL     OW 2167   3.665   6.180   7.194 -0.0518 -0.3255  0.1827
  345SOL    HW1 2168   3.673   6.170   7.289  0.3118 -2.3883 -0.0201
  345SOL    HW2 2169   3.599   6.116   7.169 -1.9283  1.8625 -0.7155
  346SOL     OW 2170   8.317   4.624   2.120 -0.1795  0.1575  0.1661
  346SOL    HW1 2171   8.273   4.593   2.199  3.7700  0.1225  2.6335
  346SOL    HW2 2172   8.300   4.719   2.120 -1.7731 -0.0926 -0.1218
  347SOL     OW 2173   7.973   4.666   1.808  0.0275  0.7775 -0.1476
  347SOL    HW1 2174   7.900   4.675   1.869 -0.2258 -0.9064 -0.1505
  347SOL    HW2 2175   7.933   4.626   1.730  1.2532 -2.2928  0.6556
  348SOL     OW 2176   8.903   7.587   5.282  0.3141 -0.1729  0.0375
  348SOL    HW1 2177   8.963   7.513   5.280  1.3908  0.6612 -2.1483
  348SOL    HW2 2178   8.897   7.610   5.374  0.5453 -2.4675  0.6853
  349SOL     OW 2179   0.283   5.142   1.207  0.2461  0.2178  0.0263
  349SOL    HW1 2180   0.238   5.190   1.137 -0.9907  0.0515  0.6835
  349SOL    HW2 2181   0.250   5.053   1.200  0.2292  0.1627  0.7169
  350SOL     OW 2182   3.747   0.751   5.661 -0.0483  0.3847  0.6032
  350SOL    HW1 2183   3.713   0.841   5.668  0.1435  0.4341  0.9458
  350SOL    HW2 2184   3.741   0.730   5.568 -2.0201 -0.0011  0.7776
  351SOL     OW 2185   7.007   6.412   5.593 -0.7067 -0.2435 -0.4299
  351SOL    HW1 2186   7.050   6.419   5.679 -2.9142  1.0090  0.6718
  351SOL    HW2 2187   6.990   6.319   5.583  0.8376 -0.5740 -0.1890
  352SOL     OW 2188   8.793   1.544   3.341  0.7358 -0.2334  0.5028
  352SOL    HW1 2189   8.843   1.597   3.279  0.6541 -0.6907  0.0371
  352SOL    HW2 2190   8.836   1.558   3.425  1.3653 -0.2645  0.1905
  353SOL     OW 2191   0.826   2.714   7.334 -0.2087  0.3663  0.1065
  353SOL    HW1 2192   0.773   2.782   7.377 -0.5123  1.1619 -1.4503
  353SOL    HW2 2193   0.762   2.653   7.298 -0.0060  0.4240 -0.3538
  354SOL     OW 2194   6.381   8.282   4.846 -0.0764 -0.3398 -1.0675
  354SOL    HW1 2195   6.358   8.297   4.938  0.9670 -0.7627 -0.7225
  354SOL    HW2 2196   6.469   8.319   4.837 -0.1028 -0.4516 -1.8582
  355SOL     OW 2197   6.700   7.004   2.940  0.2141  0.0566  0.1131
  355SOL    HW1 2198   6.613   6.987   2.976  0.1775  0.4412  0.2175
  355SOL    HW2 2199   6.745   6.920   2.944 -0.4577 -0.3610 -0.8019
  356SOL     OW 2200   5.087   8.028   4.784 -0.5301 -0.1534 -0.1336
  356SOL    HW1 2201   5.104   8.078   4.864  1.3966 -0.0081 -0.5928
  356SOL    HW2 2202   4.996   7.998   4.794 -0.3531 -0.1596  2.1123
  357SOL     OW 2203   6.034   6.070   3.192 -0.1535  0.0651  0.1826
  357SOL    HW1 2204   6.035   6.160   3.161  0.9851 -0.6048 -1.9341
  357SOL    HW2 2205   6.115   6.060   3.241 -0.0111  0.0425 -0.0573
  358SOL     OW 2206   4.087   6.242   0.875  0.0466  0.5594 -0.1811
  358SOL    HW1 2207   4.104   6.173   0.811  1.9427  2.3162 -1.7326
  358SOL    HW2 2208   4.043   6.311   0.826  2.4975  2.3958 -0.0002
  359SOL     OW 2209   2.327   3.132   1.511 -0.0421 -0.2518 -0.4424
  359SOL    HW1 2210   2.405   3.090   1.545  0.4645  2.2376  1.8054
  359SOL    HW2 2211   2.255   3.076   1.538  0.6134  0.0563  2.1425
  360SOL     OW 2212   1.074   1.919   3.069  0.3094  0.5110 -0.2720
  360SOL    HW1 2213   1.099   1.971   3.146  1.1134  1.4952 -1.1643
  360SOL    HW2 2214   1.097   1.975   2.994 -0.7581 -0.2844 -1.2276
  361SOL     OW 2215   4.990   7.928   8.130 -0.6993 -0.1059  0.3163
  361SOL    HW1 2216   4.920   7.993   8.138 -1.0886 -0.6229  1.2660
  361SOL    HW2 2217   5.065   7.969   8.173 -1.5497 -1.0929  2.9919
  362SOL     OW 2218   6.880   7.745   8.922  0.3165 -1.0905 -0.1705
  362SOL    HW1 2219   6.837   7.820   8.963  0.6764 -0.9070 -0.1236
  362SOL    HW2 2220   6.969   7.775   8.903 -0.0024 -0.9700 -1.6305
  363SOL     OW 2221   7.475   3.953   4.856 -0.5532 -0.2091 -0.0805
  363SOL    HW1 2222   7.453   3.888   4.923 -1.1660 -0.9519 -0.9634
  363SOL    HW2 2223   7.488   4.034   4.904 -0.4275 -0.8471  0.9866
  364SOL     OW 2224   6.776   1.382   5.777 -0.5116  0.0089  0.5234
  364SOL    HW1 2225   6.804   1.447   5.713  0.4509  1.3162  2.1831
  364SOL    HW2 2226   6.731   1.432   5.845 -0.1154 -1.1012  1.6588
  365SOL     OW 2227   4.724   1.935   0.967  0.0875  0.2477 -0.5365
  365SOL    HW1 2228   4.809   1.896   0.987  0.3448  1.3066  0.5724
  365SOL    HW2 2229   4.665   1.861   0.958  1.4395 -0.6406 -3.1476
  366SOL     OW 2230   3.780   3.512   4.734  0.4185  0.0562 -0.4520
  366SOL    HW1 2231   3.691   3.492   4.763  0.5472 -0.1313 -0.1741
  366SOL    HW2 2232   3.829   3.431   4.751  1.3526  1.0903  2.3394
  367SOL     OW 2233   5.022   2.563   2.291 -0.2217  0.5660 -0.3300
  367SOL    HW1 2234   5.093   2.593   2.348 -0.7033  3.0016 -0.9057
  367SOL    HW2 2235   5.019   2.469   2.304  1.3254  0.7421  1.7610
  368SOL     OW 2236   3.478   8.664   0.600  0.3373 -0.2551  0.0608
  368SOL    HW1 2237   3.566   8.702   0.603  0.3904 -0.1171 -1.6733
  368SOL    HW2 2238   3.419   8.737   0.621  0.5705  0.1015 -0.4910
  369SOL     OW 2239   8.623   5.749   4.281  0.3891 -0.0238 -0.1348
  369SOL    HW1 2240   8.626   5.802   4.202  0.4384 -3.5955 -2.8104
  369SOL    HW2 2241   8.539   5.703   4.276 -0.5583  1.0465  3.0704
  370SOL     OW 2242   5.748   1.772   0.295 -0.3035 -0.1385 -0.3418
  370SOL    HW1 2243   5.709   1.739   0.214  0.3926  0.5039 -0.9532
  370SOL    HW2 2244   5.823   1.823   0.266 -1.1748  1.7398  0.5917
  371SOL     OW 2245   7.362   5.984   2.200 -0.8306 -0.0961  0.2586
  371SOL    HW1 2246   7.420   5.933   2.145 -2.3445 -1.0744 -0.5016
  371SOL    HW2 2247   7.410   5.995   2.282  0.7097 -0.1852 -0.5920
  372SOL     OW 2248   7.713   2.150   5.682 -0.2342  1.2524 -0.7384
  372SOL    HW1 2249   7.695   2.150   5.776 -0.3302  1.3484 -0.7563
  372SOL    HW2 2250   7.629   2.128   5.641 -0.1408  0.9944 -0.7926
  373SOL     OW 2251   6.291   5.842   5.101  0.0007 -0.4385  0.0682
  373SOL    HW1 2252   6.342   5.770   5.064  1.6589  0.5196  0.4002
  373SOL    HW2 2253   6.206   5.835   5.058  0.6216 -1.6712 -1.0512
  374SOL     OW 2254   6.355   6.510   7.869  0.0742 -0.2891 -0.1438
  374SOL    HW1 2255   6.259   6.513   7.866 -0.0142 -2.1369 -0.9707
  374SOL    HW2 2256   6.375   6.419   7.889  1.6421 -0.4945 -2.2947
  375SOL     OW 2257   1.664   7.018   9.069 -0.2740  0.3702 -0.1875
  375SOL    HW1 2258   1.755   7.031   9.094  0.0568 -0.1182 -1.1150
  375SOL    HW2 2259   1.617   7.012   9.153  0.5080  0.8085  0.2928
  376SOL     OW 2260   6.657   4.753   1.184  0.3008  0.4030 -0.3004
  376SOL    HW1 2261   6.637   4.684   1.121  1.1011 -0.0557 -0.0631
  376SOL    HW2 2262   6.576   4.766   1.232  0.2179 -0.5897 -0.1475
  377SOL     OW 2263   0.128   7.786   7.716  0.9775 -0.0001 -0.8244
  377SOL    HW1 2264   0.169   7.872   7.706  0.1778  0.5154  0.1746
  377SOL    HW2 2265   0.044   7.794   7.672  1.6792 -0.9004 -2.4209
  378SOL     OW 2266   1.879   2.046   4.955  0.2795 -0.5409 -1.0487
  378SOL    HW1 2267   1.858   2.137   4.935  0.8682 -0.5537 -1.7727
  378SOL    HW2 2268   1.798   2.009   4.989  0.4707  0.6948  0.8808
  379SOL     OW 2269   3.173   1.894   0.618  0.0493 -0.5211 -0.3377
  379SOL    HW1 2270   3.173   1.984   0.652 -0.9149 -0.6397  0.0129
  379SOL    HW2 2271   3.260   1.860   0.638  0.5419  0.4412 -0.7760
  380SOL     OW 2272   0.958   5.653   0.595 -0.6015  0.1382 -0.3589
  380SOL    HW1 2273   0.931   5.562   0.601 -0.2364  0.0260 -0.3898
  380SOL    HW2 2274   0.885   5.703   0.632 -0.9565 -0.1412 -0.6809
  381SOL     OW 2275   8.463   7.723   2.040  0.0680 -0.2162 -0.1497
  381SOL    HW1 2276   8.476   7.818   2.034 -2.0613  0.1140 -0.3559
  381SOL    HW2 2277   8.471   7.691   1.950  0.6763 -0.2253 -0.0949
  382SOL     OW 2278   8.888   8.410   7.421  0.2344  0.2074  0.2025
  382SOL    HW1 2279   8.938   8.365   7.490 -1.0269 -2.1544 -0.3123
  382SOL    HW2 2280   8.800   8.418   7.457 -0.2886 -0.4990 -0.8627
  383SOL     OW 2281   3.521   4.050   2.816 -0.4631 -0.0791  0.3417
  383SOL    HW1 2282   3.496   4.113   2.747 -1.8045 -1.8697 -0.9042
  383SOL    HW2 2283   3.522   4.102   2.896 -2.2838  1.4087 -0.5140
  384SOL     OW 2284   0.506   8.014   6.178 -0.2984 -0.5778  0.6964
  384SOL    HW1 2285   0.511   8.085   6.242  0.5714 -0.5557  0.6161
  384SOL    HW2 2286   0.504   8.059   6.093 -1.8777 -0.5917  0.6976
  385SOL     OW 2287   6.939   6.562   5.378  0.4721  0.2436 -0.2086
  385SOL    HW1 2288   6.907   6.520   5.457  0.2998  1.8689  0.6334
  385SOL    HW2 2289   7.025   6.522   5.363  0.9662  0.6133  1.4101
  386SOL     OW 2290   0.940   8.558   1.555 -0.2111  0.2379  0.2879
  386SOL    HW1 2291   0.892   8.523   1.630 -2.4050 -0.1701 -1.2034
  386SOL    HW2 2292   0.873   8.598   1.500  1.0009 -1.0492 -2.3224
  387SOL     OW 2293   8.163   0.800   9.003 -0.0541 -0.0283  0.0673
  387SOL    HW1 2294   8.155   0.883   8.957  0.3550 -0.5575 -0.9916
  387SOL    HW2 2295   8.163   0.734   8.934  0.7537 -0.8450  0.8209
  388SOL     OW 2296   5.370   0.833   6.177  0.2232 -0.0847 -0.2862
  388SOL    HW1 2297   5.419   0.823   6.095 -1.6433  1.5363 -1.6746
  388SOL    HW2 2298   5.330   0.747   6.191 -1.2609  0.1992 -2.3612
  389SOL     OW 2299   8.865   0.253   7.904 -0.0513 -0.0139  0.6098
  389SOL    HW1 2300   8.815   0.328   7.935  1.2954  1.0862  0.2080
  389SOL    HW2 2301   8.819   0.177   7.939 -0.4816  1.0488  2.4393
  390SOL     OW 2302   4.922   7.453   7.351 -0.0615 -0.9365  0.3495
  390SOL    HW1 2303   4.900   7.425   7.440  0.1567 -1.1665  0.3313
  390SOL    HW2 2304   4.897   7.545   7.349 -0.0014 -0.9095  0.6724
  391SOL     OW 2305   6.625   1.154   3.063  0.2108 -0.3139  0.1170
  391SOL    HW1 2306   6.570   1.217   3.110 -0.6403 -1.1656  0.2775
  391SOL    HW2 2307   6.688   1.124   3.129  0.9688  0.7479 -0.0985
  392SOL     OW 2308   0.097   5.205   2.866 -0.5887  0.5307 -0.5346
  392SOL    HW1 2309   0.048   5.123   2.869  1.2019 -0.5957 -0.4793
  392SOL    HW2 2310   0.046   5.266   2.919 -0.7093 -1.2723  1.5600
  393SOL     OW 2311   2.479   3.430   3.278  0.2401  0.1114  0.2758
  393SOL    HW1 2312   2.440   3.511   3.311 -0.3498  0.0638 -0.2847
  393SOL    HW2 2313   2.544   3.459   3.215  0.7838  0.1740  0.8493
  394SOL     OW 2314   0.624   6.840   4.091 -0.3396  0.6052 -0.0872
  394SOL    HW1 2315   0.562   6.911   4.075  0.4661  1.6655  1.2725
  394SOL    HW2 2316   0.650   6.851   4.182  2.8708  1.0935 -0.9034
  395SOL     OW 2317   6.518   6.736   9.073 -0.0204  0.1999 -0.6731
  395SOL    HW1 2318   6.610   6.721   9.052  0.0033  1.0751 -1.2521
  395SOL    HW2 2319   6.495   6.664   9.132  1.5680  1.0424  1.0984
  396SOL     OW 2320   4.337   0.945   1.551 -0.0511 -0.0953 -0.4562
  396SOL    HW1 2321   4.310   0.883   1.483  0.5869 -0.5860 -0.2666
  396SOL    HW2 2322   4.399   1.003   1.506 -0.2163  0.0537 -0.4903
  397SOL     OW 2323   7.218   6.714   3.958 -0.2161 -0.0947 -0.4794
  397SOL    HW1 2324   7.272   6.639   3.934 -0.9971 -0.5801 -0.7459
  397SOL    HW2 2325   7.259   6.749   4.037 -1.3295 -2.3900  1.2095
  398SOL     OW 2326   8.915   2.677   1.750 -0.3888  0.5492  0.0455
  398SOL    HW1 2327   8.852   2.746   1.773 -1.7301 -0.3845 -0.6828
  398SOL    HW2 2328   8.926   2.628   1.832  2.2863  2.8353  1.2029
  399SOL     OW 2329   5.902   8.378   7.484 -0.4209 -0.1203  0.5130
  399SOL    HW1 2330   5.888   8.284   7.493 -1.9390  0.0268 -0.1011
  399SOL    HW2 2331   5.825   8.418   7.525  0.0303  0.8458  0.4441
  400SOL     OW 2332   5.491   8.964   4.932  0.8497  0.3929  0.0102
  400SOL    HW1 2333   5.490   8.978   4.838 -1.5254  1.5271  0.1425
  400SOL    HW2 2334   5.482   9.052   4.970 -2.3537 -0.2795  1.1388
  401SOL     OW 2335   7.818   6.514   5.786 -0.4340  0.0243 -1.0496
  401SOL    HW1 2336   7.848   6.444   5.844  0.4823  0.9445 -0.3928
  401SOL    HW2 2337   7.777   6.468   5.713 -2.3512 -1.1822  0.6688
  402SOL     OW 2338   0.177   6.451   5.433  0.0052  0.1315  0.0959
  402SOL    HW1 2339   0.105   6.389   5.441  0.2408 -0.0383  1.0816
  402SOL    HW2 2340   0.199   6.474   5.524 -0.5126  2.1798 -0.2549
  403SOL     OW 2341   4.421   1.739   7.112 -0.3544  0.1245 -0.2144
  403SOL    HW1 2342   4.361   1.731   7.037  1.1850 -0.7960 -1.4174
  403SOL    HW2 2343   4.386   1.679   7.177 -1.3779  0.4658 -0.4326
  404SOL     OW 2344   1.336   5.442   4.764 -0.2645  0.0564  0.3168
  404SOL    HW1 2345   1.269   5.489   4.715  1.3919  1.7862 -0.3974
  404SOL    HW2 2346   1.378   5.509   4.818 -0.7335 -1.4327  2.7185
  405SOL     OW 2347   0.932   8.598   5.450  0.1657 -0.3087  0.0639
  405SOL    HW1 2348   0.943   8.503   5.451 -1.1130 -0.4647  0.7240
  405SOL    HW2 2349   0.837   8.611   5.454  0.3278  0.9979 -0.0522
  406SOL     OW 2350   0.622   7.192   7.756  0.7174 -0.0953  0.2646
  406SOL    HW1 2351   0.551   7.127   7.760  0.5379  0.1362  1.1121
  406SOL    HW2 2352   0.595   7.260   7.817  1.1357  0.5491 -0.2602
  407SOL     OW 2353   8.692   2.076   7.602  0.0600 -0.5628  0.0097
  407SOL    HW1 2354   8.752   2.039   7.666 -0.2749  0.3329  0.8851
  407SOL    HW2 2355   8.647   2.146   7.650  0.3574  0.6622 -1.4266
  408SOL     OW 2356   0.311   4.573   4.822 -0.9104  0.2514 -0.5793
  408SOL    HW1 2357   0.404   4.554   4.820 -0.9508 -0.2491  0.9613
  408SOL    HW2 2358   0.295   4.625   4.743  0.7126  0.5771 -0.7228
  409SOL     OW 2359   1.349   1.195   2.115 -0.3567  0.3564  0.3948
  409SOL    HW1 2360   1.263   1.218   2.081 -0.2794 -0.0713 -0.0984
  409SOL    HW2 2361   1.332   1.156   2.201 -0.5338  1.7126  1.0078
  410SOL     OW 2362   2.135   1.873   0.935 -0.0523 -0.3555  1.2668
  410SOL    HW1 2363   2.055   1.889   0.886  0.1815 -0.2859  0.9009
  410SOL    HW2 2364   2.129   1.782   0.962  0.2924 -0.7163  0.1931
  411SOL     OW 2365   7.933   5.335   8.001 -0.1032  0.0256  0.0528
  411SOL    HW1 2366   7.908   5.360   8.090 -0.5507 -0.2378  0.0081
  411SOL    HW2 2367   8.028   5.320   8.005 -0.2518 -0.8317  0.7004
  412SOL     OW 2368   5.561   4.131   4.908  0.0249 -0.3898 -0.6900
  412SOL    HW1 2369   5.589   4.160   4.820 -1.4956  0.4294 -0.9366
  412SOL    HW2 2370   5.518   4.208   4.946 -3.4538 -1.9665 -1.0403
  413SOL     OW 2371   0.009   5.359   7.441 -0.3289  0.4353  0.3082
  413SOL    HW1 2372   0.084   5.418   7.450 -1.2302  1.6002  0.4206
  413SOL    HW2 2373   0.048   5.273   7.425  0.9985  1.3348 -1.6262
  414SOL     OW 2374   2.126   2.464   6.175  0.1268 -0.6778  0.8956
  414SOL    HW1 2375   2.108   2.390   6.118 -2.0153  2.8653 -3.7047
  414SOL    HW2 2376   2.218   2.484   6.160 -0.2727 -0.1287 -1.1897
  415SOL     OW 2377   4.833   4.141   0.952 -0.1716  0.4739  0.3541
  415SOL    HW1 2378   4.766   4.202   0.922  1.4511  1.7957 -0.7706
  415SOL    HW2 2379   4.864   4.178   1.034  1.9259  2.1790 -1.1007
  416SOL     OW 2380   3.965   2.711   0.009  0.7606 -0.3346 -0.0385
  416SOL    HW1 2381   4.060   2.704   0.007  0.7963 -0.8338  1.6073
  416SOL    HW2 2382   3.935   2.656  -0.064  1.6998 -1.8465  0.6531
  417SOL     OW 2383   7.835   4.263   2.950  0.2102  0.2554  0.3017
  417SOL    HW1 2384   7.921   4.276   2.991  0.9279 -1.9805 -0.3243
  417SOL    HW2 2385   7.852   4.201   2.879 -2.0504 -0.8707  0.6585
  418SOL     OW 2386   4.139   4.510   6.534 -0.6252 -0.0484  0.2067
  418SOL    HW1 2387   4.224   4.507   6.577 -0.6743  1.5512  0.4981
  418SOL    HW2 2388   4.123   4.604   6.519 -1.3135 -0.4342 -1.8848
  419SOL     OW 2389   4.370   7.728   3.574 -0.3308 -0.3094 -0.0691
  419SOL    HW1 2390   4.359   7.785   3.497  0.0896 -0.6433 -0.3794
  419SOL    HW2 2391   4.425   7.656   3.543 -0.9567 -0.9566  0.2886
  420SOL     OW 2392   7.251   6.758   0.222 -0.1891  0.2101  0.2916
  420SOL    HW1 2393   7.186   6.797   0.164 -0.9755 -0.6703  0.5542
  420SOL    HW2 2394   7.317   6.721   0.163  1.0803  2.6768  0.0402
  421SOL     OW 2395   5.125   1.226   2.967  0.2840 -0.3916  0.0180
  421SOL    HW1 2396   5.127   1.311   3.011  0.1819 -0.7072  0.6488
  421SOL    HW2 2397   5.073   1.170   3.025  0.6108 -0.9696 -0.2328
  422SOL     OW 2398   7.814   3.312   5.257  0.2035 -0.0827 -0.2050
  422SOL    HW1 2399   7.895   3.361   5.241  0.3137 -0.3670 -0.5210
  422SOL    HW2 2400   7.761   3.372   5.310  0.4087  0.3110 -0.4367
  423SOL     OW 2401   8.808   5.292   7.349  0.1955  0.9757  0.3953
  423SOL    HW1 2402   8.713   5.293   7.338  0.1089  0.9427  1.0959
  423SOL    HW2 2403   8.828   5.376   7.390  0.4034  0.7526  0.7542
  424SOL     OW 2404   5.956   6.798   2.134  0.1312  0.0125  0.2241
  424SOL    HW1 2405   5.925   6.863   2.197  1.8100 -0.7876  1.9962
  424SOL    HW2 2406   5.902   6.721   2.150 -0.3217  0.2270 -0.2556
  425SOL     OW 2407   7.809   4.333   2.249 -0.5503 -0.0207 -0.0094
  425SOL    HW1 2408   7.892   4.374   2.272  0.3301 -1.2517 -0.8953
  425SOL    HW2 2409   7.760   4.402   2.203 -0.0568  0.7250  0.5627
  426SOL     OW 2410   5.052   3.862   6.457 -0.8142 -1.0127 -0.1723
  426SOL    HW1 2411   5.138   3.865   6.417 -0.0682  0.3207  1.4001
  426SOL    HW2 2412   4.991   3.886   6.387  0.3721  0.6939 -0.6689
  427SOL     OW 2413   3.191   4.778   2.644  0.2654  0.4815 -0.3398
  427SOL    HW1 2414   3.274   4.734   2.662  0.2448  1.0290  1.3092
  427SOL    HW2 2415   3.155   4.733   2.568  0.5701 -1.8899  0.8487
  428SOL     OW 2416   2.257   4.300   5.379 -0.2725 -0.5204 -0.5425
  428SOL    HW1 2417   2.321   4.328   5.315 -0.4038  0.8212 -0.1273
  428SOL    HW2 2418   2.177   4.287   5.329 -0.7176  1.7503 -0.5554
  429SOL     OW 2419   1.193   1.388   7.739 -0.3357  0.1271  0.0745
  429SOL    HW1 2420   1.103   1.420   7.726 -0.7831 -0.1312  2.1355
  429SOL    HW2 2421   1.185   1.322   7.808  1.5905  0.9716  1.1932
  430SOL     OW 2422   0.451   6.725   1.798 -0.3147  0.1922  0.8654
  430SOL    HW1 2423   0.445   6.820   1.790  2.9096  0.3677 -0.7662
  430SOL    HW2 2424   0.456   6.693   1.708  0.3936 -1.3514  1.4230
  431SOL     OW 2425   5.334   4.370   2.098  0.3735  1.0870 -0.5299
  431SOL    HW1 2426   5.323   4.359   2.192 -1.3913  1.9620 -0.5869
  431SOL    HW2 2427   5.330   4.281   2.063 -0.7089  0.8690  0.0857
  432SOL     OW 2428   2.506   8.602   5.319  0.0707  0.2998 -0.7252
  432SOL    HW1 2429   2.464   8.666   5.376 -0.9208 -1.1383  0.2349
  432SOL    HW2 2430   2.444   8.530   5.314  1.5574 -1.0257 -0.9482
  433SOL     OW 2431   3.791   4.727   1.732 -0.0370 -0.5288 -0.1625
  433SOL    HW1 2432   3.771   4.774   1.813 -0.9870 -0.3114 -0.5140
  433SOL    HW2 2433   3.848   4.787   1.684 -1.8045  0.6236 -0.9218
  434SOL     OW 2434   0.819   6.749   0.759  0.3595 -0.1606  0.3290
  434SOL    HW1 2435   0.825   6.830   0.809  0.6579 -1.8134  3.1602
  434SOL    HW2 2436   0.725   6.739   0.740  0.1471  0.1414  1.1977
  435SOL     OW 2437   3.696   1.366   2.008 -0.1825  0.6823 -0.6305
  435SOL    HW1 2438   3.613   1.414   2.000 -1.7392 -1.9895 -1.8622
  435SOL    HW2 2439   3.730   1.362   1.919  0.2426  0.0055 -0.4424
  436SOL     OW 2440   2.412   3.834   8.381 -0.1689 -0.1067  0.0527
  436SOL    HW1 2441   2.447   3.790   8.304  2.1822 -0.5905  1.3084
  436SOL    HW2 2442   2.431   3.927   8.367  1.4103 -0.3220  0.5407
  437SOL     OW 2443   2.035   7.192   5.255 -0.4332 -0.1676  0.0826
  437SOL    HW1 2444   2.074   7.238   5.180 -1.2164 -1.2234 -1.0120
  437SOL    HW2 2445   1.986   7.260   5.302 -0.4800  0.3913 -0.7529
  438SOL     OW 2446   4.233   2.795   7.930 -0.0588  0.1914  0.5142
  438SOL    HW1 2447   4.257   2.711   7.970 -0.8802  0.4976  1.7249
  438SOL    HW2 2448   4.256   2.786   7.838  0.1416 -1.2552  0.6863
  439SOL     OW 2449   2.557   0.939   5.265  0.1889 -0.0712 -0.3096
  439SOL    HW1 2450   2.470   0.976   5.248  0.6839  1.0890 -0.3983
  439SOL    HW2 2451   2.583   0.976   5.349  0.4886 -0.6296 -0.1505
  440SOL     OW 2452   6.691   5.392   4.523  0.0560  0.4456 -0.7929
  440SOL    HW1 2453   6.629   5.370   4.454 -1.2418  0.3901  0.3401
  440SOL    HW2 2454   6.762   5.438   4.478  0.1289 -1.1344 -2.3984
  441SOL     OW 2455   0.253   2.605   2.142  0.4326  0.8349 -0.0082
  441SOL    HW1 2456   0.246   2.642   2.230  1.3346 -0.5659  0.6944
  441SOL    HW2 2457   0.195   2.659   2.088 -0.7267  1.2520  1.5846
  442SOL     OW 2458   1.321   5.341   8.038 -0.2269  0.1464  0.3092
  442SOL    HW1 2459   1.386   5.409   8.051  0.3308 -0.2713 -0.2700
  442SOL    HW2 2460   1.257   5.356   8.108  0.7867  0.1973  1.2533
  443SOL     OW 2461   2.862   8.382   2.102  0.1125  0.9466 -0.5105
  443SOL    HW1 2462   2.774   8.361   2.070  0.0629  1.5585 -0.7877
  443SOL    HW2 2463   2.849   8.454   2.164  0.4308  1.1500 -0.6755
  444SOL     OW 2464   8.500   0.049   5.655 -0.1530 -0.0533  0.0080
  444SOL    HW1 2465   8.417   0.002   5.642  0.3023 -0.6189 -1.0319
  444SOL    HW2 2466   8.562   0.002   5.599  0.6117  1.0357 -0.0805
  445SOL     OW 2467   6.633   1.421   1.828 -0.8197 -0.2584 -0.1167
  445SOL    HW1 2468   6.698   1.426   1.898 -2.6040 -0.3650  1.6562
  445SOL    HW2 2469   6.679   1.449   1.749  0.8768  1.4478  1.4008
  446SOL     OW 2470   1.967   8.096   7.719 -0.1800  0.4350  0.0972
  446SOL    HW1 2471   2.048   8.135   7.751  0.7396 -0.5442 -0.9650
  446SOL    HW2 2472   1.905   8.107   7.791  0.6614  1.8812  0.6371
  447SOL     OW 2473   3.713   3.686   5.712 -0.0735  0.0818 -0.1323
  447SOL    HW1 2474   3.638   3.722   5.665 -0.0335 -0.1802 -0.3986
  447SOL    HW2 2475   3.713   3.731   5.796 -0.6072 -0.0103 -0.0809
  448SOL     OW 2476   0.841   0.966   5.487  0.0208 -0.4977 -0.6144
  448SOL    HW1 2477   0.768   0.968   5.425  0.9802 -0.0121 -1.7647
  448SOL    HW2 2478   0.844   0.876   5.519 -2.1151 -0.1636  0.7556
  449SOL     OW 2479   3.072   5.896   4.812 -0.0964 -0.5547 -0.2338
  449SOL    HW1 2480   3.155   5.906   4.765 -0.5638 -1.3193 -1.2566
  449SOL    HW2 2481   3.006   5.934   4.754 -0.5233 -0.3628  0.3708
  450SOL     OW 2482   0.259   5.020   4.580 -0.3731 -0.1292  0.0069
  450SOL    HW1 2483   0.344   5.062   4.598  0.2043 -0.0633 -2.5765
  450SOL    HW2 2484   0.206   5.089   4.541 -1.2055 -0.4999  0.4620
  451SOL     OW 2485   5.441   8.234   3.257 -0.4045 -0.4537  0.0579
  451SOL    HW1 2486   5.404   8.148   3.278 -0.4339 -0.9954 -2.0140
  451SOL    HW2 2487   5.365   8.289   3.236 -0.4543  0.3722  2.1446
  452SOL     OW 2488   6.184   7.142   2.127  0.0840  0.6274  0.3328
  452SOL    HW1 2489   6.230   7.209   2.075  2.5161 -0.7733  0.5189
  452SOL    HW2 2490   6.178   7.066   2.070  0.4335 -0.0842  1.2106
  453SOL     OW 2491   2.934   2.203   2.587  0.5511 -0.8115 -0.1300
  453SOL    HW1 2492   2.917   2.120   2.543  1.1835 -1.0230  0.0206
  453SOL    HW2 2493   2.905   2.270   2.525 -2.6699 -1.1407  0.8171
  454SOL     OW 2494   1.496   6.991   0.155 -0.4329  0.3023  0.2343
  454SOL    HW1 2495   1.412   7.034   0.170  0.2900  1.1036  2.5209
  454SOL    HW2 2496   1.485   6.904   0.195 -1.0252 -0.6968 -1.9792
  455SOL     OW 2497   6.084   5.718   5.591  0.3517  0.1671 -0.1610
  455SOL    HW1 2498   6.000   5.675   5.573 -0.1683  1.4735 -0.9314
  455SOL    HW2 2499   6.133   5.709   5.510  0.7223 -0.0452  0.0846
  456SOL     OW 2500   4.917   3.659   3.293  0.1335  0.1088 -0.1304
  456SOL    HW1 2501   4.870   3.578   3.274  0.5647 -0.1895  0.0803
  456SOL    HW2 2502   4.864   3.727   3.251 -0.6119 -0.1976  0.2949
  457SOL     OW 2503   2.397   7.714   5.014  0.3779 -0.8507 -0.0172
  457SOL    HW1 2504   2.372   7.630   4.975 -1.4228  0.3621 -1.6807
  457SOL    HW2 2505   2.320   7.742   5.063  0.5009  0.3620 -0.4783
  458SOL     OW 2506   1.493   4.513   7.184  0.4341 -0.0748 -0.3188
  458SOL    HW1 2507   1.474   4.598   7.145  2.5387  0.8872  0.5374
  458SOL    HW2 2508   1.462   4.521   7.274 -1.1837 -0.9910 -0.7596
  459SOL     OW 2509   0.987   0.316   7.123 -0.3809  0.5970 -0.0280
  459SOL    HW1 2510   0.899   0.290   7.149 -0.8426  1.6139 -0.5554
  459SOL    HW2 2511   1.011   0.385   7.184  0.4677 -0.3620  0.7598
  460SOL     OW 2512   0.494   3.533   3.477 -0.1021 -0.4717 -0.1511
  460SOL    HW1 2513   0.508   3.499   3.389 -1.0735 -1.9207  0.2238
  460SOL    HW2 2514   0.401   3.557   3.479 -0.2061 -0.9040  0.6178
  461SOL     OW 2515   3.675   5.973   0.462  0.6051 -0.2557 -0.2050
  461SOL    HW1 2516   3.646   6.030   0.533  0.1370 -1.7524  0.8643
  461SOL    HW2 2517   3.752   6.016   0.426 -1.0193  2.2195 -1.0076
  462SOL     OW 2518   7.256   6.889   7.264 -0.0378 -0.1903 -0.1172
  462SOL    HW1 2519   7.277   6.966   7.316  0.1608  1.0417 -1.9276
  462SOL    HW2 2520   7.198   6.921   7.195 -1.0267 -1.9295 -0.1669
  463SOL     OW 2521   5.971   8.520   7.752  0.3362 -0.3172 -0.2385
  463SOL    HW1 2522   5.983   8.450   7.817  1.1658 -0.3226 -0.3967
  463SOL    HW2 2523   5.987   8.478   7.668 -2.6471 -0.8028 -0.6684
  464SOL     OW 2524   8.393   5.432   5.079 -0.6008 -0.2471  0.3189
  464SOL    HW1 2525   8.373   5.375   5.005 -0.5765  0.3041 -0.1200
  464SOL    HW2 2526   8.331   5.505   5.072 -0.8254 -0.3576  1.0389
  465SOL     OW 2527   4.989   2.269   3.371  0.3827 -0.5953  0.1912
  465SOL    HW1 2528   4.895   2.282   3.366  0.3451 -0.6989  0.5866
  465SOL    HW2 2529   5.002   2.175   3.359  0.7634 -0.2058 -4.2130
  466SOL     OW 2530   3.808   8.385   5.286  0.0274 -0.0707  0.2256
  466SOL    HW1 2531   3.888   8.388   5.338  0.7666  0.3149 -0.8837
  466SOL    HW2 2532   3.793   8.291   5.271 -1.1478 -0.3136  2.4686
  467SOL     OW 2533   3.900   1.905   8.551 -0.8737  0.2996  0.1392
  467SOL    HW1 2534   3.850   1.883   8.630 -1.0318 -0.3909 -0.1377
  467SOL    HW2 2535   3.840   1.886   8.479 -0.0838 -0.9938 -0.2228
  468SOL     OW 2536   2.822   4.590   7.133  0.4224  0.9495 -0.6568
  468SOL    HW1 2537   2.839   4.575   7.040 -0.5594  0.4447 -0.7652
  468SOL    HW2 2538   2.838   4.684   7.145  0.9930  0.9384 -1.2279
  469SOL     OW 2539   2.228   6.938   8.213 -0.4408  0.0045 -0.0015
  469SOL    HW1 2540   2.293   6.875   8.181  1.5246  1.9663 -0.0819
  469SOL    HW2 2541   2.179   6.964   8.135  0.0575  0.0416 -0.3045
  470SOL     OW 2542   5.496   7.086   3.843 -0.3019 -0.0573 -0.4985
  470SOL    HW1 2543   5.425   7.089   3.779  0.1172 -2.1576 -1.1543
  470SOL    HW2 2544   5.524   6.994   3.844  1.7301  0.4944  0.4833
  471SOL     OW 2545   1.062   0.369   0.525  0.0611 -0.1823  0.0508
  471SOL    HW1 2546   1.151   0.400   0.545  0.6428 -1.3834 -0.5466
  471SOL    HW2 2547   1.038   0.415   0.445  0.4499 -0.3971 -0.1930
  472SOL     OW 2548   5.563   2.119   2.177  0.2297  0.0189 -0.4628
  472SOL    HW1 2549   5.513   2.060   2.120  0.6220 -1.5727  0.7895
  472SOL    HW2 2550   5.638   2.068   2.207  0.4128  1.0314  0.9385
  473SOL     OW 2551   4.087   7.667   2.325 -0.1735  0.1088  0.3294
  473SOL    HW1 2552   4.075   7.731   2.395 -0.4808 -0.3301  0.6818
  473SOL    HW2 2553   4.018   7.687   2.263 -1.6287 -1.2096  1.4514
  474SOL     OW 2554   6.875   2.659   3.248  0.1744  0.3328  0.6260
  474SOL    HW1 2555   6.844   2.713   3.320 -0.6530  0.4573  0.1940
  474SOL    HW2 2556   6.852   2.570   3.273  1.2546  0.2041  1.1952
  475SOL     OW 2557   4.106   4.636   7.437 -0.1155 -0.3118  0.8673
  475SOL    HW1 2558   4.032   4.675   7.389 -0.3878 -1.2028  0.5522
  475SOL    HW2 2559   4.134   4.563   7.383  0.9839 -0.0090  1.0108
  476SOL     OW 2560   1.113   0.813   0.204  0.2326  0.3106 -0.0114
  476SOL    HW1 2561   1.044   0.872   0.173  0.4261  0.3499 -0.3734
  476SOL    HW2 2562   1.191   0.841   0.155 -0.0289 -1.3123 -1.4406
  477SOL     OW 2563   6.264   1.244   3.483  0.1419 -0.0980  0.1812
  477SOL    HW1 2564   6.266   1.294   3.565 -0.8856 -1.9474  1.3941
  477SOL    HW2 2565   6.334   1.180   3.492  0.1242 -0.2140 -0.4680
  478SOL     OW 2566   2.866   6.226   1.520  0.0153  0.1364  0.1692
  478SOL    HW1 2567   2.825   6.301   1.479 -1.7469 -0.5835  0.5493
  478SOL    HW2 2568   2.847   6.153   1.461  0.6841 -0.2428  0.4070
  479SOL     OW 2569   4.844   3.272   8.669 -1.5404 -0.1424 -0.1019
  479SOL    HW1 2570   4.790   3.268   8.590 -0.4025 -0.9238 -0.8719
  479SOL    HW2 2571   4.924   3.317   8.642 -1.0052 -0.6940  0.5258
  480SOL     OW 2572   5.260   4.444   1.757  0.0366  0.5594 -0.6728
  480SOL    HW1 2573   5.205   4.366   1.758 -0.0964  0.6531 -0.7711
  480SOL    HW2 2574   5.344   4.414   1.793 -0.2642  0.5509  0.0451
  481SOL     OW 2575   1.139   3.706   1.057  0.1067 -0.1593 -0.1739
  481SOL    HW1 2576   1.079   3.647   1.102  1.7974 -2.1469 -0.3739
  481SOL    HW2 2577   1.184   3.752   1.128 -0.7285  0.4131  0.0010
  482SOL     OW 2578   6.555   2.977   3.919  0.3812  0.9417 -0.0503
  482SOL    HW1 2579   6.629   2.917   3.928  0.1109  0.6928  0.5507
  482SOL    HW2 2580   6.536   3.005   4.008 -1.4265 -0.4177  0.0287
  483SOL     OW 2581   0.978   8.364   6.560 -0.0835  0.0130 -0.3751
  483SOL    HW1 2582   0.978   8.418   6.481  1.0293 -0.7042 -0.8853
  483SOL    HW2 2583   0.886   8.362   6.587 -0.1410  2.3879 -0.1565
  484SOL     OW 2584   3.418   3.564   2.520  0.3529 -0.0504 -0.1442
  484SOL    HW1 2585   3.488   3.626   2.538  0.2133 -0.4789  2.2250
  484SOL    HW2 2586   3.461   3.492   2.475  0.7932  1.0454 -1.5701
  485SOL     OW 2587   8.788   3.633   8.777  0.0910  0.0474 -0.1187
  485SOL    HW1 2588   8.720   3.575   8.810 -0.2193  0.7058  0.4168
  485SOL    HW2 2589   8.835   3.581   8.712 -1.0700 -0.3419 -0.6637
  486SOL     OW 2590   8.720   8.714   0.457  0.3533  0.3378 -0.1069
  486SOL    HW1 2591   8.680   8.633   0.490 -0.7001  0.3773 -1.2327
  486SOL    HW2 2592   8.759   8.689   0.373  0.9233  0.7839  0.0178
  487SOL     OW 2593   5.295   7.166   7.427  0.5290 -0.7935  0.2320
  487SOL    HW1 2594   5.301   7.240   7.487 -0.0423 -0.4791 -0.0909
  487SOL    HW2 2595   5.209   7.128   7.445  0.5712 -1.0142 -0.0221
  488SOL     OW 2596   8.390   4.357   0.851 -0.4820 -0.2302 -0.3815
  488SOL    HW1 2597   8.377   4.452   0.855 -0.4247 -0.2695  1.2661
  488SOL    HW2 2598   8.485   4.347   0.844 -0.4833 -0.1770 -0.4946
  489SOL     OW 2599   1.213   4.479   5.544  0.4307 -0.4438  0.4062
  489SOL    HW1 2600   1.180   4.454   5.458  0.1099 -1.4013  0.7866
  489SOL    HW2 2601   1.297   4.522   5.527  0.8287 -1.4775 -0.3245
  490SOL     OW 2602   7.533   6.290   7.537  0.3640  0.0979  0.3185
  490SOL    HW1 2603   7.560   6.334   7.456  1.3999  0.1671  0.6952
  490SOL    HW2 2604   7.513   6.362   7.597 -1.4984  0.0653 -0.1973
  491SOL     OW 2605   2.780   5.327   6.528 -0.5776  0.1046 -0.0135
  491SOL    HW1 2606   2.825   5.279   6.598  0.1024  0.5855 -0.1135
  491SOL    HW2 2607   2.849   5.346   6.464 -0.8770  1.0391 -0.0741
  492SOL     OW 2608   7.312   6.255   1.281  0.2343 -0.0980 -0.0986
  492SOL    HW1 2609   7.316   6.256   1.186  1.2116 -1.0486 -0.0945
  492SOL    HW2 2610   7.288   6.164   1.303 -1.4714  0.4668  0.5441
  493SOL     OW 2611   8.188   6.663   3.833 -0.6905  1.1239 -0.0654
  493SOL    HW1 2612   8.153   6.590   3.885 -0.3953  0.5192 -0.7136
  493SOL    HW2 2613   8.282   6.662   3.850 -0.5201  0.5969 -1.0169
  494SOL     OW 2614   0.399   2.741   0.835  0.7736  0.8881 -0.0325
  494SOL    HW1 2615   0.435   2.682   0.901 -1.7461 -1.6016 -0.6598
  494SOL    HW2 2616   0.431   2.707   0.752  0.4024  1.2576 -0.3336
  495SOL     OW 2617   1.407   3.245   6.033 -0.6859 -0.1991 -0.2481
  495SOL    HW1 2618   1.419   3.177   6.100  1.1932 -1.4676 -1.7405
  495SOL    HW2 2619   1.333   3.215   5.981 -1.0881 -0.0878  0.2604
  496SOL     OW 2620   4.066   6.663   3.366 -0.5997  0.3432 -0.3270
  496SOL    HW1 2621   4.137   6.718   3.335  0.8863 -1.2234  0.1233
  496SOL    HW2 2622   4.053   6.689   3.457  1.0014 -0.8618  0.2926
  497SOL     OW 2623   5.527   2.574   4.284  0.1477  0.0219 -0.1999
  497SOL    HW1 2624   5.606   2.531   4.315 -0.6379 -1.5368 -0.2659
  497SOL    HW2 2625   5.488   2.613   4.363  0.5379  0.0724 -0.0315
  498SOL     OW 2626   7.318   5.455   7.426 -0.2633 -0.3560  0.1775
  498SOL    HW1 2627   7.400   5.474   7.471  1.1919  2.7175 -3.2772
  498SOL    HW2 2628   7.255   5.515   7.465  0.5934  1.1942 -0.7226
  499SOL     OW 2629   8.763   6.229   1.233 -0.3107  0.3282 -0.6948
  499SOL    HW1 2630   8.838   6.252   1.288 -1.8030  1.4501  0.9712
  499SOL    HW2 2631   8.730   6.314   1.202 -1.7412 -0.0378 -0.2165
  500SOL     OW 2632   8.360   0.764   6.469  0.2750 -0.3991  0.4574
  500SOL    HW1 2633   8.285   0.715   6.502  1.1087 -1.9354  0.1284
  500SOL    HW2 2634   8.341   0.777   6.376  0.6466 -1.2509  0.2569
  501SOL     OW 2635   2.717   1.546   3.759 -0.5535  0.5241  0.0116
  501SOL    HW1 2636   2.727   1.627   3.709 -1.0346 -0.8923 -2.5687
  501SOL    HW2 2637   2.794   1.494   3.735 -1.4734 -0.7127 -0.3548
  502SOL     OW 2638   4.606   2.431   3.437  0.3539 -0.8932 -0.1217
  502SOL    HW1 2639   4.520   2.471   3.440  0.8601  0.2457 -0.4752
  502SOL    HW2 2640   4.666   2.499   3.467  1.3133 -1.1323 -1.4279
  503SOL     OW 2641   7.072   1.062   1.493  0.1851  0.1625  0.2186
  503SOL    HW1 2642   7.071   1.008   1.414  0.1691 -1.9129  1.5687
  503SOL    HW2 2643   6.981   1.090   1.503  0.1373  0.2368 -0.3563
  504SOL     OW 2644   2.191   3.839   7.893  0.2775  1.0529  0.0257
  504SOL    HW1 2645   2.248   3.779   7.845  0.1667  0.2856  0.8329
  504SOL    HW2 2646   2.114   3.849   7.838 -0.2440 -0.5293  0.4146
  505SOL     OW 2647   5.995   2.291   3.415 -0.2388 -0.0023  0.3681
  505SOL    HW1 2648   5.963   2.341   3.490 -1.6564  1.3416 -1.0598
  505SOL    HW2 2649   5.972   2.344   3.339 -0.4926 -2.1341 -1.1358
  506SOL     OW 2650   6.169   2.011   6.481  0.4918  0.6927 -0.0106
  506SOL    HW1 2651   6.201   1.979   6.396 -1.3487 -0.0561 -0.4620
  506SOL    HW2 2652   6.167   1.933   6.537  1.2604  1.0990  0.6036
  507SOL     OW 2653   6.374   8.767   4.491  0.0345  0.2919  0.2215
  507SOL    HW1 2654   6.354   8.714   4.568 -1.1902 -0.4598 -0.5725
  507SOL    HW2 2655   6.457   8.810   4.512 -1.0772  1.4493  2.6333
  508SOL     OW 2656   2.044   6.755   4.720 -0.1931 -0.0545  0.3429
  508SOL    HW1 2657   1.993   6.815   4.774  0.2659 -0.1301  0.8733
  508SOL    HW2 2658   2.036   6.670   4.764 -0.2809 -0.2394 -0.0249
  509SOL     OW 2659   7.403   8.497   6.738  0.9165 -0.1940 -0.3381
  509SOL    HW1 2660   7.407   8.405   6.710  1.9706 -0.7649  1.5551
  509SOL    HW2 2661   7.466   8.542   6.682 -0.3126 -0.3973 -1.9518
  510SOL     OW 2662   8.066   1.448   4.451  0.1793 -0.1925  0.1973
  510SOL    HW1 2663   8.119   1.410   4.521 -0.4321 -1.1661  0.1543
  510SOL    HW2 2664   7.983   1.472   4.493  0.3308  0.5444  0.0929
  511SOL     OW 2665   8.145   1.206   8.173  0.1990 -0.0777 -0.1542
  511SOL    HW1 2666   8.163   1.269   8.103 -0.5516  0.4624  0.1281
  511SOL    HW2 2667   8.210   1.136   8.159  1.2291  0.8725 -0.3071
  512SOL     OW 2668   7.506   4.933   5.876 -0.1861  0.2178 -0.6670
  512SOL    HW1 2669   7.593   4.971   5.888 -0.1797  0.4752 -1.4239
  512SOL    HW2 2670   7.498   4.866   5.944  0.9690 -0.4469 -1.1618
  513SOL     OW 2671   7.838   1.026   3.993  0.3388 -0.6518  0.3365
  513SOL    HW1 2672   7.787   1.073   4.059  1.2762  0.4394  0.3159
  513SOL    HW2 2673   7.773   0.994   3.930 -0.4442 -0.6091  1.1163
  514SOL     OW 2674   0.395   0.527   8.486  0.5354 -0.4441 -0.3501
  514SOL    HW1 2675   0.378   0.433   8.493 -1.1211 -0.1745 -0.1222
  514SOL    HW2 2676   0.429   0.552   8.572  1.7528 -0.9642 -0.6734
  515SOL     OW 2677   7.628   0.372   4.023 -0.3688  0.7552 -0.0412
  515SOL    HW1 2678   7.720   0.397   4.016 -0.4927  1.2721  0.1532
  515SOL    HW2 2679   7.625   0.284   3.985  0.5200 -0.0024  1.5450
  516SOL     OW 2680   5.184   8.795   1.244  0.1329 -0.1509 -0.0878
  516SOL    HW1 2681   5.169   8.713   1.199 -0.4282  0.3630 -0.8474
  516SOL    HW2 2682   5.275   8.819   1.223 -0.5881  0.8725 -2.2820
  517SOL     OW 2683   8.892   6.811   3.464  0.0277 -0.1921  0.0384
  517SOL    HW1 2684   8.851   6.897   3.451 -0.6739 -0.4767  0.3655
  517SOL    HW2 2685   8.820   6.752   3.484  0.2530 -1.2937 -2.1218
  518SOL     OW 2686   8.070   1.817   8.014 -0.0824  0.3004  0.2719
  518SOL    HW1 2687   8.120   1.745   8.051  0.7184 -0.0167 -1.3556
  518SOL    HW2 2688   8.135   1.869   7.967 -0.8937  1.2813  0.2106
  519SOL     OW 2689   0.255   5.348   2.668 -0.4976  0.3589 -0.1531
  519SOL    HW1 2690   0.327   5.390   2.715 -1.7902  0.6109  1.7216
  519SOL    HW2 2691   0.197   5.316   2.738 -0.5811 -2.7893 -1.5185
  520SOL     OW 2692   2.477   3.114   4.364 -0.0650 -0.0201  0.2190
  520SOL    HW1 2693   2.545   3.178   4.346 -0.4523  0.5372  0.7178
  520SOL    HW2 2694   2.517   3.052   4.425 -0.2101  0.6849  1.0425
  521SOL     OW 2695   5.571   8.934   5.646 -0.7220 -0.1616 -0.0392
  521SOL    HW1 2696   5.551   8.967   5.734 -3.5324  1.4524 -1.1247
  521SOL    HW2 2697   5.615   9.007   5.602  0.5585 -0.9155 -0.0710
  522SOL     OW 2698   3.507   4.714   6.527 -0.0153  0.1492 -0.1886
  522SOL    HW1 2699   3.455   4.686   6.602  0.0902 -0.3018 -0.2793
  522SOL    HW2 2700   3.583   4.656   6.527 -1.7274 -2.3555 -2.6977
  523SOL     OW 2701   1.337   2.252   4.210  0.1755  0.0622 -0.2037
  523SOL    HW1 2702   1.353   2.190   4.139  2.2199 -0.1323  0.3822
  523SOL    HW2 2703   1.241   2.253   4.219  0.0219 -2.1841 -0.9381
  524SOL     OW 2704   4.988   8.349   7.721  0.2851  0.3466 -0.4975
  524SOL    HW1 2705   5.012   8.421   7.662  0.6265  1.8608  1.3807
  524SOL    HW2 2706   4.893   8.358   7.732  0.1517 -0.2082 -1.1162
  525SOL     OW 2707   7.818   0.762   5.167  0.1609  0.3189 -0.2405
  525SOL    HW1 2708   7.827   0.822   5.241 -1.2712 -1.0787  1.1296
  525SOL    HW2 2709   7.753   0.698   5.195 -0.0524 -0.5652 -2.5293
  526SOL     OW 2710   8.758   6.141   3.784  0.5328  0.8209 -0.2272
  526SOL    HW1 2711   8.675   6.094   3.787  0.1058  1.4833 -1.0937
  526SOL    HW2 2712   8.773   6.157   3.691  1.9801  0.1214 -0.1328
  527SOL     OW 2713   5.636   7.294   1.569  0.1654 -0.4888 -0.3886
  527SOL    HW1 2714   5.588   7.222   1.610 -1.7102  1.0870  0.3852
  527SOL    HW2 2715   5.687   7.333   1.639 -0.2315  0.0148 -0.3727
  528SOL     OW 2716   8.080   7.054   4.569  0.3664  0.0354 -0.3020
  528SOL    HW1 2717   8.036   7.028   4.488 -0.4638 -0.6994  0.3782
  528SOL    HW2 2718   8.037   7.003   4.637  0.4415  1.3210  0.7299
  529SOL     OW 2719   7.409   8.513   4.281  0.7956 -0.3687 -0.4101
  529SOL    HW1 2720   7.444   8.424   4.275 -0.1926 -0.8732  0.7452
  529SOL    HW2 2721   7.486   8.567   4.302  1.3513 -0.9961 -0.7709
  530SOL     OW 2722   8.413   0.661   5.926  0.0089 -0.0481  0.0827
  530SOL    HW1 2723   8.490   0.717   5.920  0.4324 -0.7503 -1.3598
  530SOL    HW2 2724   8.448   0.572   5.928 -0.7593 -0.3894 -0.9817
  531SOL     OW 2725   4.874   8.232   8.324 -0.5344 -0.2186 -0.0395
  531SOL    HW1 2726   4.883   8.279   8.241 -1.1410 -0.8923 -0.4999
  531SOL    HW2 2727   4.964   8.218   8.353 -0.2896 -0.5253 -0.9047
  532SOL     OW 2728   6.283   5.739   6.977  0.6493 -0.4684  0.4231
  532SOL    HW1 2729   6.308   5.744   7.069  0.1447 -2.5233  0.7285
  532SOL    HW2 2730   6.231   5.659   6.971 -0.6936  0.4805 -1.3568
  533SOL     OW 2731   0.787   0.735   4.611 -0.2920 -0.1946  0.1768
  533SOL    HW1 2732   0.788   0.653   4.661  0.0947 -0.0427  0.4213
  533SOL    HW2 2733   0.798   0.803   4.677  0.2278  0.0086 -0.1131
  534SOL     OW 2734   6.815   3.399   0.446 -0.1081  0.2923 -0.1678
  534SOL    HW1 2735   6.900   3.442   0.451  0.5865 -0.9357 -0.9159
  534SOL    HW2 2736   6.816   3.335   0.518 -0.7697  0.8612  0.3716
  535SOL     OW 2737   1.966   7.870   4.947  0.4196  0.0661  0.1225
  535SOL    HW1 2738   2.041   7.863   5.006 -0.0175 -0.2755  0.6469
  535SOL    HW2 2739   1.893   7.892   5.004  0.3133  1.4812 -0.5209
  536SOL     OW 2740   6.920   0.473   7.969 -0.1295 -0.5184  0.4645
  536SOL    HW1 2741   6.873   0.543   8.014  1.1131 -0.1039  1.1528
  536SOL    HW2 2742   7.000   0.461   8.019  0.5420 -1.1761 -0.7151
  537SOL     OW 2743   0.671   3.424   7.996  0.2740  0.0761 -0.2064
  537SOL    HW1 2744   0.730   3.364   7.950  1.7639  1.3016 -0.0067
  537SOL    HW2 2745   0.584   3.400   7.966  0.5630 -3.3766  1.2440
  538SOL     OW 2746   4.182   6.944   8.374 -0.3150  0.4130 -0.4657
  538SOL    HW1 2747   4.257   7.000   8.396  1.1033 -0.9890 -1.4300
  538SOL    HW2 2748   4.199   6.916   8.284 -3.6208  2.4290 -1.8885
  539SOL     OW 2749   8.497   0.107   6.499  0.4923  0.7793 -0.2197
  539SOL    HW1 2750   8.412   0.150   6.507 -0.6740 -1.1557 -1.4104
  539SOL    HW2 2751   8.536   0.144   6.420 -0.2159  0.1563 -0.8727
  540SOL     OW 2752   3.436   4.535   4.374  0.1575  0.2833 -0.1744
  540SOL    HW1 2753   3.370   4.604   4.362  0.4009  0.8645  1.5363
  540SOL    HW2 2754   3.512   4.565   4.326  0.5250  1.6224  1.1954
  541SOL     OW 2755   8.020   6.997   5.559  0.3312 -0.4832 -0.1043
  541SOL    HW1 2756   8.042   7.067   5.620 -1.7246 -0.4787  0.7494
  541SOL    HW2 2757   8.080   7.007   5.486  2.5452 -0.1581  1.6738
  542SOL     OW 2758   0.558   2.678   5.312  0.3635  0.1739 -0.5665
  542SOL    HW1 2759   0.618   2.617   5.354 -0.2323 -0.0746 -0.0448
  542SOL    HW2 2760   0.598   2.764   5.324 -0.4743  0.3019  1.8599
  543SOL     OW 2761   3.924   2.017   5.338 -0.4809  0.5005 -0.3841
  543SOL    HW1 2762   3.831   2.027   5.318 -0.7355  1.7618  1.2478
  543SOL    HW2 2763   3.928   2.007   5.433  0.8893 -2.1800 -0.6365
  544SOL     OW 2764   1.649   6.485   8.660  0.1041  0.0196  0.2628
  544SOL    HW1 2765   1.732   6.530   8.646 -0.3170  1.1175  1.1642
  544SOL    HW2 2766   1.595   6.548   8.707 -0.8700 -1.0655  0.6426
  545SOL     OW 2767   0.920   8.649   5.813  0.0790 -0.3292  0.6669
  545SOL    HW1 2768   0.960   8.654   5.726 -0.1166  1.6450  0.6460
  545SOL    HW2 2769   0.889   8.738   5.830  1.1646 -0.3816  3.2690
  546SOL     OW 2770   4.821   6.271   2.306 -0.0797  0.4363  0.0151
  546SOL    HW1 2771   4.766   6.301   2.377  2.6738 -1.8972  3.4824
  546SOL    HW2 2772   4.799   6.179   2.295 -0.3595  0.6992 -2.2292
  547SOL     OW 2773   3.519   8.031   6.592  0.2351 -0.1004  0.7858
  547SOL    HW1 2774   3.496   8.014   6.501  0.6131  2.5968  0.0880
  547SOL    HW2 2775   3.590   7.970   6.611 -1.9802 -3.0233  0.4383
  548SOL     OW 2776   3.730   8.958   2.072  0.4756 -0.2070 -0.0126
  548SOL    HW1 2777   3.781   8.930   2.148  2.0791  0.7852 -0.6588
  548SOL    HW2 2778   3.671   8.885   2.054 -1.3340  0.2275  3.2655
  549SOL     OW 2779   8.020   6.803   0.233  0.2745 -0.0933 -0.0060
  549SOL    HW1 2780   8.045   6.866   0.165  1.1492 -0.7515 -0.3080
  549SOL    HW2 2781   8.095   6.799   0.291  0.9615 -2.1327 -0.9576
  550SOL     OW 2782   5.154   6.591   4.604  0.1574  0.2691  0.0363
  550SOL    HW1 2783   5.215   6.588   4.530  1.3770  0.5978  0.9834
  550SOL    HW2 2784   5.206   6.560   4.678 -0.4163  1.8820  1.1530
  551SOL     OW 2785   4.214   1.110   6.272 -0.5386 -0.4070 -0.4443
  551SOL    HW1 2786   4.254   1.102   6.358  1.9458  0.2262 -1.4511
  551SOL    HW2 2787   4.140   1.049   6.274 -0.5262 -0.4422  2.0754
  552SOL     OW 2788   4.942   7.454   8.594  0.6264  0.3475 -0.0602
  552SOL    HW1 2789   4.940   7.508   8.673  0.8027 -1.4445  1.2307
  552SOL    HW2 2790   4.875   7.387   8.609  1.8288 -1.0486 -0.6337
  553SOL     OW 2791   1.543   6.922   2.229 -0.4271  0.3827  0.0461
  553SOL    HW1 2792   1.482   6.996   2.226  0.5239  1.1567 -0.9390
  553SOL    HW2 2793   1.564   6.912   2.322  0.6349  2.3917  0.0786
  554SOL     OW 2794   3.376   5.236   5.596 -0.2430 -0.3117  0.0640
  554SOL    HW1 2795   3.405   5.145   5.585  2.1265  0.3917  0.0509
  554SOL    HW2 2796   3.303   5.230   5.657 -1.6896 -2.4421 -1.6948
  555SOL     OW 2797   0.524   1.355   4.447 -0.2323  0.1806 -0.2186
  555SOL    HW1 2798   0.496   1.366   4.356  0.3449  0.2597 -0.3953
  555SOL    HW2 2799   0.529   1.261   4.459 -0.9977  0.1575 -0.0455
  556SOL     OW 2800   4.658   3.316   7.351 -0.0128  1.1064 -0.1159
  556SOL    HW1 2801   4.740   3.271   7.372  0.9878  1.8959 -2.0017
  556SOL    HW2 2802   4.638   3.288   7.262 -1.5736  1.2673  0.1680
  557SOL     OW 2803   6.045   9.010   0.616 -0.2395  0.6592 -0.0815
  557SOL    HW1 2804   6.000   9.070   0.557 -1.0823  0.5966  0.4861
  557SOL    HW2 2805   5.983   8.939   0.630  0.7850 -0.4355 -0.8478
  558SOL     OW 2806   6.330   4.855   8.129  0.4255 -0.3340  0.6676
  558SOL    HW1 2807   6.325   4.845   8.034  0.4923  3.4915  0.0813
  558SOL    HW2 2808   6.240   4.870   8.156  0.6930  1.9188  0.5643
  559SOL     OW 2809   1.268   1.156   5.575  0.3080 -0.4013 -0.6520
  559SOL    HW1 2810   1.208   1.097   5.528 -0.0663 -0.7608  0.2571
  559SOL    HW2 2811   1.271   1.121   5.664 -0.1730  1.1448  0.0006
  560SOL     OW 2812   7.888   5.135   3.641 -0.3506  0.1535 -0.0069
  560SOL    HW1 2813   7.967   5.104   3.596 -0.7540 -1.7771  0.5006
  560SOL    HW2 2814   7.918   5.211   3.692  1.0393 -0.1405 -0.3294
  561SOL     OW 2815   6.543   7.504   1.164 -0.4433 -0.1812 -0.4946
  561SOL    HW1 2816   6.448   7.508   1.174 -0.5932 -1.6653 -1.0703
  561SOL    HW2 2817   6.576   7.485   1.251 -0.8473 -1.6642 -0.6470
  562SOL     OW 2818   0.181   6.859   8.141  0.4008  0.2617 -0.1737
  562SOL    HW1 2819   0.200   6.953   8.143 -2.9591  1.0436  0.2111
  562SOL    HW2 2820   0.167   6.839   8.048  1.9125 -0.0973 -0.3485
  563SOL     OW 2821   4.476   7.883   2.811 -0.4580 -0.3131  0.0307
  563SOL    HW1 2822   4.382   7.900   2.809 -0.3813  0.0224 -1.8248
  563SOL    HW2 2823   4.489   7.810   2.750  0.4024 -0.8481  0.8211
  564SOL     OW 2824   2.995   1.499   7.080  0.2315  0.3028  0.0066
  564SOL    HW1 2825   2.972   1.536   6.995 -0.1502  2.3933  0.9329
  564SOL    HW2 2826   2.989   1.405   7.068 -0.3514  0.5547 -2.1231
  565SOL     OW 2827   3.093   0.966   4.519  0.4449 -0.8714 -0.3152
  565SOL    HW1 2828   3.131   1.053   4.504  1.0606 -0.7594  1.5259
  565SOL    HW2 2829   3.163   0.918   4.563  1.0594 -3.2118 -3.5410
  566SOL     OW 2830   4.995   4.973   5.037 -0.0877 -0.5579  0.3020
  566SOL    HW1 2831   4.965   5.055   4.997  4.3246  0.3784 -1.7205
  566SOL    HW2 2832   5.008   4.995   5.129  1.1008  1.1821 -0.2118
  567SOL     OW 2833   3.216   4.604   5.462  0.1077  0.1852 -0.3837
  567SOL    HW1 2834   3.311   4.595   5.456  0.2749  1.3372  0.2207
  567SOL    HW2 2835   3.182   4.545   5.396  1.2236 -0.7094 -0.1913
  568SOL     OW 2836   0.795   6.015   6.724  0.3230  0.5049 -0.2787
  568SOL    HW1 2837   0.874   5.963   6.709 -1.2343 -2.4163  0.8058
  568SOL    HW2 2838   0.779   6.060   6.640  2.3167  0.0455 -0.9556
  569SOL     OW 2839   6.303   3.241   6.414  0.1912 -0.3334 -0.2171
  569SOL    HW1 2840   6.290   3.146   6.410  0.0841 -0.2961 -1.0115
  569SOL    HW2 2841   6.352   3.261   6.334  1.3042  0.1206  0.5606
  570SOL     OW 2842   2.532   0.035   2.464 -0.4093 -0.5942 -0.0651
  570SOL    HW1 2843   2.476   0.031   2.541 -0.2974 -1.2243 -0.0137
  570SOL    HW2 2844   2.575   0.121   2.470 -0.3866 -0.6471  0.5766
  571SOL     OW 2845   2.960   1.859   5.371  0.5099 -0.5470  0.2202
  571SOL    HW1 2846   2.905   1.928   5.410  1.8821  2.1792 -2.2429
  571SOL    HW2 2847   3.004   1.819   5.445 -0.9352  0.6827  1.8502
  572SOL     OW 2848   1.502   4.892   6.493 -0.1316  0.2793  0.0630
  572SOL    HW1 2849   1.550   4.827   6.441 -0.2080  0.0323  0.2973
  572SOL    HW2 2850   1.434   4.925   6.434 -0.7463 -0.6030  0.2611
  573SOL     OW 2851   4.600   2.984   1.387  0.2478 -0.0096  0.0035
  573SOL    HW1 2852   4.688   2.960   1.357 -0.5772 -2.6848 -0.5213
  573SOL    HW2 2853   4.614   3.063   1.439  3.2918 -1.3563  1.5535
  574SOL     OW 2854   4.587   2.314   8.042 -0.2587 -0.4444  0.2533
  574SOL    HW1 2855   4.581   2.251   7.970  3.6604  0.6187 -1.2814
  574SOL    HW2 2856   4.668   2.291   8.087 -0.6657  1.2487  1.9584
  575SOL     OW 2857   2.974   3.574   0.785 -0.0378 -0.1563 -0.2630
  575SOL    HW1 2858   2.930   3.522   0.852  1.0974 -0.2347  0.4555
  575SOL    HW2 2859   2.907   3.591   0.720 -0.9789 -0.7256  0.5257
  576SOL     OW 2860   5.759   2.825   8.167  0.0035  0.2545  0.5416
  576SOL    HW1 2861   5.826   2.819   8.235 -0.6456 -0.8708  1.1107
  576SOL    HW2 2862   5.808   2.839   8.086  0.7744  1.8573  1.2495
  577SOL     OW 2863   7.458   8.413   7.717 -0.0152 -0.0524 -0.6647
  577SOL    HW1 2864   7.456   8.509   7.727 -0.2740 -0.1470  0.2644
  577SOL    HW2 2865   7.370   8.390   7.688 -0.3245 -0.1195  0.2923
  578SOL     OW 2866   4.114   1.466   0.938  0.2761 -0.2980  0.0193
  578SOL    HW1 2867   4.125   1.378   0.975 -0.1894 -0.5027 -0.3279
  578SOL    HW2 2868   4.020   1.481   0.938  0.2998 -0.1050 -0.6290
  579SOL     OW 2869   3.702   5.662   7.994  0.0754 -0.4776 -0.2667
  579SOL    HW1 2870   3.677   5.754   7.986  0.1807 -0.5316 -1.5601
  579SOL    HW2 2871   3.775   5.662   8.056 -0.5528  0.1779  0.4916
  580SOL     OW 2872   3.718   5.884   7.078 -0.0403 -0.6025 -0.2236
  580SOL    HW1 2873   3.677   5.798   7.063 -0.4989 -0.3759 -0.2768
  580SOL    HW2 2874   3.771   5.871   7.157 -1.4323 -0.4992  0.7680
  581SOL     OW 2875   2.435   3.763   6.162  0.4960  0.4502  0.1761
  581SOL    HW1 2876   2.352   3.774   6.208  0.0813 -2.4305  0.2943
  581SOL    HW2 2877   2.410   3.732   6.075  1.4347  0.5328 -0.1367
  582SOL     OW 2878   4.883   4.719   2.107 -0.5617  0.2812  0.0951
  582SOL    HW1 2879   4.918   4.713   2.196 -0.2886  1.3151  0.0695
  582SOL    HW2 2880   4.917   4.642   2.063 -2.0219 -1.1411  1.3182
  583SOL     OW 2881   5.485   8.425   3.572 -0.3121  0.5170 -0.2188
  583SOL    HW1 2882   5.480   8.487   3.645 -0.7268 -0.2008  0.3970
  583SOL    HW2 2883   5.535   8.469   3.504  0.8015  0.9027  0.8235
  584SOL     OW 2884   4.326   3.275   1.635 -0.2687 -0.2975  0.2357
  584SOL    HW1 2885   4.243   3.298   1.593 -1.0290 -1.0050  1.2774
  584SOL    HW2 2886   4.300   3.236   1.719  1.1462  0.0726  0.8842
  585SOL     OW 2887   4.898   5.797   0.007  0.2481  0.3026  0.0764
  585SOL    HW1 2888   4.875   5.717  -0.041  0.4071 -0.4393  1.2065
  585SOL    HW2 2889   4.827   5.807   0.070  1.7234 -0.6715  1.9871
  586SOL     OW 2890   7.029   6.103   5.414  0.4029  0.1211 -0.3626
  586SOL    HW1 2891   6.947   6.106   5.463  0.2340 -0.5428 -0.5860
  586SOL    HW2 2892   7.069   6.020   5.439  0.9894  0.4224 -0.2883
  587SOL     OW 2893   7.375   4.769   3.211  0.7051  1.0462 -0.0235
  587SOL    HW1 2894   7.295   4.822   3.206 -0.6837 -0.8470  0.7747
  587SOL    HW2 2895   7.365   4.704   3.142  1.3383  0.5206  0.3665
  588SOL     OW 2896   5.415   7.096   8.039 -0.0404  0.6192 -0.1059
  588SOL    HW1 2897   5.499   7.056   8.059  0.5796  0.9892 -1.8099
  588SOL    HW2 2898   5.427   7.189   8.060 -0.3007  0.5322  0.4373
  589SOL     OW 2899   2.578   2.114   7.888 -0.2760  0.4970  0.2113
  589SOL    HW1 2900   2.490   2.078   7.876  0.1377 -0.6992  0.5845
  589SOL    HW2 2901   2.565   2.194   7.938 -1.1028 -0.0066  0.8285
  590SOL     OW 2902   7.747   1.047   4.878  0.0122 -0.2148  0.7246
  590SOL    HW1 2903   7.834   1.021   4.909  0.4359  0.5170  0.1865
  590SOL    HW2 2904   7.691   1.044   4.956  1.0637  1.6723  1.6333
  591SOL     OW 2905   4.326   3.169   0.545  0.1553  0.3471  0.3925
  591SOL    HW1 2906   4.337   3.246   0.489 -0.0949  0.4380  0.4667
  591SOL    HW2 2907   4.357   3.198   0.631  0.4994  0.2207  0.3110
  592SOL     OW 2908   6.390   4.731   4.006 -0.6349 -0.1477 -0.1198
  592SOL    HW1 2909   6.421   4.761   3.920  0.4519 -1.9194 -0.3762
  592SOL    HW2 2910   6.453   4.768   4.068  0.9182 -2.0937 -0.4673
  593SOL     OW 2911   1.553   1.151   5.509 -0.4774 -0.3406  0.8664
  593SOL    HW1 2912   1.463   1.181   5.522 -0.7667 -0.9087  0.2128
  593SOL    HW2 2913   1.548   1.056   5.513 -0.4507 -0.5764 -2.1722
  594SOL     OW 2914   0.105   8.516   8.750  0.3909  0.7175 -0.2082
  594SOL    HW1 2915   0.024   8.546   8.709 -0.7167 -0.3430  1.0885
  594SOL    HW2 2916   0.085   8.427   8.779  1.6422  0.8398  1.1524
  595SOL     OW 2917   3.481   5.626   7.713 -0.2448 -0.2040 -0.6898
  595SOL    HW1 2918   3.576   5.636   7.712 -0.0866  0.0898  2.8903
  595SOL    HW2 2919   3.467   5.540   7.753 -1.4516  0.2208 -0.1660
  596SOL     OW 2920   2.399   7.243   8.730  0.3184 -0.0590 -0.1458
  596SOL    HW1 2921   2.447   7.229   8.812  1.7695 -2.9368 -1.3738
  596SOL    HW2 2922   2.438   7.322   8.693  1.9273 -0.5562  0.4036
  597SOL     OW 2923   3.689   0.205   5.412 -0.3216  0.0551  0.4466
  597SOL    HW1 2924   3.601   0.187   5.444  0.8017 -0.5272  3.4801
  597SOL    HW2 2925   3.725   0.119   5.391 -0.6053  0.3347 -1.3770
  598SOL     OW 2926   2.073   6.438   4.510 -0.0420 -0.3801  0.1947
  598SOL    HW1 2927   1.981   6.413   4.499 -0.2229  0.7397 -1.1519
  598SOL    HW2 2928   2.095   6.408   4.598 -1.0909 -2.4412 -0.1709
  599SOL     OW 2929   3.849   8.803   8.941 -0.6040  0.0689  0.0670
  599SOL    HW1 2930   3.793   8.859   8.887 -2.2300 -0.1637  1.4144
  599SOL    HW2 2931   3.798   8.788   9.021 -0.3590 -3.4645 -0.2745
  600SOL     OW 2932   1.711   0.964   6.102  0.8449  0.0195 -0.0069
  600SOL    HW1 2933   1.723   0.916   6.184  0.3684  1.6707  1.0739
  600SOL    HW2 2934   1.774   0.924   6.042 -0.4302 -2.8440  0.3706
  601SOL     OW 2935   5.757   3.707   6.059 -0.2657 -0.1184  0.3451
  601SOL    HW1 2936   5.800   3.761   6.126  0.1727 -1.3594  1.0962
  601SOL    HW2 2937   5.798   3.621   6.068 -0.5892 -0.4507 -1.1773
  602SOL     OW 2938   4.827   7.150   4.786 -0.3305 -0.3747 -0.0131
  602SOL    HW1 2939   4.837   7.244   4.772  0.8721 -0.7590 -2.2765
  602SOL    HW2 2940   4.849   7.136   4.878  2.4686  1.2131 -0.3496
  603SOL     OW 2941   1.998   6.967   4.892 -0.2311 -0.3375 -0.3770
  603SOL    HW1 2942   2.010   7.051   4.849  1.0620 -0.8876 -1.1499
  603SOL    HW2 2943   1.931   6.983   4.959  2.4915  2.2792  2.0378
  604SOL     OW 2944   1.499   0.389   5.030 -0.3116  0.0097 -0.0927
  604SOL    HW1 2945   1.450   0.348   5.101  0.3902 -0.3724  0.1768
  604SOL    HW2 2946   1.568   0.327   5.009 -1.3293 -0.5280 -2.0886
  605SOL     OW 2947   6.854   7.948   1.409 -0.0908  0.2642 -0.1498
  605SOL    HW1 2948   6.894   8.003   1.476 -0.1049 -1.6095  1.4744
  605SOL    HW2 2949   6.765   7.932   1.440 -0.8164  1.0527 -1.6977
  606SOL     OW 2950   3.141   3.379   4.532  0.5312  0.0506 -0.0655
  606SOL    HW1 2951   3.066   3.413   4.581  1.5131  0.3736  1.2976
  606SOL    HW2 2952   3.134   3.284   4.541  0.7342  0.1073  0.8078
  607SOL     OW 2953   8.865   0.478   4.912  0.3845  0.6225  0.0032
  607SOL    HW1 2954   8.946   0.456   4.959 -0.1828  0.0051  0.7276
  607SOL    HW2 2955   8.816   0.533   4.973  0.3985  1.2891 -0.5716
  608SOL     OW 2956   5.830   7.089   0.949 -0.1765  0.4117  0.1469
  608SOL    HW1 2957   5.739   7.078   0.922  0.3331  1.6565 -2.4122
  608SOL    HW2 2958   5.877   7.016   0.909  0.2105  0.8212 -0.1679
  609SOL     OW 2959   0.836   4.055   2.234 -0.4933  0.2235  0.1293
  609SOL    HW1 2960   0.782   3.991   2.281 -1.1335 -0.6806 -1.7266
  609SOL    HW2 2961   0.882   4.103   2.303 -2.9463  0.4096  1.7557
  610SOL     OW 2962   3.868   8.220   3.943 -0.0140 -0.0744  0.1764
  610SOL    HW1 2963   3.902   8.174   3.866 -0.5497 -0.1884  0.0002
  610SOL    HW2 2964   3.915   8.303   3.943 -0.6294  0.3032 -0.7996
  611SOL     OW 2965   6.888   8.662   7.896  0.2448  0.4155  0.1497
  611SOL    HW1 2966   6.922   8.749   7.916 -1.0926  1.2770 -1.1200
  611SOL    HW2 2967   6.834   8.639   7.973  1.1921  0.3650  0.8126
  612SOL     OW 2968   4.386   1.540   8.729  0.2008  0.1033  0.3091
  612SOL    HW1 2969   4.370   1.615   8.671  0.5120  0.6775  0.9499
  612SOL    HW2 2970   4.427   1.578   8.807 -1.4199 -0.4500  1.4959
  613SOL     OW 2971   5.229   9.026   4.171 -1.0313  0.1958  0.1337
  613SOL    HW1 2972   5.270   9.031   4.085  0.2854 -0.5338  0.6976
  613SOL    HW2 2973   5.173   8.948   4.167 -1.8670  0.7999 -0.4057
  614SOL     OW 2974   6.727   4.610   6.265 -0.5076  0.1200 -0.0517
  614SOL    HW1 2975   6.751   4.530   6.219 -0.2009 -0.6791  1.4235
  614SOL    HW2 2976   6.681   4.663   6.199  0.4586 -0.6737 -1.4151
  615SOL     OW 2977   8.817   2.172   0.994 -0.1786 -0.1814  0.6241
  615SOL    HW1 2978   8.847   2.246   0.943  1.4883 -0.9179  0.4774
  615SOL    HW2 2979   8.738   2.142   0.948 -0.8239  1.3907  0.6379
  616SOL     OW 2980   0.641   9.066   2.205 -0.3551  0.1785  0.3848
  616SOL    HW1 2981   0.597   9.141   2.164 -1.1576  0.1512  1.1438
  616SOL    HW2 2982   0.734   9.080   2.188 -0.6308  0.4053 -1.0043
  617SOL     OW 2983   7.214   8.378   8.490 -0.1112 -0.3428  0.4198
  617SOL    HW1 2984   7.140   8.319   8.473 -2.1591  2.7066 -2.7675
  617SOL    HW2 2985   7.277   8.356   8.422 -1.5392  1.8054 -1.7961
  618SOL     OW 2986   5.655   0.483   7.935  0.2354  0.2069 -0.4438
  618SOL    HW1 2987   5.587   0.454   7.997  0.4642  0.2443 -0.1770
  618SOL    HW2 2988   5.689   0.564   7.972  0.5958  0.0627 -0.4537
  619SOL     OW 2989   3.801   0.858   2.998 -0.4172 -0.0809 -0.4570
  619SOL    HW1 2990   3.819   0.903   3.080 -1.1517 -0.6114  0.0135
  619SOL    HW2 2991   3.886   0.829   2.967 -0.2668 -1.3138  0.9719
  620SOL     OW 2992   2.520   5.876   3.249 -0.0065 -0.2564  0.1157
  620SOL    HW1 2993   2.499   5.965   3.279  0.7344 -0.1842  0.4306
  620SOL    HW2 2994   2.465   5.864   3.172 -1.7975 -0.3689  1.3424
  621SOL     OW 2995   8.192   1.949   8.398 -0.0084  0.3619 -0.2043
  621SOL    HW1 2996   8.253   1.920   8.331 -0.4120 -0.0604 -0.3905
  621SOL    HW2 2997   8.111   1.968   8.351 -0.8924 -1.7393  0.3689
  622SOL     OW 2998   8.419   7.562   3.055  0.1741  0.0692  0.1276
  622SOL    HW1 2999   8.361   7.545   2.981  0.4602  0.2354 -0.1388
  622SOL    HW2 3000   8.459   7.477   3.074  2.3805  0.5396 -1.8570
  623SOL     OW 3001   8.277   3.626   1.720  0.0081 -0.1436  0.0576
  623SOL    HW1 3002   8.296   3.541   1.759 -1.5941 -0.9840 -0.8835
  623SOL    HW2 3003   8.237   3.676   1.790  0.1206 -0.4885  0.3735
  624SOL     OW 3004   6.475   1.438   8.651 -0.3183 -0.5344  0.2037
  624SOL    HW1 3005   6.522   1.441   8.735 -0.4535  3.3611  0.2975
  624SOL    HW2 3006   6.383   1.443   8.675 -0.4750 -1.4679 -0.1672
  625SOL     OW 3007   8.469   2.005   7.050 -0.0135  0.2549  0.1038
  625SOL    HW1 3008   8.378   1.980   7.031  0.0621  0.8091 -1.0849
  625SOL    HW2 3009   8.519   1.924   7.042 -0.2842  0.1075 -0.1170
  626SOL     OW 3010   1.377   7.588   3.866  0.0430 -0.6363 -0.0511
  626SOL    HW1 3011   1.315   7.626   3.929  1.2451  1.6493 -0.1484
  626SOL    HW2 3012   1.380   7.651   3.795  1.3079 -1.4942 -0.7879
  627SOL     OW 3013   1.749   1.682   4.456 -0.0625 -0.1814 -0.8301
  627SOL    HW1 3014   1.800   1.750   4.411  1.1179 -0.4480  0.0251
  627SOL    HW2 3015   1.705   1.729   4.527  0.8331 -0.2986 -0.1767
  628SOL     OW 3016   3.404   7.010   3.699 -0.1182  0.0710  0.0146
  628SOL    HW1 3017   3.373   6.925   3.667  0.5406 -0.1988  0.0634
  628SOL    HW2 3018   3.327   7.067   3.696 -0.0192  0.1827 -2.4526
  629SOL     OW 3019   1.076   6.147   3.347  0.0374  0.2040 -0.3873
  629SOL    HW1 3020   1.128   6.146   3.427 -0.7723  1.0056  0.1681
  629SOL    HW2 3021   1.135   6.179   3.280  0.5776  0.0212 -0.0064
  630SOL     OW 3022   2.410   4.769   0.708  0.0950 -0.6300 -0.6853
  630SOL    HW1 3023   2.391   4.681   0.741  0.4088 -0.2475  0.5745
  630SOL    HW2 3024   2.358   4.776   0.628 -0.1812 -1.8440 -0.6344
  631SOL     OW 3025   4.900   6.053   4.791 -0.3209  0.5002 -0.2546
  631SOL    HW1 3026   4.978   6.000   4.776 -1.0167 -0.1811 -1.6693
  631SOL    HW2 3027   4.934   6.138   4.818  0.8369 -0.3751  1.2037
  632SOL     OW 3028   4.535   3.658   0.312  0.3175 -0.1318 -0.0881
  632SOL    HW1 3029   4.535   3.725   0.380  0.9860  0.1266 -0.3372
  632SOL    HW2 3030   4.612   3.604   0.331  1.0394  0.4942 -1.1616
  633SOL     OW 3031   7.459   0.186   8.539  0.1438  0.6965  0.4402
  633SOL    HW1 3032   7.370   0.172   8.508 -0.3037 -1.3773  2.3995
  633SOL    HW2 3033   7.450   0.251   8.609  0.3663  1.3310 -0.1080
  634SOL     OW 3034   8.156   2.546   2.764 -0.0323  0.5118 -0.0962
  634SOL    HW1 3035   8.224   2.533   2.830  1.5741  1.3893 -1.5088
  634SOL    HW2 3036   8.189   2.499   2.687 -2.4207 -1.5340 -0.0209
  635SOL     OW 3037   2.814   3.953   8.341 -0.0992  0.1768  0.2613
  635SOL    HW1 3038   2.760   4.020   8.299  0.4674  1.0405  0.8739
  635SOL    HW2 3039   2.862   3.912   8.268  0.5112  1.3224 -0.0080
  636SOL     OW 3040   0.365   5.137   6.996  0.0014 -0.0540  0.3440
  636SOL    HW1 3041   0.377   5.207   6.932 -0.3048 -0.4216 -0.1241
  636SOL    HW2 3042   0.454   5.115   7.025  0.2530 -0.7195 -0.8749
  637SOL     OW 3043   3.863   7.386   8.079 -0.6072 -0.0902  0.0630
  637SOL    HW1 3044   3.857   7.464   8.134 -0.6897  0.1166 -0.2346
  637SOL    HW2 3045   3.831   7.315   8.134 -0.3894  0.0628  0.3872
  638SOL     OW 3046   8.784   7.908   4.805 -0.1620  0.2024  0.1394
  638SOL    HW1 3047   8.778   7.953   4.889 -1.2329  0.8480 -0.2626
  638SOL    HW2 3048   8.742   7.968   4.743 -0.6479 -0.8796 -0.6055
  639SOL     OW 3049   8.335   3.807   7.092  0.1423 -0.3994 -0.5972
  639SOL    HW1 3050   8.280   3.783   7.017 -0.7084 -0.0711 -0.0870
  639SOL    HW2 3051   8.371   3.724   7.123 -1.1266 -0.8026 -0.1275
  640SOL     OW 3052   4.762   0.659   4.722  0.3833 -0.2926 -0.0235
  640SOL    HW1 3053   4.718   0.632   4.641  0.9643 -0.2735 -0.3555
  640SOL    HW2 3054   4.850   0.620   4.715 -0.0826 -1.7472  1.3743
  641SOL     OW 3055   6.600   2.034   8.949 -0.4449 -0.3422 -0.0800
  641SOL    HW1 3056   6.632   2.078   8.870  1.7627  1.4107  1.6329
  641SOL    HW2 3057   6.677   1.991   8.985 -0.4948  1.6698  2.7775
  642SOL     OW 3058   4.540   0.373   0.425 -0.6890  0.1881 -0.3337
  642SOL    HW1 3059   4.622   0.395   0.470 -0.9915  0.2627  0.1921
  642SOL    HW2 3060   4.472   0.403   0.485 -1.1015  0.0265 -0.7202
  643SOL     OW 3061   4.752   0.561   3.594  0.2523 -0.7751 -0.3128
  643SOL    HW1 3062   4.674   0.548   3.541 -0.6684 -1.1903  1.0720
  643SOL    HW2 3063   4.740   0.648   3.633  0.7684 -0.5989 -0.5365
  644SOL     OW 3064   4.997   0.274   3.932 -0.1929 -0.3929 -0.0512
  644SOL    HW1 3065   4.926   0.304   3.875  0.3132  2.1967  0.5530
  644SOL    HW2 3066   5.063   0.239   3.871 -1.5990 -2.1552 -0.6612
  645SOL     OW 3067   8.029   0.158   7.259  0.6256 -0.2822 -0.0443
  645SOL    HW1 3068   7.966   0.190   7.324  0.5136 -0.8605  0.1368
  645SOL    HW2 3069   7.975   0.113   7.194  1.0149 -2.8934  1.3433
  646SOL     OW 3070   7.605   4.952   4.758  0.2808 -0.8489 -0.5894
  646SOL    HW1 3071   7.542   4.956   4.830  0.5488  1.4928 -0.4029
  646SOL    HW2 3072   7.628   5.043   4.741  1.0710 -1.4044 -2.9250
  647SOL     OW 3073   8.721   3.709   1.625  0.7325 -0.3886 -0.6009
  647SOL    HW1 3074   8.747   3.667   1.542 -1.7203 -0.6753 -1.2951
  647SOL    HW2 3075   8.714   3.637   1.687 -0.8917 -0.7045 -1.1077
  648SOL     OW 3076   5.294   4.113   1.151  0.5169 -0.2970  0.1985
  648SOL    HW1 3077   5.252   4.198   1.168  0.0787 -0.7251  1.3150
  648SOL    HW2 3078   5.239   4.049   1.196 -0.2610 -1.4316 -2.2272
  649SOL     OW 3079   6.361   5.567   8.509  0.3928  0.3258  0.2443
  649SOL    HW1 3080   6.428   5.500   8.520 -0.4388 -0.2146  2.6421
  649SOL    HW2 3081   6.283   5.518   8.484  0.8190  0.9657 -2.7012
  650SOL     OW 3082   7.693   8.009   8.050  0.3678 -0.0419  0.0976
  650SOL    HW1 3083   7.638   7.975   8.121  0.5472 -0.2648  0.1317
  650SOL    HW2 3084   7.698   8.103   8.066 -0.1419  0.0080 -0.0014
  651SOL     OW 3085   5.661   4.387   8.094 -0.4011 -0.3521 -0.0750
  651SOL    HW1 3086   5.726   4.414   8.029 -0.1855  0.3926  0.4422
  651SOL    HW2 3087   5.604   4.463   8.103 -1.6247 -1.1412 -0.8488
  652SOL     OW 3088   5.141   6.136   2.331 -0.4091  0.1518 -0.2333
  652SOL    HW1 3089   5.055   6.126   2.289  0.1199 -2.4253 -0.8401
  652SOL    HW2 3090   5.123   6.124   2.425 -0.9458  1.5492 -0.1300
  653SOL     OW 3091   8.699   4.722   7.974  0.1204  0.8476  0.0189
  653SOL    HW1 3092   8.779   4.764   7.942  0.4059  0.6719  0.4844
  653SOL    HW2 3093   8.674   4.775   8.050  1.1195 -0.4460  1.3127
  654SOL     OW 3094   7.994   5.822   4.133  0.4575 -0.8707 -0.3682
  654SOL    HW1 3095   7.996   5.893   4.197 -1.0622 -1.5591  0.5163
  654SOL    HW2 3096   8.081   5.821   4.095  0.5839  1.2734 -0.2125
  655SOL     OW 3097   1.079   1.666   4.168  0.2631  0.2958 -0.0858
  655SOL    HW1 3098   1.013   1.673   4.238  0.2907  0.8669 -0.1156
  655SOL    HW2 3099   1.110   1.755   4.155  1.0941  0.0216 -0.0312
  656SOL     OW 3100   1.328   7.577   1.291  0.0828 -0.1493  0.2667
  656SOL    HW1 3101   1.244   7.531   1.293 -0.4494  0.8421  1.6250
  656SOL    HW2 3102   1.340   7.600   1.199 -2.3268  1.7718  0.3235
  657SOL     OW 3103   2.431   4.688   2.883  0.2237 -0.1465  0.3709
  657SOL    HW1 3104   2.402   4.739   2.808  1.3256 -0.0389 -0.0048
  657SOL    HW2 3105   2.471   4.609   2.844 -1.1597 -1.1608  0.9234
  658SOL     OW 3106   1.151   0.144   4.271  0.3176 -0.1423 -0.8435
  658SOL    HW1 3107   1.199   0.070   4.310  1.0950  0.6231 -0.2995
  658SOL    HW2 3108   1.213   0.217   4.275  0.2807  0.1005 -3.1538
  659SOL     OW 3109   7.595   2.429   5.837 -0.1552  0.3470  0.1522
  659SOL    HW1 3110   7.580   2.419   5.931 -1.3437 -0.1878 -0.0723
  659SOL    HW2 3111   7.690   2.420   5.827 -0.0719 -0.1673  1.2332
  660SOL     OW 3112   3.223   1.965   0.326 -0.4854  0.1557 -0.3308
  660SOL    HW1 3113   3.243   1.975   0.419 -0.6425  0.2116 -0.3033
  660SOL    HW2 3114   3.295   2.010   0.281 -0.8513  0.8567 -0.2216
  661SOL     OW 3115   5.507   3.378   4.379  0.1866  0.0879 -0.1440
  661SOL    HW1 3116   5.490   3.320   4.453  0.4128 -0.5182 -0.5558
  661SOL    HW2 3117   5.445   3.350   4.312 -0.0672  0.6825 -0.1647
  662SOL     OW 3118   7.629   5.147   1.484 -0.6478 -0.2944 -0.2198
  662SOL    HW1 3119   7.696   5.093   1.526 -1.4339 -0.5121  0.7720
  662SOL    HW2 3120   7.615   5.105   1.399  0.8284  0.0538 -0.6814
  663SOL     OW 3121   6.944   1.987   1.907 -0.3492 -0.2429 -0.2101
  663SOL    HW1 3122   6.893   2.010   1.985 -1.7731  0.6288 -1.3563
  663SOL    HW2 3123   6.939   2.064   1.851  3.6024  0.5239  0.2402
  664SOL     OW 3124   4.697   8.497   5.222 -0.1964  0.0141  0.1634
  664SOL    HW1 3125   4.710   8.404   5.238  1.3209  0.2461  0.4209
  664SOL    HW2 3126   4.627   8.522   5.283 -0.3810 -0.8828  0.3309
  665SOL     OW 3127   3.532   2.942   0.677  0.5248 -0.0680  0.1633
  665SOL    HW1 3128   3.613   2.895   0.697  1.0749  0.3866 -0.9019
  665SOL    HW2 3129   3.541   2.966   0.584 -2.5151 -3.3979 -1.2083
  666SOL     OW 3130   2.529   1.332   6.850  0.5488 -0.1054 -0.1153
  666SOL    HW1 3131   2.463   1.296   6.909  1.1263 -0.2758  0.4378
  666SOL    HW2 3132   2.485   1.407   6.808  0.0649 -0.1091  0.3736
  667SOL     OW 3133   8.881   3.589   9.078 -0.3862 -0.1923 -0.1265
  667SOL    HW1 3134   8.798   3.559   9.114  0.0260 -0.4382  0.6326
  667SOL    HW2 3135   8.904   3.523   9.013 -1.8405  0.9867 -1.9583
  668SOL     OW 3136   2.490   8.749   3.501 -0.6716  0.2423  0.2025
  668SOL    HW1 3137   2.480   8.666   3.454 -0.0250 -0.9789  2.0943
  668SOL    HW2 3138   2.419   8.804   3.468 -1.4875 -1.2700 -0.6933
  669SOL     OW 3139   5.755   1.457   4.144  0.2095  0.3635  0.1362
  669SOL    HW1 3140   5.694   1.383   4.148  0.1783  0.4321  2.6328
  669SOL    HW2 3141   5.725   1.509   4.070 -1.1843 -0.9182 -0.2659
  670SOL     OW 3142   1.718   3.174   2.020  0.4046 -0.0957 -0.0720
  670SOL    HW1 3143   1.707   3.269   2.028  0.0045  0.0755 -2.0843
  670SOL    HW2 3144   1.800   3.163   1.971 -1.2868 -0.5561 -3.0822
  671SOL     OW 3145   0.951   3.528   1.946  0.5857  0.5211  0.2654
  671SOL    HW1 3146   1.030   3.475   1.944  0.2723  0.0643 -1.4719
  671SOL    HW2 3147   0.890   3.484   1.886  0.0228  2.3672 -0.6190
  672SOL     OW 3148   1.269   0.185   2.608 -0.6422 -0.5598  0.0473
  672SOL    HW1 3149   1.250   0.146   2.522 -1.3001 -0.4703  0.1501
  672SOL    HW2 3150   1.276   0.279   2.590 -0.8045 -0.5385  0.0952
  673SOL     OW 3151   6.183   8.175   5.278 -0.2564  1.0681  0.6151
  673SOL    HW1 3152   6.265   8.201   5.321  0.2059 -0.5747  0.7723
  673SOL    HW2 3153   6.158   8.094   5.321  0.4141 -0.8593 -2.3574
  674SOL     OW 3154   8.556   5.870   5.163  0.6690  0.7894 -0.0649
  674SOL    HW1 3155   8.601   5.939   5.113  1.1545 -0.3551 -1.2444
  674SOL    HW2 3156   8.596   5.789   5.134 -0.2001 -0.0535  0.9927
  675SOL     OW 3157   2.421   3.796   4.924  0.0706  0.9294  0.0283
  675SOL    HW1 3158   2.462   3.834   5.001 -0.5328  1.2008  0.2192
  675SOL    HW2 3159   2.370   3.722   4.957 -0.1017  0.9776 -0.1272
  676SOL     OW 3160   7.134   7.960   8.452  0.2403 -0.1145 -0.5410
  676SOL    HW1 3161   7.176   7.875   8.451 -0.6449 -0.5621 -1.5083
  676SOL    HW2 3162   7.060   7.949   8.513  1.8653  0.8884  1.7717
  677SOL     OW 3163   1.278   7.302   0.303 -0.7824 -0.6027 -0.2763
  677SOL    HW1 3164   1.253   7.389   0.337 -0.5568 -1.0201  1.0330
  677SOL    HW2 3165   1.351   7.319   0.245 -1.3753  0.1878 -0.8167
  678SOL     OW 3166   1.438   0.066   0.022  0.4211 -0.1775 -0.3177
  678SOL    HW1 3167   1.352   0.024   0.024  0.7457 -0.8241  1.5432
  678SOL    HW2 3168   1.498  -0.003  -0.005  0.4575  0.1269 -1.0497
  679SOL     OW 3169   2.054   1.333   7.413 -0.3176  0.3528 -0.0118
  679SOL    HW1 3170   2.038   1.305   7.322 -1.0404 -1.5364  0.6519
  679SOL    HW2 3171   2.054   1.252   7.463  0.5820  1.3306  1.6274
  680SOL     OW 3172   5.161   1.979   4.551  0.1256 -0.3426  0.1135
  680SOL    HW1 3173   5.243   2.018   4.521 -0.3629  0.6284  0.0005
  680SOL    HW2 3174   5.116   1.953   4.471  1.1236 -2.6441  0.2216
  681SOL     OW 3175   4.642   9.000   7.947  0.2512 -0.3247  0.3696
  681SOL    HW1 3176   4.623   8.927   8.006 -0.8604 -0.2689  0.1106
  681SOL    HW2 3177   4.736   8.996   7.931 -0.0684 -3.1810 -1.5250
  682SOL     OW 3178   7.231   7.977   7.621  0.6337 -0.5061  0.2068
  682SOL    HW1 3179   7.156   7.919   7.632  0.8194 -0.9032 -0.5549
  682SOL    HW2 3180   7.274   7.977   7.706 -0.0080 -0.5870  0.5346
  683SOL     OW 3181   7.412   1.461   5.022  0.2032 -0.5222  0.6447
  683SOL    HW1 3182   7.420   1.369   5.048 -0.0754 -0.6692  0.2214
  683SOL    HW2 3183   7.333   1.464   4.968  0.7705 -0.2418 -0.2038
  684SOL     OW 3184   0.527   2.640   4.938 -0.0926  0.0042 -0.0856
  684SOL    HW1 3185   0.537   2.585   4.860  0.0997  1.0306 -0.8079
  684SOL    HW2 3186   0.586   2.714   4.923 -0.9407  0.8196  0.4835
  685SOL     OW 3187   6.058   7.627   7.179 -0.2824 -0.0660 -0.1142
  685SOL    HW1 3188   6.102   7.549   7.212 -1.2892 -1.1334 -1.1793
  685SOL    HW2 3189   5.998   7.653   7.248 -1.9261 -1.9059 -0.7589
  686SOL     OW 3190   4.679   7.707   8.760  0.3260 -0.0985  0.1145
  686SOL    HW1 3191   4.637   7.747   8.684 -0.2722 -0.1900  0.3911
  686SOL    HW2 3192   4.621   7.636   8.785  1.5665 -1.3955 -0.5886
  687SOL     OW 3193   7.982   8.933   4.617  0.5628 -0.3113  0.3338
  687SOL    HW1 3194   7.938   8.994   4.558 -0.3743  1.0762  2.3286
  687SOL    HW2 3195   7.912   8.878   4.651  0.7153  0.2368  1.6088
  688SOL     OW 3196   5.366   0.090   2.780 -0.0987 -0.1833  0.1449
  688SOL    HW1 3197   5.318   0.008   2.794  0.8955 -0.7390  0.3732
  688SOL    HW2 3198   5.378   0.095   2.686 -1.0637  0.2401  0.0294
  689SOL     OW 3199   5.519   6.411   1.822  0.0600 -0.5719  0.2964
  689SOL    HW1 3200   5.449   6.374   1.876 -0.4369  1.1239  0.8830
  689SOL    HW2 3201   5.515   6.506   1.839 -0.4472  0.1186 -3.1138
  690SOL     OW 3202   1.928   6.878   1.256  0.3333  0.1360  0.2292
  690SOL    HW1 3203   1.972   6.879   1.171  0.2275 -0.6139  0.1557
  690SOL    HW2 3204   1.958   6.797   1.297 -3.2017 -2.0005 -1.0372
  691SOL     OW 3205   3.009   4.305   4.331  0.0709 -0.2845  0.2463
  691SOL    HW1 3206   3.105   4.304   4.338  0.0388 -2.4293  1.1916
  691SOL    HW2 3207   2.979   4.302   4.422 -0.8285 -2.1757 -0.0838
  692SOL     OW 3208   8.177   7.593   6.146 -0.5799  0.6435 -0.8400
  692SOL    HW1 3209   8.109   7.529   6.125 -0.3188  0.4261 -1.0451
  692SOL    HW2 3210   8.149   7.632   6.229 -0.7809  0.3167 -0.7518
  693SOL     OW 3211   1.604   1.727   4.888 -0.0432  0.2817 -0.1264
  693SOL    HW1 3212   1.651   1.713   4.805  0.0927 -2.1737  0.2929
  693SOL    HW2 3213   1.669   1.768   4.945  0.1241  1.2032 -0.9482
  694SOL     OW 3214   6.334   1.045   8.827 -0.0837 -0.0589  0.6784
  694SOL    HW1 3215   6.411   1.101   8.820  1.1194 -1.8114 -1.3705
  694SOL    HW2 3216   6.282   1.066   8.750  0.4836 -1.8074 -0.2314
  695SOL     OW 3217   2.609   8.247   0.405  0.0488  0.5290 -0.6130
  695SOL    HW1 3218   2.659   8.328   0.403  0.7400  0.1741  1.0508
  695SOL    HW2 3219   2.670   8.181   0.436 -1.2525 -0.0371  0.8928
  696SOL     OW 3220   7.281   7.351   9.043 -0.1026 -0.0255 -0.3154
  696SOL    HW1 3221   7.206   7.384   9.092 -0.3853 -0.4703 -0.4408
  696SOL    HW2 3222   7.356   7.367   9.100 -0.3925 -0.2984  0.1521
  697SOL     OW 3223   3.586   5.418   0.063 -0.3140 -0.0289  0.8844
  697SOL    HW1 3224   3.658   5.356   0.054 -1.6401 -1.6149  0.7950
  697SOL    HW2 3225   3.508   5.368   0.038 -1.3471  1.9155 -0.0121
  698SOL     OW 3226   6.663   4.917   1.783 -0.1713 -0.0262 -0.5280
  698SOL    HW1 3227   6.569   4.930   1.793 -0.0912 -0.4691  1.1770
  698SOL    HW2 3228   6.672   4.826   1.755 -0.2493  0.1595 -1.1842
  699SOL     OW 3229   7.408   5.392   4.541 -0.8444 -0.0052  0.4891
  699SOL    HW1 3230   7.419   5.387   4.636  2.8896  0.2255  0.1968
  699SOL    HW2 3231   7.416   5.301   4.511 -3.3312 -0.2646  0.3925
  700SOL     OW 3232   4.885   4.333   4.409 -0.7465 -0.0756 -0.0013
  700SOL    HW1 3233   4.970   4.317   4.451 -0.9113 -0.9051  0.0255
  700SOL    HW2 3234   4.830   4.368   4.480 -0.0850  1.7131 -0.3029
  701SOL     OW 3235   3.629   2.338   7.249  0.3319 -0.0056 -0.3256
  701SOL    HW1 3236   3.639   2.267   7.187  1.5636 -0.3962  0.2775
  701SOL    HW2 3237   3.539   2.369   7.238  0.2348 -0.7149 -1.5811
  702SOL     OW 3238   0.700   6.433   0.920 -0.0177 -0.3929 -0.0590
  702SOL    HW1 3239   0.715   6.393   1.005 -2.4926 -2.7354 -0.5729
  702SOL    HW2 3240   0.651   6.513   0.939 -1.3818 -1.3681  0.7516
  703SOL     OW 3241   6.206   1.157   8.186 -0.2760 -0.3911 -0.2199
  703SOL    HW1 3242   6.292   1.198   8.192  0.0689 -0.4917 -3.1488
  703SOL    HW2 3243   6.214   1.078   8.240  0.3814  1.1705  2.1110
  704SOL     OW 3244   8.036   3.123   4.597  0.0102 -0.0552  0.3709
  704SOL    HW1 3245   7.947   3.116   4.563 -0.8279  1.3217  2.1039
  704SOL    HW2 3246   8.075   3.038   4.578 -1.0296 -0.0907 -2.0504
  705SOL     OW 3247   8.712   6.167   1.584 -0.4263  0.3058 -0.1482
  705SOL    HW1 3248   8.726   6.255   1.550  0.4441  0.6731  1.0737
  705SOL    HW2 3249   8.732   6.174   1.678 -1.0076 -1.0394  0.1090
  706SOL     OW 3250   9.028   5.178   7.711  0.3705 -0.3675 -0.0109
  706SOL    HW1 3251   9.049   5.216   7.626  0.0387 -0.4417 -0.1264
  706SOL    HW2 3252   9.081   5.098   7.715 -0.0110 -0.6451 -0.3752
  707SOL     OW 3253   2.442   8.421   2.767  0.5845 -0.7379 -0.2338
  707SOL    HW1 3254   2.515   8.482   2.755 -0.8115  1.4604  1.7233
  707SOL    HW2 3255   2.441   8.369   2.686  2.1828  1.4729 -1.7840
  708SOL     OW 3256   0.873   5.842   3.491  0.3199 -0.7051  0.4614
  708SOL    HW1 3257   0.906   5.904   3.556 -1.8750  0.7288  0.3295
  708SOL    HW2 3258   0.949   5.819   3.438  1.1465  2.6376 -0.0691
  709SOL     OW 3259   2.213   5.758   3.606  0.1379  0.0780 -0.0277
  709SOL    HW1 3260   2.140   5.770   3.666  0.2644 -0.4587  0.2367
  709SOL    HW2 3261   2.187   5.687   3.548 -0.9551  2.0856 -2.1413
  710SOL     OW 3262   5.537   8.289   5.103 -0.1694 -0.1297  0.6348
  710SOL    HW1 3263   5.521   8.303   5.010  1.6937 -1.0613  0.1222
  710SOL    HW2 3264   5.628   8.261   5.108  0.0959  0.8908  2.8623
  711SOL     OW 3265   0.139   1.643   1.449  0.2760  0.3042 -0.0483
  711SOL    HW1 3266   0.093   1.692   1.380  1.6189  1.9242  0.1574
  711SOL    HW2 3267   0.121   1.551   1.428 -3.6862  0.7940  0.4848
  712SOL     OW 3268   2.263   4.703   5.897 -0.3238 -0.1691  0.0988
  712SOL    HW1 3269   2.279   4.793   5.926  1.5419 -0.3957 -0.0976
  712SOL    HW2 3270   2.213   4.712   5.816  0.0221  0.7142 -0.0260
  713SOL     OW 3271   3.444   4.179   5.459 -0.0175 -0.9646 -0.2543
  713SOL    HW1 3272   3.467   4.230   5.381 -1.8284  0.1675 -0.1161
  713SOL    HW2 3273   3.527   4.141   5.488  1.2949  1.2307 -0.8678
  714SOL     OW 3274   8.692   2.743   3.481 -0.2299 -0.6298 -0.2185
  714SOL    HW1 3275   8.636   2.798   3.536 -0.9057 -1.0241 -0.5168
  714SOL    HW2 3276   8.642   2.727   3.402  0.6267 -0.3147 -0.8406
  715SOL     OW 3277   3.583   8.474   5.123  0.2109  0.4221  0.6926
  715SOL    HW1 3278   3.613   8.535   5.056 -1.7731 -0.1432 -0.8193
  715SOL    HW2 3279   3.663   8.432   5.154  1.4560  2.5248  0.5701
  716SOL     OW 3280   7.520   7.474   2.039 -0.0907  0.0102 -0.5537
  716SOL    HW1 3281   7.505   7.566   2.060  3.2757  0.4385  0.5271
  716SOL    HW2 3282   7.502   7.428   2.121  0.3841 -0.0046 -0.4575
  717SOL     OW 3283   7.574   2.867   4.709  0.2387 -0.0558 -0.0914
  717SOL    HW1 3284   7.599   2.792   4.764  0.0883  0.8824  1.3131
  717SOL    HW2 3285   7.482   2.883   4.730  0.3964  0.8069 -0.0128
  718SOL     OW 3286   7.265   4.189   3.009 -0.4599 -0.1233 -0.2783
  718SOL    HW1 3287   7.216   4.206   2.929 -0.1670 -1.1050 -0.6681
  718SOL    HW2 3288   7.342   4.140   2.982  0.8626  1.5211  0.3068
  719SOL     OW 3289   0.857   5.278   2.944  0.3244  0.9724 -0.3406
  719SOL    HW1 3290   0.931   5.270   3.003  0.6801 -1.2896 -0.9875
  719SOL    HW2 3291   0.780   5.261   2.998  0.4470  1.2402 -0.0821
  720SOL     OW 3292   0.027   0.943   8.077  0.1604 -0.7858  0.8954
  720SOL    HW1 3293   0.073   0.956   7.994 -1.5551  1.9981  0.2401
  720SOL    HW2 3294   0.096   0.951   8.144  1.3193 -1.4960 -0.1685
  721SOL     OW 3295   2.158   2.709   2.572 -0.0210  0.0581  0.2769
  721SOL    HW1 3296   2.086   2.722   2.634 -0.9153 -0.4388 -0.6245
  721SOL    HW2 3297   2.210   2.638   2.609 -1.4862 -1.3826 -0.3254
  722SOL     OW 3298   8.970   7.634   2.396  0.5367 -0.3281 -0.0885
  722SOL    HW1 3299   8.907   7.566   2.374 -0.6255  0.4528  0.6727
  722SOL    HW2 3300   9.051   7.609   2.351 -0.5128 -0.9857 -1.6834
  723SOL     OW 3301   2.536   7.148   3.512  0.6103  0.1346 -0.1083
  723SOL    HW1 3302   2.443   7.143   3.492  0.6706 -1.7633 -0.0852
  723SOL    HW2 3303   2.562   7.235   3.482 -1.2959  0.9891  0.5225
  724SOL     OW 3304   7.889   4.073   2.790  0.1938  0.8651 -0.6794
  724SOL    HW1 3305   7.843   4.064   2.707  0.4637 -1.6473 -0.6535
  724SOL    HW2 3306   7.981   4.056   2.769  0.5467  1.9863 -0.1209
  725SOL     OW 3307   4.036   4.271   5.591  0.4384 -0.4203  0.0843
  725SOL    HW1 3308   4.006   4.271   5.682  0.1782  0.1210 -0.0004
  725SOL    HW2 3309   4.095   4.346   5.586  0.3536 -0.3748 -0.2265
  726SOL     OW 3310   7.290   1.709   4.189  0.2020  0.6060 -0.4784
  726SOL    HW1 3311   7.294   1.777   4.256  1.2422 -0.0085  0.1016
  726SOL    HW2 3312   7.201   1.675   4.195 -0.5037  2.2070 -1.1092
  727SOL     OW 3313   2.684   0.911   7.868  0.0076 -0.3324  0.4308
  727SOL    HW1 3314   2.732   0.886   7.789  1.6376 -1.1803  1.6170
  727SOL    HW2 3315   2.613   0.847   7.875 -0.4985  0.1007 -0.6249
  728SOL     OW 3316   2.111   3.223   4.079 -0.1397  0.5056 -0.0565
  728SOL    HW1 3317   2.096   3.210   3.986  0.3492 -2.0376  0.1554
  728SOL    HW2 3318   2.191   3.275   4.084  0.9634 -1.0579 -1.0594
  729SOL     OW 3319   5.351   3.307   7.695 -0.7687  0.1957 -0.3060
  729SOL    HW1 3320   5.420   3.371   7.674 -1.0396  1.0343  1.2168
  729SOL    HW2 3321   5.399   3.226   7.712  0.0570  1.0909  2.0904
  730SOL     OW 3322   1.927   2.105   3.393  0.8865 -0.5844 -0.1736
  730SOL    HW1 3323   1.874   2.172   3.349 -1.7712 -1.9003  0.7569
  730SOL    HW2 3324   1.869   2.029   3.397  2.8919 -2.1311  1.0311
  731SOL     OW 3325   1.757   7.651   1.859  0.2071 -0.0583 -0.4093
  731SOL    HW1 3326   1.687   7.586   1.858  0.4507 -0.3112 -1.2360
  731SOL    HW2 3327   1.827   7.613   1.806  1.4208 -0.2846  1.2705
  732SOL     OW 3328   2.281   7.401   7.589 -0.5875 -0.3658  0.3934
  732SOL    HW1 3329   2.371   7.369   7.596 -0.8092 -1.5267 -1.4519
  732SOL    HW2 3330   2.242   7.380   7.674  1.0564  0.9152  1.5402
  733SOL     OW 3331   0.889   4.598   3.347 -0.4010 -0.4934 -0.3892
  733SOL    HW1 3332   0.976   4.588   3.387 -0.3190 -0.5058 -0.5708
  733SOL    HW2 3333   0.847   4.513   3.361 -1.2824  0.2414  1.8248
  734SOL     OW 3334   3.082   0.209   1.452 -0.1958  0.4700 -0.3365
  734SOL    HW1 3335   2.989   0.188   1.461 -0.5793  1.7628 -1.0257
  734SOL    HW2 3336   3.089   0.299   1.483  0.6666  0.6716 -1.0884
  735SOL     OW 3337   6.486   2.224   4.996 -0.4141  0.0922  0.5767
  735SOL    HW1 3338   6.524   2.153   5.048  3.6639 -1.1817 -3.4577
  735SOL    HW2 3339   6.551   2.295   5.002 -0.3316  0.2841 -1.7116
  736SOL     OW 3340   3.254   6.593   2.121  0.1524 -0.7559 -0.1916
  736SOL    HW1 3341   3.202   6.547   2.187 -0.8495  1.6392  0.7902
  736SOL    HW2 3342   3.345   6.569   2.142 -0.3214 -2.4814  0.0626
  737SOL     OW 3343   2.080   4.503   4.610  0.3253 -0.2040  0.0934
  737SOL    HW1 3344   2.139   4.439   4.570  2.3660  2.9156 -2.3764
  737SOL    HW2 3345   2.133   4.545   4.677 -0.1991  0.4397  0.1103
  738SOL     OW 3346   3.436   5.129   4.312 -0.0284  0.1401 -0.1702
  738SOL    HW1 3347   3.372   5.170   4.370  2.3268  0.5602  2.3210
  738SOL    HW2 3348   3.426   5.035   4.329 -1.0736  0.0740 -1.0595
  739SOL     OW 3349   5.093   1.634   8.442 -0.4027  0.2292  0.1268
  739SOL    HW1 3350   4.999   1.621   8.455 -0.7442  1.8706 -0.4886
  739SOL    HW2 3351   5.113   1.714   8.491  0.2577  0.9979 -1.3422
  740SOL     OW 3352   5.509   1.762   1.387 -0.1482 -0.0460  0.0308
  740SOL    HW1 3353   5.414   1.769   1.376  0.0642  2.1356 -0.8333
  740SOL    HW2 3354   5.536   1.701   1.318 -0.4837  2.7671 -2.8314
  741SOL     OW 3355   7.370   0.335   1.788  0.1205  0.1680  0.1486
  741SOL    HW1 3356   7.323   0.418   1.792 -0.1202  0.0498 -0.1346
  741SOL    HW2 3357   7.310   0.276   1.741  1.4108  0.5996 -2.2276
  742SOL     OW 3358   3.219   2.099   3.904  0.3893 -0.2266  0.1823
  742SOL    HW1 3359   3.145   2.125   3.850 -0.0190  0.3484  1.0014
  742SOL    HW2 3360   3.296   2.116   3.850 -0.0672 -0.9198 -0.7154
  743SOL     OW 3361   5.621   6.163   1.362  0.2556 -0.3481  0.1446
  743SOL    HW1 3362   5.710   6.177   1.331 -0.2262  0.4073 -0.9493
  743SOL    HW2 3363   5.611   6.225   1.435  1.4452 -2.2511  2.0515
  744SOL     OW 3364   1.277   7.370   7.126 -0.0323 -0.2149 -0.1039
  744SOL    HW1 3365   1.294   7.448   7.073  0.2315 -0.5387 -0.5004
  744SOL    HW2 3366   1.353   7.361   7.182 -1.2683  1.4292  1.9927
  745SOL     OW 3367   2.338   6.339   6.471  0.0144 -0.4877  0.0532
  745SOL    HW1 3368   2.330   6.347   6.376 -0.3606 -0.4807  0.0806
  745SOL    HW2 3369   2.418   6.386   6.493  0.4156 -0.9938 -0.3203
  746SOL     OW 3370   6.567   6.050   6.561  0.0299  0.3100  0.4485
  746SOL    HW1 3371   6.487   5.997   6.565  0.2652 -0.1125 -0.1456
  746SOL    HW2 3372   6.633   5.996   6.604  0.1367  0.3799  0.3712
  747SOL     OW 3373   7.655   8.486   2.973  0.1236 -0.3728  0.2853
  747SOL    HW1 3374   7.740   8.444   2.963 -0.8109 -2.3427 -0.0422
  747SOL    HW2 3375   7.643   8.495   3.068  0.0779 -1.5703  0.4190
  748SOL     OW 3376   0.838   4.802   7.027  0.1706  0.3009  0.0725
  748SOL    HW1 3377   0.761   4.776   7.077 -1.3563  0.8390 -1.8406
  748SOL    HW2 3378   0.832   4.751   6.946  1.1301  1.2780 -0.6393
  749SOL     OW 3379   5.610   9.037   8.333  0.4847  0.2547 -0.0767
  749SOL    HW1 3380   5.613   8.975   8.406  0.8999 -0.3204 -0.5807
  749SOL    HW2 3381   5.517   9.053   8.319  0.4077  0.6323  0.7973
  750SOL     OW 3382   0.632   4.221   2.510  0.4665 -0.0986 -0.2330
  750SOL    HW1 3383   0.568   4.245   2.443  0.4454 -1.6719 -0.8213
  750SOL    HW2 3384   0.651   4.303   2.556 -0.3349  0.8039 -1.4557
  751SOL     OW 3385   2.572   2.140   2.503  0.8001  0.5058  0.2095
  751SOL    HW1 3386   2.575   2.193   2.423  0.5635 -0.0349 -0.1619
  751SOL    HW2 3387   2.552   2.052   2.473  0.6535  0.3049  0.8761
  752SOL     OW 3388   4.672   1.075   8.738 -0.2206 -0.7355 -0.7447
  752SOL    HW1 3389   4.746   1.106   8.687 -1.3723 -1.7000 -3.1399
  752SOL    HW2 3390   4.629   1.155   8.769  0.5751 -0.1247 -1.1699
  753SOL     OW 3391   4.371   6.623   5.075  0.7666  0.8751 -0.2876
  753SOL    HW1 3392   4.451   6.664   5.110  2.2221 -1.1599 -1.0181
  753SOL    HW2 3393   4.400   6.581   4.994 -0.9238 -0.4393 -0.2475
  754SOL     OW 3394   5.828   6.934   4.884  0.2482  0.2788  0.1905
  754SOL    HW1 3395   5.903   6.960   4.936  0.4588 -0.0115  0.0371
  754SOL    HW2 3396   5.761   6.910   4.947  0.5397 -0.1796  0.3316
  755SOL     OW 3397   5.076   2.192   1.684  0.3340  0.0107 -0.7463
  755SOL    HW1 3398   5.059   2.177   1.777 -0.8165 -2.1650 -1.2571
  755SOL    HW2 3399   5.074   2.105   1.645 -0.2077  0.9667 -2.9765
  756SOL     OW 3400   2.860   0.922   5.087 -0.2490  0.2589  0.2322
  756SOL    HW1 3401   2.899   1.007   5.068 -0.9090  0.3684 -0.7405
  756SOL    HW2 3402   2.926   0.875   5.137  0.2773  1.2015  0.4346
  757SOL     OW 3403   5.385   5.520   7.326 -0.2631  0.0943 -0.2193
  757SOL    HW1 3404   5.328   5.597   7.319 -0.3701  0.0401  0.0646
  757SOL    HW2 3405   5.461   5.551   7.375 -0.1701  0.0972 -0.3659
  758SOL     OW 3406   4.067   8.242   6.584 -0.0305  0.2594  0.2241
  758SOL    HW1 3407   3.980   8.245   6.543 -0.5825 -0.8673  1.2463
  758SOL    HW2 3408   4.050   8.255   6.677  0.8783 -0.2670  0.4720
  759SOL     OW 3409   3.873   8.889   3.673 -0.6325 -0.3633  0.2630
  759SOL    HW1 3410   3.818   8.870   3.749 -1.3276  0.0369 -0.1329
  759SOL    HW2 3411   3.957   8.848   3.694 -0.7650 -0.1362  1.3122
  760SOL     OW 3412   0.794   8.838   5.185 -0.0866 -0.2544 -0.0744
  760SOL    HW1 3413   0.806   8.802   5.097  0.2572  2.3475 -1.2096
  760SOL    HW2 3414   0.699   8.839   5.198 -0.1635 -0.2358 -0.6188
  761SOL     OW 3415   5.581   2.719   3.854  0.0061  0.7498  0.5943
  761SOL    HW1 3416   5.537   2.716   3.769  0.5208 -1.5803  0.3339
  761SOL    HW2 3417   5.515   2.752   3.915 -1.6627 -1.1863 -0.0608
  762SOL     OW 3418   6.011   7.663   4.513  0.2342 -0.4287 -0.5207
  762SOL    HW1 3419   6.048   7.592   4.461  0.0512 -0.1061 -1.0963
  762SOL    HW2 3420   6.033   7.742   4.465 -0.4893 -0.1735 -0.4405
  763SOL     OW 3421   3.276   7.944   3.913 -0.2097  0.2501  0.3748
  763SOL    HW1 3422   3.262   8.032   3.949  1.1125  1.2043 -1.3027
  763SOL    HW2 3423   3.338   7.903   3.973 -0.2319  0.7465  0.7401
  764SOL     OW 3424   4.272   4.017   3.485  0.2154  0.1342 -0.4153
  764SOL    HW1 3425   4.299   3.994   3.574  0.0826  0.6321 -0.2409
  764SOL    HW2 3426   4.289   3.938   3.434  0.9400  0.0612 -0.0871
  765SOL     OW 3427   9.048   4.134   7.585 -0.2734 -0.1207 -0.2306
  765SOL    HW1 3428   8.993   4.212   7.589 -0.1896 -0.1147  2.3622
  765SOL    HW2 3429   9.043   4.097   7.673 -1.0726 -3.6066 -1.5774
  766SOL     OW 3430   2.463   2.457   0.918  0.0161 -0.7090  0.1724
  766SOL    HW1 3431   2.473   2.528   0.855 -1.0926  0.0634  0.8325
  766SOL    HW2 3432   2.548   2.453   0.962 -0.2428  0.9860  0.9008
  767SOL     OW 3433   4.808   5.708   2.303 -0.0312  0.2886  0.3385
  767SOL    HW1 3434   4.732   5.762   2.322 -1.4705 -1.8401  1.0967
  767SOL    HW2 3435   4.862   5.713   2.381 -0.0890  0.7257  0.3509
  768SOL     OW 3436   6.631   1.049   8.223  0.2638  0.3006 -0.2041
  768SOL    HW1 3437   6.537   1.046   8.205  0.3537  1.0355 -0.8344
  768SOL    HW2 3438   6.651   0.963   8.260 -0.4469 -0.2790 -1.1209
  769SOL     OW 3439   4.028   0.098   6.539 -0.1474  0.4264 -0.3192
  769SOL    HW1 3440   4.002   0.132   6.624 -0.7445 -0.7384 -0.0103
  769SOL    HW2 3441   3.981   0.152   6.476  0.6868  1.6179  0.0525
  770SOL     OW 3442   0.986   6.503   4.013  0.3411  0.2202  0.1644
  770SOL    HW1 3443   1.057   6.516   4.076  0.3024 -1.2694  0.5691
  770SOL    HW2 3444   0.930   6.580   4.023  0.9597  0.5642  1.1134
  771SOL     OW 3445   2.947   4.266   8.974  0.2132  0.4799  0.5337
  771SOL    HW1 3446   2.987   4.264   8.888  1.2014  1.1067  0.9573
  771SOL    HW2 3447   2.880   4.198   8.972  0.4120  0.3091 -0.6276
  772SOL     OW 3448   6.092   6.777   4.465  0.4321  0.1474 -0.1377
  772SOL    HW1 3449   6.059   6.864   4.442  0.1494  0.0894  0.0467
  772SOL    HW2 3450   6.014   6.728   4.492  0.7641  0.2264  1.0055
  773SOL     OW 3451   1.483   9.107   7.322  0.3262  0.8218  0.2188
  773SOL    HW1 3452   1.500   9.013   7.328  1.4258  1.0231  0.3596
  773SOL    HW2 3453   1.482   9.137   7.413 -2.0113  0.6399  0.3268
  774SOL     OW 3454   1.445   2.465   8.239  0.1911  0.7137 -1.2199
  774SOL    HW1 3455   1.425   2.510   8.320 -1.1553 -0.3191 -0.9474
  774SOL    HW2 3456   1.365   2.416   8.218  1.7055 -1.9631 -1.2074
  775SOL     OW 3457   7.922   0.172   2.781 -0.4435 -0.7735  0.1966
  775SOL    HW1 3458   8.003   0.136   2.818  0.7101  0.0995 -1.3537
  775SOL    HW2 3459   7.880   0.216   2.854  1.6139  0.6679  0.6133
  776SOL     OW 3460   1.770   2.511   2.164 -0.3849 -0.1675 -0.3765
  776SOL    HW1 3461   1.860   2.522   2.194 -0.4514  3.4224 -1.0643
  776SOL    HW2 3462   1.717   2.535   2.241 -0.8117 -1.7408 -0.1399
  777SOL     OW 3463   3.600   4.893   2.497 -0.1195  0.5127 -0.0519
  777SOL    HW1 3464   3.555   4.954   2.439  0.8937  2.5429  1.1741
  777SOL    HW2 3465   3.561   4.808   2.478 -2.7790  1.7869 -0.6781
  778SOL     OW 3466   7.858   2.688   0.025 -0.5507  0.5608 -1.0397
  778SOL    HW1 3467   7.918   2.752   0.063 -0.6310  1.6573 -2.6495
  778SOL    HW2 3468   7.804   2.659   0.098  1.5168 -0.0423  0.3525
  779SOL     OW 3469   0.561   8.469   7.616  0.2607  0.5744 -0.1233
  779SOL    HW1 3470   0.540   8.410   7.689 -0.5923  0.0641 -0.7682
  779SOL    HW2 3471   0.580   8.553   7.658 -1.8018  0.7218  0.6103
  780SOL     OW 3472   6.675   5.113   3.329  0.3793  0.0349 -0.6033
  780SOL    HW1 3473   6.671   5.018   3.315 -0.8182 -0.0094 -0.0889
  780SOL    HW2 3474   6.705   5.123   3.419 -0.3904  0.1237 -0.3562
  781SOL     OW 3475   2.885   8.279   7.873 -0.2259 -0.1812 -0.2079
  781SOL    HW1 3476   2.851   8.268   7.962  0.2382  0.7288  0.0899
  781SOL    HW2 3477   2.977   8.253   7.879  0.2502  1.4661 -0.0306
  782SOL     OW 3478   8.504   7.625   0.049  0.0584 -0.2551  0.0824
  782SOL    HW1 3479   8.446   7.658  -0.018 -1.1537 -0.9454  0.7510
  782SOL    HW2 3480   8.587   7.609   0.004 -0.7084 -0.6542 -1.2325
  783SOL     OW 3481   2.612   8.785   4.015  0.7546  0.4678 -0.0467
  783SOL    HW1 3482   2.581   8.745   3.934 -1.1001  0.8571  0.4036
  783SOL    HW2 3483   2.703   8.809   3.998  1.4493 -2.3832 -0.8736
  784SOL     OW 3484   2.492   7.809   2.722  0.9426  0.6992 -0.0318
  784SOL    HW1 3485   2.493   7.873   2.651  1.2308  0.6128 -0.1097
  784SOL    HW2 3486   2.496   7.724   2.677  1.9188  0.6595  0.1001
  785SOL     OW 3487   7.680   6.802   1.145 -0.2003  0.5249 -0.3349
  785SOL    HW1 3488   7.585   6.805   1.142 -0.1874  0.6898 -0.5656
  785SOL    HW2 3489   7.700   6.726   1.200 -0.4646  0.5530 -0.1988
  786SOL     OW 3490   2.392   1.922   0.869  0.0100 -0.7408  0.0167
  786SOL    HW1 3491   2.411   1.829   0.853 -0.3448 -0.9760  0.8891
  786SOL    HW2 3492   2.297   1.926   0.875  0.0093 -0.2711 -0.2649
  787SOL     OW 3493   9.091   5.573   5.989  1.0238 -0.1280 -0.2902
  787SOL    HW1 3494   9.096   5.628   6.067 -1.1872  1.1742 -0.9678
  787SOL    HW2 3495   9.083   5.484   6.022 -0.7854  0.4740  1.0472
  788SOL     OW 3496   4.257   3.114   1.881 -0.0925  0.0467  0.6930
  788SOL    HW1 3497   4.162   3.104   1.884 -0.0794 -0.0060  0.9698
  788SOL    HW2 3498   4.283   3.128   1.973 -0.1202  2.7153  0.3540
  789SOL     OW 3499   7.867   7.854   1.366  0.0410 -0.2344  0.2700
  789SOL    HW1 3500   7.844   7.947   1.373  0.3413 -0.2345  1.7232
  789SOL    HW2 3501   7.822   7.813   1.440  0.7580 -1.0582  0.2695
  790SOL     OW 3502   5.480   0.388   1.422  0.5566 -0.1039  0.3922
  790SOL    HW1 3503   5.447   0.477   1.426  1.4919  0.2269  1.3406
  790SOL    HW2 3504   5.406   0.334   1.451  0.6212  0.5726  1.9517
  791SOL     OW 3505   4.967   5.801   7.968 -0.2793 -0.6635 -0.4407
  791SOL    HW1 3506   4.988   5.836   8.055 -1.5841 -1.5195  0.2391
  791SOL    HW2 3507   5.044   5.822   7.915  0.6735 -0.3874  0.9955
  792SOL     OW 3508   4.292   0.133   8.330 -0.6763 -0.0527  0.1092
  792SOL    HW1 3509   4.359   0.125   8.262 -1.5864 -1.1097 -0.6960
  792SOL    HW2 3510   4.314   0.215   8.374  0.6783  0.0284 -0.6349
  793SOL     OW 3511   1.941   4.889   2.067  0.0076  0.4640 -0.2673
  793SOL    HW1 3512   1.994   4.910   1.990  0.4995 -1.0628 -0.3800
  793SOL    HW2 3513   1.968   4.953   2.132 -0.8288  2.1643 -1.4955
  794SOL     OW 3514   0.136   6.206   7.737  0.2526 -0.3560 -0.0594
  794SOL    HW1 3515   0.117   6.180   7.827 -2.3156 -0.4201 -0.5560
  794SOL    HW2 3516   0.208   6.269   7.745  0.7889 -1.1523  1.9121
  795SOL     OW 3517   5.110   8.284   7.040  0.1599 -0.2534  0.7539
  795SOL    HW1 3518   5.058   8.311   6.964  0.0192  0.8052  1.2020
  795SOL    HW2 3519   5.081   8.195   7.058  0.2433 -0.5494 -0.4703
  796SOL     OW 3520   5.813   7.917   4.118 -0.0233 -0.6839  0.0319
  796SOL    HW1 3521   5.844   7.829   4.095  0.1983 -0.3570 -0.9422
  796SOL    HW2 3522   5.893   7.966   4.137 -0.1432 -0.6583  0.4967
  797SOL     OW 3523   4.346   3.882   2.900  0.1681  0.4648  0.5473
  797SOL    HW1 3524   4.274   3.945   2.892 -1.7438 -1.5542  1.0557
  797SOL    HW2 3525   4.326   3.813   2.837  0.8853 -0.8536  1.7047
  798SOL     OW 3526   6.047   6.891   5.564 -0.3166  0.3531 -0.0162
  798SOL    HW1 3527   6.123   6.846   5.602  0.2597 -0.2730 -1.8122
  798SOL    HW2 3528   5.988   6.904   5.638  0.4560 -1.3905  0.9842
  799SOL     OW 3529   6.541   0.860   2.326 -0.2980 -0.3793 -0.3352
  799SOL    HW1 3530   6.566   0.934   2.381 -2.5805 -0.2730  0.6526
  799SOL    HW2 3531   6.489   0.899   2.256  0.4138 -0.8131 -1.1163
  800SOL     OW 3532   4.685   0.323   6.304  0.0833 -0.0856 -0.0176
  800SOL    HW1 3533   4.769   0.308   6.260 -0.3236  0.0337 -0.8700
  800SOL    HW2 3534   4.645   0.395   6.254 -0.2351  0.3077  0.7910
  801SOL     OW 3535   3.366   5.983   8.187 -0.2614 -0.1160 -0.1797
  801SOL    HW1 3536   3.328   5.991   8.100  0.8018 -1.2660 -0.7804
  801SOL    HW2 3537   3.334   5.899   8.220 -0.7509  0.3597  0.6125
  802SOL     OW 3538   2.911   1.678   4.983 -0.1233  0.1220 -0.0494
  802SOL    HW1 3539   2.916   1.663   5.078  0.8815  1.0385  0.0579
  802SOL    HW2 3540   2.848   1.749   4.973 -1.2512 -0.8519 -0.2016
  803SOL     OW 3541   6.132   6.030   4.665  0.1450  0.5431 -0.2307
  803SOL    HW1 3542   6.141   6.081   4.746  2.4129 -1.5113  0.9415
  803SOL    HW2 3543   6.192   6.073   4.603 -0.1333  0.9750 -0.2062
  804SOL     OW 3544   4.605   2.725   3.227  0.1042 -0.0640 -0.5961
  804SOL    HW1 3545   4.632   2.662   3.160  2.0887 -0.6459  0.6909
  804SOL    HW2 3546   4.559   2.672   3.293  0.1455  0.1476 -0.3970
  805SOL     OW 3547   3.237   3.211   6.108 -0.2120 -0.3962  0.0217
  805SOL    HW1 3548   3.297   3.252   6.170 -2.6081  1.3078  1.4129
  805SOL    HW2 3549   3.211   3.129   6.150 -1.0411  0.2669  0.8521
  806SOL     OW 3550   1.643   3.240   8.336 -0.0623 -0.1756 -0.0210
  806SOL    HW1 3551   1.736   3.223   8.352  0.8173  1.5998 -2.5978
  806SOL    HW2 3552   1.639   3.333   8.314 -2.2509 -0.5217 -1.3710
  807SOL     OW 3553   6.211   4.442   9.018  0.3857 -0.0310  0.2727
  807SOL    HW1 3554   6.180   4.403   9.100  1.5673 -0.4948  0.5088
  807SOL    HW2 3555   6.281   4.501   9.044 -0.0259  0.7321 -0.2969
  808SOL     OW 3556   6.378   1.090   1.154 -0.0458  0.3210  0.5373
  808SOL    HW1 3557   6.369   1.070   1.061  0.2990 -0.3633  0.6449
  808SOL    HW2 3558   6.415   1.178   1.156  0.7944 -0.0018  0.0059
  809SOL     OW 3559   3.401   2.055   8.008 -0.3481 -0.1024 -0.3996
  809SOL    HW1 3560   3.354   2.039   7.926 -1.1768 -0.6106  0.1556
  809SOL    HW2 3561   3.362   1.993   8.070  1.8000 -1.3189 -0.1739
  810SOL     OW 3562   5.575   2.264   7.410 -0.3039 -0.0795 -0.0740
  810SOL    HW1 3563   5.500   2.223   7.368 -0.6191  0.1995  0.2136
  810SOL    HW2 3564   5.645   2.259   7.344  0.0414 -2.1543  0.3917
  811SOL     OW 3565   2.129   3.900   5.062  0.1750 -0.3016  0.5470
  811SOL    HW1 3566   2.210   3.939   5.094 -1.7390  3.4015  1.4546
  811SOL    HW2 3567   2.150   3.871   4.973  2.0144  2.4761 -0.0426
  812SOL     OW 3568   3.664   4.748   8.062  0.0564  0.0434 -0.6408
  812SOL    HW1 3569   3.581   4.787   8.033 -1.0932  0.0873  2.3704
  812SOL    HW2 3570   3.729   4.817   8.048 -0.2382 -0.0882 -3.3296
  813SOL     OW 3571   4.350   7.297   4.229 -0.1852  0.6193 -0.3930
  813SOL    HW1 3572   4.332   7.318   4.137 -0.7311 -0.5277 -0.5779
  813SOL    HW2 3573   4.395   7.374   4.264 -0.8018  1.4403 -1.3704
  814SOL     OW 3574   4.905   2.304   4.614  0.0033 -0.0619 -0.0953
  814SOL    HW1 3575   4.814   2.299   4.644  0.1657  0.2404  0.4503
  814SOL    HW2 3576   4.903   2.266   4.526 -0.8926  1.1413 -0.6198
  815SOL     OW 3577   8.576   6.519   5.319  0.2713  0.0929 -0.3704
  815SOL    HW1 3578   8.545   6.515   5.229 -1.1665 -2.3157  0.1402
  815SOL    HW2 3579   8.500   6.495   5.372  1.4931 -0.2082  1.3652
  816SOL     OW 3580   5.928   2.362   6.198  0.7053  0.0623 -0.0819
  816SOL    HW1 3581   6.023   2.355   6.194  0.7342 -0.6738  1.4217
  816SOL    HW2 3582   5.907   2.364   6.291 -0.9330 -2.9719 -0.2457
  817SOL     OW 3583   5.557   5.213   4.456  0.1388  0.3489 -0.4332
  817SOL    HW1 3584   5.623   5.181   4.517  1.0716  1.6940 -0.6968
  817SOL    HW2 3585   5.520   5.134   4.417  1.1841 -0.4549  0.1565
  818SOL     OW 3586   5.750   8.263   2.807 -0.3903 -0.0092  0.2093
  818SOL    HW1 3587   5.828   8.304   2.770 -1.0830  1.2999  0.1435
  818SOL    HW2 3588   5.732   8.314   2.886 -2.0537  0.7104 -0.6004
  819SOL     OW 3589   8.494   1.130   8.406  0.2673  0.5043 -0.1333
  819SOL    HW1 3590   8.438   1.193   8.450  1.3954  1.1073  0.4952
  819SOL    HW2 3591   8.551   1.183   8.349 -1.0588 -0.2352 -2.2807
  820SOL     OW 3592   0.933   4.472   8.434  0.2887 -0.5731  0.1148
  820SOL    HW1 3593   0.868   4.530   8.474 -0.0379  1.7348 -3.3254
  820SOL    HW2 3594   0.884   4.424   8.367  1.8268  0.4136 -1.8016
  821SOL     OW 3595   0.478   8.527   0.393 -0.0559  0.1202 -0.1075
  821SOL    HW1 3596   0.427   8.502   0.316 -0.0107  3.3011 -1.3191
  821SOL    HW2 3597   0.413   8.543   0.461 -0.4467  1.0085 -0.6754
  822SOL     OW 3598   6.385   2.816   2.805 -0.3267 -0.2126  0.2131
  822SOL    HW1 3599   6.361   2.724   2.820  1.4921 -0.8679 -0.6339
  822SOL    HW2 3600   6.320   2.848   2.742 -1.9358 -0.4026  1.6944
  823SOL     OW 3601   1.974   4.912   4.435  0.1785  0.2270  0.1903
  823SOL    HW1 3602   2.012   4.930   4.521  0.1377 -1.7034  0.6394
  823SOL    HW2 3603   1.975   4.817   4.427 -0.3228  0.3402 -1.7307
  824SOL     OW 3604   0.600   4.237   0.071 -0.3028  0.0339  0.2874
  824SOL    HW1 3605   0.567   4.274  -0.010 -0.2733  1.9357  1.1021
  824SOL    HW2 3606   0.693   4.262   0.073 -0.1189 -0.6395  0.5614
  825SOL     OW 3607   8.393   4.650   8.208  0.1299 -0.0766 -0.5430
  825SOL    HW1 3608   8.472   4.668   8.259  0.2305 -2.7382  0.3778
  825SOL    HW2 3609   8.322   4.658   8.271 -0.1273  0.2385 -0.8724
  826SOL     OW 3610   3.344   1.985   6.086 -0.2204 -0.6080  0.1820
  826SOL    HW1 3611   3.258   1.950   6.062 -0.4075 -1.3241  1.7886
  826SOL    HW2 3612   3.406   1.931   6.038 -0.5945 -1.6832  0.8778
  827SOL     OW 3613   0.929   7.108   4.940  0.3190 -0.0858 -0.6043
  827SOL    HW1 3614   0.853   7.065   4.979  1.7968 -0.4156  2.2037
  827SOL    HW2 3615   0.983   7.036   4.907  0.1560  0.0360 -1.1441
  828SOL     OW 3616   2.181   4.058   1.482 -0.0581  0.0979 -0.1494
  828SOL    HW1 3617   2.254   4.111   1.512 -1.3372  1.1713  1.2561
  828SOL    HW2 3618   2.148   4.015   1.561 -0.8992 -0.4027 -0.7527
  829SOL     OW 3619   0.639   7.942   8.893  0.4567  0.2773  0.2961
  829SOL    HW1 3620   0.682   7.980   8.817  0.1978 -0.0560 -0.0182
  829SOL    HW2 3621   0.600   8.017   8.938 -1.3793  0.2373 -1.1511
  830SOL     OW 3622   7.663   3.293   1.197  0.4380  0.0571  0.1321
  830SOL    HW1 3623   7.571   3.279   1.174  0.4293  1.4934 -0.7854
  830SOL    HW2 3624   7.662   3.309   1.291 -0.0679 -1.2736  0.3808
  831SOL     OW 3625   2.981   7.205   2.179 -0.6833  0.0277 -1.0086
  831SOL    HW1 3626   2.943   7.292   2.171  0.4882  0.5755 -0.7486
  831SOL    HW2 3627   3.053   7.205   2.116  1.6747  0.5637  1.5034
  832SOL     OW 3628   0.327   5.504   2.022 -0.1252 -0.5565  0.1390
  832SOL    HW1 3629   0.234   5.493   2.001 -0.4329 -1.7909  1.9026
  832SOL    HW2 3630   0.373   5.484   1.940 -1.4171  1.5856 -1.1990
  833SOL     OW 3631   4.690   0.125   5.001  0.2253  0.6325  0.2488
  833SOL    HW1 3632   4.693   0.138   4.906 -2.0547  0.6284  0.1150
  833SOL    HW2 3633   4.597   0.129   5.023  0.7843  2.0408  2.7118
  834SOL     OW 3634   0.636   6.581   4.194 -0.4275 -0.3438 -0.0385
  834SOL    HW1 3635   0.727   6.568   4.219  0.1514 -0.7781 -2.1565
  834SOL    HW2 3636   0.633   6.670   4.159 -0.5810 -0.6604 -0.8500
  835SOL     OW 3637   3.514   2.817   4.694  0.2793 -0.1920  0.1796
  835SOL    HW1 3638   3.550   2.729   4.691  3.7677  1.0885 -2.7070
  835SOL    HW2 3639   3.554   2.856   4.772 -0.3968 -0.8042  0.8441
  836SOL     OW 3640   1.582   2.724   7.794 -0.6132 -0.6650 -0.0506
  836SOL    HW1 3641   1.669   2.689   7.811  0.2035  1.5874  0.7649
  836SOL    HW2 3642   1.544   2.737   7.881 -0.8439  0.5024 -0.3113
  837SOL     OW 3643   7.201   1.258   1.657  0.4422 -0.3829  0.1290
  837SOL    HW1 3644   7.113   1.222   1.650 -0.0127  0.3021  1.7123
  837SOL    HW2 3645   7.257   1.196   1.611 -0.9419 -0.4734 -1.5194
  838SOL     OW 3646   1.291   2.031   8.362 -0.1620 -0.3480 -0.2184
  838SOL    HW1 3647   1.325   1.953   8.407 -1.5466 -2.1984 -2.2009
  838SOL    HW2 3648   1.369   2.078   8.333  0.6967 -1.5509  0.0760
  839SOL     OW 3649   2.995   8.768   7.845 -0.0333  0.3472  0.0043
  839SOL    HW1 3650   3.088   8.777   7.822  0.4730 -0.3644  1.5772
  839SOL    HW2 3651   2.972   8.851   7.887  0.3020  0.0471  0.8152
  840SOL     OW 3652   3.685   4.684   4.712  0.2326  0.5124  0.6491
  840SOL    HW1 3653   3.747   4.757   4.702  0.2015  0.7495  1.9872
  840SOL    HW2 3654   3.727   4.626   4.776 -0.0969 -0.2638  0.1715
  841SOL     OW 3655   6.790   1.953   6.067 -0.3167 -0.5603  0.2607
  841SOL    HW1 3656   6.713   1.998   6.033 -0.0454  0.1659  0.5757
  841SOL    HW2 3657   6.764   1.923   6.154 -0.4342 -0.8338  0.1305
  842SOL     OW 3658   3.856   2.620   1.595  0.6952  0.3724 -0.0588
  842SOL    HW1 3659   3.866   2.613   1.500 -1.0116  2.7596 -0.5316
  842SOL    HW2 3660   3.815   2.538   1.621  2.3513 -0.8464 -1.1494
  843SOL     OW 3661   1.274   2.149   0.423  0.1019 -0.2601  0.3156
  843SOL    HW1 3662   1.285   2.234   0.381  0.8947 -1.0945 -1.2464
  843SOL    HW2 3663   1.180   2.132   0.421  0.0526  0.0791 -0.4009
  844SOL     OW 3664   4.067   7.367   5.888  0.2177  0.1100  0.7389
  844SOL    HW1 3665   4.046   7.362   5.795  0.6090  0.8443  0.5981
  844SOL    HW2 3666   4.154   7.408   5.891  0.1461  0.2342  1.4291
  845SOL     OW 3667   0.255   3.306   0.593 -0.1838 -0.1968  0.8630
  845SOL    HW1 3668   0.269   3.239   0.526 -2.3986  0.7100 -0.6083
  845SOL    HW2 3669   0.340   3.350   0.600  0.3687 -0.9461 -0.6482
  846SOL     OW 3670   5.793   3.485   1.764 -0.0208  0.3605  0.3289
  846SOL    HW1 3671   5.747   3.476   1.681  0.8803  1.8353 -0.3728
  846SOL    HW2 3672   5.741   3.434   1.826 -0.9972 -0.3458 -1.0180
  847SOL     OW 3673   3.015   7.617   7.792  0.0763 -0.2319 -0.2051
  847SOL    HW1 3674   3.013   7.624   7.887 -0.3183 -0.3090 -0.2083
  847SOL    HW2 3675   3.031   7.706   7.762 -1.1317  0.0293 -0.1108
  848SOL     OW 3676   7.944   6.782   4.664 -0.5095  0.0421  0.0783
  848SOL    HW1 3677   8.036   6.765   4.686  0.8577  3.1884 -2.4021
  848SOL    HW2 3678   7.936   6.755   4.572 -1.6751  0.9922 -0.1232
  849SOL     OW 3679   5.629   5.021   8.962  0.1673  0.3897  0.3136
  849SOL    HW1 3680   5.626   5.053   8.872  1.4298  1.2415  0.5405
  849SOL    HW2 3681   5.544   5.044   8.999  0.0255  0.9732 -0.3593
  850SOL     OW 3682   2.290   8.857   3.362 -0.4226  0.2730  0.0880
  850SOL    HW1 3683   2.312   8.909   3.285  1.3333 -0.4812  0.0281
  850SOL    HW2 3684   2.207   8.814   3.340  1.0122 -1.5308 -2.2518
  851SOL     OW 3685   4.336   2.464   1.142  0.1321 -0.1453  0.3615
  851SOL    HW1 3686   4.307   2.551   1.115 -1.0189 -0.5494  0.2592
  851SOL    HW2 3687   4.325   2.464   1.238 -0.5825 -0.4256  0.2838
  852SOL     OW 3688   0.168   2.609   4.239  0.0630  0.3879  0.2310
  852SOL    HW1 3689   0.261   2.631   4.239  0.3370 -0.6444  1.1283
  852SOL    HW2 3690   0.134   2.648   4.159  1.9236 -1.9142 -1.8455
  853SOL     OW 3691   1.896   7.809   0.814 -0.7116  0.5932  0.3488
  853SOL    HW1 3692   1.884   7.805   0.719  1.7448 -0.9461  0.0205
  853SOL    HW2 3693   1.920   7.901   0.831 -0.5470  0.7391 -0.6112
  854SOL     OW 3694   1.137   4.715   3.869  0.0547  0.7257  0.0547
  854SOL    HW1 3695   1.116   4.740   3.959  0.7848  0.8940  0.1897
  854SOL    HW2 3696   1.056   4.729   3.820 -0.0529  1.6799  0.4823
  855SOL     OW 3697   1.376   5.893   0.919  0.2502 -0.3368  0.1275
  855SOL    HW1 3698   1.363   5.945   0.840 -0.4802 -1.6415 -0.6636
  855SOL    HW2 3699   1.469   5.871   0.919  0.1326 -0.9047 -0.7828
  856SOL     OW 3700   7.752   7.828   6.041 -0.2421  0.1293 -0.4927
  856SOL    HW1 3701   7.689   7.771   6.086  0.0894 -0.2692 -0.5245
  856SOL    HW2 3702   7.755   7.908   6.094  1.2482 -0.8841  1.0665
  857SOL     OW 3703   2.946   3.225   4.766  0.6441 -0.3033 -0.3371
  857SOL    HW1 3704   2.895   3.264   4.837 -0.5921  1.2074 -1.9591
  857SOL    HW2 3705   3.034   3.216   4.801  0.0137  0.1371  1.4637
  858SOL     OW 3706   7.769   7.019   5.950 -0.8022 -0.2882  0.0180
  858SOL    HW1 3707   7.693   7.077   5.952  1.1928  2.5666 -0.2896
  858SOL    HW2 3708   7.807   7.027   6.037  0.5246  0.4526 -0.5910
  859SOL     OW 3709   1.489   1.106   7.254  0.1631 -0.5959 -0.4112
  859SOL    HW1 3710   1.422   1.164   7.216  0.9190  1.0454  0.6752
  859SOL    HW2 3711   1.553   1.096   7.184 -0.2703 -0.6260 -0.8143
  860SOL     OW 3712   6.457   8.693   3.843 -0.1853 -0.4636 -0.1475
  860SOL    HW1 3713   6.429   8.636   3.914 -1.3463  0.1612 -0.0842
  860SOL    HW2 3714   6.496   8.769   3.886 -0.2487 -0.4041 -0.1946
  861SOL     OW 3715   8.765   4.500   9.096 -0.0778  0.1823  0.3522
  861SOL    HW1 3716   8.746   4.526   9.186 -0.9793  1.1227 -0.0914
  861SOL    HW2 3717   8.828   4.565   9.065 -0.3721  0.3257  0.0552
  862SOL     OW 3718   4.592   8.037   2.992 -0.2877 -0.0187  0.0433
  862SOL    HW1 3719   4.669   7.994   3.030 -1.9618 -1.0848  2.5293
  862SOL    HW2 3720   4.545   7.966   2.948  0.4666  0.7775 -2.1517
  863SOL     OW 3721   0.259   1.806   2.706 -0.9818 -0.1459  0.1422
  863SOL    HW1 3722   0.223   1.718   2.719 -3.0324  0.6950  0.5222
  863SOL    HW2 3723   0.199   1.847   2.643  0.3143  0.7818 -0.5217
  864SOL     OW 3724   0.176   3.300   7.905  0.1184  0.4800  0.6299
  864SOL    HW1 3725   0.146   3.391   7.897  0.6008  0.5946  0.0978
  864SOL    HW2 3726   0.097   3.252   7.931 -0.2997  0.9467  0.2628
  865SOL     OW 3727   6.645   4.143   2.856  0.0958 -0.6433  0.9245
  865SOL    HW1 3728   6.598   4.153   2.939  0.6082 -0.5093  1.1995
  865SOL    HW2 3729   6.713   4.210   2.859  0.1048 -0.6261  0.3837
  866SOL     OW 3730   5.615   2.812   6.978  0.3600 -0.1860  0.2172
  866SOL    HW1 3731   5.708   2.790   6.981  0.5526  0.4980 -0.2806
  866SOL    HW2 3732   5.603   2.854   6.893 -0.1603  0.7634  0.7316
  867SOL     OW 3733   0.121   7.312   4.487  0.0095  0.3420 -0.4322
  867SOL    HW1 3734   0.143   7.313   4.394 -0.5512 -2.2078 -0.6783
  867SOL    HW2 3735   0.165   7.234   4.521 -0.9460  0.4386  1.1370
  868SOL     OW 3736   8.590   9.043   7.390 -0.2619 -0.0054 -0.4679
  868SOL    HW1 3737   8.580   9.079   7.479  3.3614 -0.3411  0.2188
  868SOL    HW2 3738   8.560   8.953   7.398 -1.2258  0.3317  0.0096
  869SOL     OW 3739   3.108   8.854   4.849 -0.6901 -0.2702  0.0608
  869SOL    HW1 3740   3.052   8.801   4.792  0.9730 -0.3505 -1.6150
  869SOL    HW2 3741   3.163   8.904   4.789  1.6400 -0.8548  1.5739
  870SOL     OW 3742   0.333   0.254   8.684 -0.5366 -0.2172  0.1946
  870SOL    HW1 3743   0.420   0.238   8.721  0.2209  0.7703 -1.0605
  870SOL    HW2 3744   0.332   0.203   8.603 -1.7189 -1.3962  0.9159
  871SOL     OW 3745   3.572   3.544   3.645 -0.3380  0.0056 -0.8786
  871SOL    HW1 3746   3.499   3.548   3.584 -0.2529 -2.0953 -1.1883
  871SOL    HW2 3747   3.646   3.580   3.597 -0.6517 -0.0529 -1.4135
  872SOL     OW 3748   5.917   2.832   3.610 -0.4349 -0.3925 -0.6657
  872SOL    HW1 3749   5.870   2.756   3.576  0.0737 -1.7969  1.5460
  872SOL    HW2 3750   5.999   2.833   3.562 -0.7515 -0.8152 -1.2223
  873SOL     OW 3751   8.008   4.657   5.586  0.3694 -0.1372  0.0668
  873SOL    HW1 3752   7.921   4.677   5.621  0.7209 -0.1799  1.0044
  873SOL    HW2 3753   8.022   4.565   5.609  0.1761 -0.4909 -1.1664
  874SOL     OW 3754   8.080   5.008   4.150  0.4979 -0.4412  0.6056
  874SOL    HW1 3755   7.994   4.966   4.160  1.1159 -1.6274  1.1445
  874SOL    HW2 3756   8.143   4.938   4.167  1.5832  0.8826  2.4418
  875SOL     OW 3757   7.968   2.029   8.317 -0.1306  0.5197 -0.0874
  875SOL    HW1 3758   7.922   2.095   8.369 -0.8813 -0.3713  0.4234
  875SOL    HW2 3759   7.946   2.051   8.226 -0.5071  0.8752  0.0870
  876SOL     OW 3760   1.391   4.315   7.636  0.0094 -0.2225 -1.1864
  876SOL    HW1 3761   1.350   4.238   7.673 -1.1185  0.0550 -1.8176
  876SOL    HW2 3762   1.476   4.321   7.681 -0.8132 -0.5342  0.4938
  877SOL     OW 3763   8.234   6.280   8.571  0.6768  0.1250  0.5877
  877SOL    HW1 3764   8.156   6.275   8.516  0.7935  0.0736  0.4246
  877SOL    HW2 3765   8.307   6.287   8.509  0.8419 -0.3315  0.7206
  878SOL     OW 3766   4.498   3.425   5.963 -0.0900  0.2226  0.0254
  878SOL    HW1 3767   4.418   3.373   5.971  0.6861 -1.3535 -1.7461
  878SOL    HW2 3768   4.504   3.471   6.046  0.0093 -3.8199  2.5655
  879SOL     OW 3769   6.610   7.850   4.151  0.0395  0.4465  0.8243
  879SOL    HW1 3770   6.615   7.920   4.216 -1.9662  0.7740  0.7170
  879SOL    HW2 3771   6.602   7.896   4.067  1.5073  0.0385  0.4459
  880SOL     OW 3772   2.135   8.459   3.835  0.5166  0.7523 -0.0977
  880SOL    HW1 3773   2.063   8.406   3.800 -0.5118  1.4599  0.8920
  880SOL    HW2 3774   2.164   8.412   3.913  2.4374 -0.5325 -1.5124
  881SOL     OW 3775   4.735   2.681   3.957 -0.6134 -1.0449 -0.3018
  881SOL    HW1 3776   4.780   2.658   3.876  0.9234 -1.6203  0.6795
  881SOL    HW2 3777   4.667   2.742   3.930  1.0651  0.2613 -1.8216
  882SOL     OW 3778   6.493   7.032   6.547  0.6234 -0.1752  0.2776
  882SOL    HW1 3779   6.550   6.974   6.598  1.1136  0.4454  0.4429
  882SOL    HW2 3780   6.513   7.012   6.456 -0.3801 -1.4153  0.3103
  883SOL     OW 3781   8.878   6.371   6.297 -0.0541  0.4753  0.1470
  883SOL    HW1 3782   8.810   6.307   6.275  1.7348 -1.1711 -0.9287
  883SOL    HW2 3783   8.890   6.421   6.216 -0.5520  1.3331  0.5953
  884SOL     OW 3784   8.554   6.685   4.451  0.4512 -0.2745 -0.2659
  884SOL    HW1 3785   8.521   6.646   4.533  0.1281  0.8330  0.1588
  884SOL    HW2 3786   8.477   6.726   4.412  0.6544 -0.5986 -1.0224
  885SOL     OW 3787   5.719   2.487   1.182  0.0063 -0.1683 -0.2767
  885SOL    HW1 3788   5.642   2.498   1.126  0.1652 -0.6663 -0.5978
  885SOL    HW2 3789   5.709   2.553   1.250 -0.8183 -0.3809 -0.1911
  886SOL     OW 3790   0.283   1.178   5.305  0.8315  0.0938 -0.3621
  886SOL    HW1 3791   0.325   1.150   5.386  0.8122 -1.7397 -0.9465
  886SOL    HW2 3792   0.201   1.127   5.302  2.0195 -1.8782 -2.7361
  887SOL     OW 3793   5.286   5.038   4.978  0.1340 -0.3869 -0.4322
  887SOL    HW1 3794   5.197   5.007   4.994  1.0730 -3.2369 -0.3198
  887SOL    HW2 3795   5.290   5.053   4.884 -0.8326  1.2350 -0.2634
  888SOL     OW 3796   2.170   8.374   4.900  0.5812 -0.1503 -0.9082
  888SOL    HW1 3797   2.157   8.291   4.854  0.6551 -0.2047 -0.8304
  888SOL    HW2 3798   2.229   8.353   4.973 -2.2402 -0.8288  1.3708
  889SOL     OW 3799   7.432   8.156   7.007  0.4035  0.7704 -0.2380
  889SOL    HW1 3800   7.380   8.227   7.045 -2.1516  0.1989 -2.3391
  889SOL    HW2 3801   7.412   8.079   7.061  0.5225  0.9447  0.0548
  890SOL     OW 3802   3.861   5.656   8.215  0.1905 -0.2153  0.4174
  890SOL    HW1 3803   3.947   5.695   8.198 -0.0243  0.9232  1.7514
  890SOL    HW2 3804   3.849   5.665   8.310 -0.8335 -1.5790  0.4459
  891SOL     OW 3805   0.240   1.876   7.170 -0.4276  0.3022  0.2254
  891SOL    HW1 3806   0.225   1.856   7.262 -0.8167  0.1012  0.1241
  891SOL    HW2 3807   0.335   1.874   7.159 -0.2094  2.7833  1.1682
  892SOL     OW 3808   9.091   0.823   8.597 -0.3045  0.4638  0.1078
  892SOL    HW1 3809   9.126   0.888   8.658 -1.3490  0.1261  1.1091
  892SOL    HW2 3810   9.029   0.873   8.543 -1.6257  0.1985  1.3345
  893SOL     OW 3811   8.822   1.919   3.813  0.0712 -0.1708  0.4615
  893SOL    HW1 3812   8.765   1.913   3.737 -0.1393 -1.6748  0.7172
  893SOL    HW2 3813   8.851   1.829   3.829 -0.6523 -0.0728  2.7257
  894SOL     OW 3814   8.516   1.166   0.295 -0.5713  0.1703 -0.1781
  894SOL    HW1 3815   8.584   1.208   0.348 -1.2235  1.4869 -0.3392
  894SOL    HW2 3816   8.564   1.124   0.224  0.1271  0.5596  0.0510
  895SOL     OW 3817   1.232   2.955   2.865  0.6412 -0.6077 -0.3105
  895SOL    HW1 3818   1.217   2.879   2.922 -0.8075 -0.7404 -0.8313
  895SOL    HW2 3819   1.325   2.950   2.843  1.6767  0.2478  3.1384
  896SOL     OW 3820   5.549   6.988   8.782 -0.2545 -0.2080  0.5056
  896SOL    HW1 3821   5.522   6.910   8.733  2.8931 -1.5732  0.6724
  896SOL    HW2 3822   5.549   6.961   8.873 -0.1200  0.3337  0.6708
  897SOL     OW 3823   5.175   8.637   2.643 -0.0203 -0.7011 -0.2376
  897SOL    HW1 3824   5.150   8.683   2.723 -1.1292 -0.7615 -0.5298
  897SOL    HW2 3825   5.099   8.646   2.585  0.7260 -0.7298 -1.2598
  898SOL     OW 3826   7.287   3.914   0.982 -0.3441  0.4649 -0.2381
  898SOL    HW1 3827   7.287   3.819   0.982 -0.2296  0.4449 -1.4877
  898SOL    HW2 3828   7.326   3.938   0.898  1.4458  1.6343  0.8514
  899SOL     OW 3829   5.160   7.156   7.095 -0.6635  0.3108  0.8620
  899SOL    HW1 3830   5.169   7.239   7.141  0.7956 -1.3048  3.7606
  899SOL    HW2 3831   5.095   7.107   7.146  0.2300 -1.1715  0.6428
  900SOL     OW 3832   2.215   1.163   1.452 -0.5595 -0.1265 -0.2531
  900SOL    HW1 3833   2.266   1.232   1.408 -0.7355 -0.2559 -0.6673
  900SOL    HW2 3834   2.140   1.149   1.394 -0.1287 -1.2098 -0.5651
  901SOL     OW 3835   0.597   3.729   5.489 -1.1667  0.0261 -0.5587
  901SOL    HW1 3836   0.604   3.793   5.418 -1.0728 -1.5647 -2.0607
  901SOL    HW2 3837   0.503   3.723   5.507 -1.1479  0.7994 -0.2042
  902SOL     OW 3838   7.957   8.436   3.543  0.3792 -0.3343  0.5930
  902SOL    HW1 3839   8.031   8.485   3.578  1.0077 -0.7313 -0.1470
  902SOL    HW2 3840   7.885   8.499   3.542  1.2966  0.7678 -0.8540
  903SOL     OW 3841   8.744   3.508   5.537  0.1147  0.3914  0.0539
  903SOL    HW1 3842   8.769   3.416   5.548 -1.4486 -0.6587 -3.6634
  903SOL    HW2 3843   8.671   3.519   5.598  3.4223  0.9336  4.4200
  904SOL     OW 3844   7.680   8.724   7.914  0.6222  0.1094 -0.1714
  904SOL    HW1 3845   7.735   8.688   7.844 -0.7990 -0.7068 -0.9078
  904SOL    HW2 3846   7.672   8.653   7.977 -0.4083 -0.1536 -0.5742
  905SOL     OW 3847   2.789   4.362   2.626 -0.3365  0.3598  0.6778
  905SOL    HW1 3848   2.872   4.381   2.670 -0.3562 -1.6458  1.6925
  905SOL    HW2 3849   2.813   4.353   2.533  0.1463  2.0478  0.5978
  906SOL     OW 3850   7.841   4.865   4.372 -0.0004 -0.3088  0.3053
  906SOL    HW1 3851   7.906   4.795   4.373 -0.1312 -0.4238  1.1094
  906SOL    HW2 3852   7.773   4.836   4.432  1.0567  1.5294  2.5274
  907SOL     OW 3853   2.102   0.581   1.358 -0.1950 -0.4889 -0.1462
  907SOL    HW1 3854   2.114   0.566   1.451 -0.3114  0.1564 -0.0231
  907SOL    HW2 3855   2.100   0.677   1.349 -1.9696 -0.5470 -0.5876
  908SOL     OW 3856   1.864   1.753   5.031  0.9034  0.5357  0.2834
  908SOL    HW1 3857   1.918   1.720   5.103  1.7918  0.4322 -0.4059
  908SOL    HW2 3858   1.790   1.796   5.074  0.4154 -1.1584  1.2305
  909SOL     OW 3859   1.071   8.442   8.604 -0.1155 -0.0539 -0.0633
  909SOL    HW1 3860   1.022   8.514   8.566  1.1656  0.9298  0.0803
  909SOL    HW2 3861   1.140   8.423   8.540  0.0203 -0.6430  0.2482
  910SOL     OW 3862   1.356   4.088   3.351  0.5209  0.0215 -0.1182
  910SOL    HW1 3863   1.322   4.102   3.440 -1.4644  2.5366 -1.1513
  910SOL    HW2 3864   1.449   4.112   3.357  0.7629 -1.1946  1.5345
  911SOL     OW 3865   5.049   5.163   1.891  0.1634  0.0765 -0.5962
  911SOL    HW1 3866   5.132   5.209   1.879 -0.4122  1.3251  0.0793
  911SOL    HW2 3867   5.074   5.082   1.938  0.9642  0.5848 -0.1175
  912SOL     OW 3868   5.545   3.652   3.922 -0.2687 -0.1708  0.0606
  912SOL    HW1 3869   5.588   3.696   3.849 -0.7794  2.0399  1.0214
  912SOL    HW2 3870   5.615   3.602   3.964  0.6368  0.7015 -0.3656
  913SOL     OW 3871   5.407   1.738   1.932 -0.7840 -0.0274  0.3157
  913SOL    HW1 3872   5.473   1.752   2.000 -0.0048  0.6198 -0.5429
  913SOL    HW2 3873   5.328   1.713   1.980  0.4863 -2.4771  1.2732
  914SOL     OW 3874   1.268   5.931   4.265 -0.2317  0.0350 -0.1287
  914SOL    HW1 3875   1.255   5.917   4.359  0.1126 -0.3619 -0.1365
  914SOL    HW2 3876   1.356   5.896   4.248 -0.0488  0.6576 -0.4860
  915SOL     OW 3877   8.265   5.413   8.363 -0.1535  0.2915  0.1848
  915SOL    HW1 3878   8.259   5.324   8.328 -1.8663  1.4894 -2.9898
  915SOL    HW2 3879   8.355   5.421   8.394  1.0350 -1.6098 -2.3550
  916SOL     OW 3880   0.902   7.636   3.815 -0.2453 -0.2033  0.1220
  916SOL    HW1 3881   0.870   7.726   3.813 -0.4658 -0.2705  0.6082
  916SOL    HW2 3882   0.863   7.597   3.893 -0.4124 -0.8195 -0.2539
  917SOL     OW 3883   6.517   0.282   4.538 -0.1962  0.3142  0.3374
  917SOL    HW1 3884   6.499   0.189   4.520  3.0424 -0.6246  1.1856
  917SOL    HW2 3885   6.581   0.307   4.472 -0.5687  1.7721  0.5015
  918SOL     OW 3886   7.821   4.547   0.916  0.2971 -0.2101  0.2252
  918SOL    HW1 3887   7.912   4.565   0.892  0.1977  0.1596  0.1247
  918SOL    HW2 3888   7.809   4.454   0.896  0.7858 -0.3757  0.6669
  919SOL     OW 3889   6.501   5.494   2.257 -0.0751  0.2348 -0.3520
  919SOL    HW1 3890   6.568   5.488   2.325  1.7531 -2.0284 -2.1673
  919SOL    HW2 3891   6.420   5.469   2.300  0.2196  2.6340  1.8318
  920SOL     OW 3892   4.809   8.468   5.956 -0.4392 -0.2043  0.0625
  920SOL    HW1 3893   4.747   8.399   5.982 -0.2648  0.4420  2.4669
  920SOL    HW2 3894   4.783   8.544   6.007  2.5118 -0.0091  1.4973
  921SOL     OW 3895   8.995   8.867   0.161 -0.0616  0.2207  0.5051
  921SOL    HW1 3896   9.076   8.894   0.204  1.2913 -2.5783 -0.0745
  921SOL    HW2 3897   8.953   8.809   0.224  0.2927 -1.2752 -0.5731
  922SOL     OW 3898   3.187   1.222   6.416  0.4170 -0.3590  0.0005
  922SOL    HW1 3899   3.273   1.198   6.450  1.0912  0.4374 -1.0440
  922SOL    HW2 3900   3.182   1.317   6.431 -0.2392 -0.3907 -0.0176
  923SOL     OW 3901   2.799   5.701   7.345  0.8700  0.2856 -0.0738
  923SOL    HW1 3902   2.851   5.770   7.303  3.0663 -1.4559 -0.3594
  923SOL    HW2 3903   2.802   5.723   7.438  0.9199  0.9837 -0.2318
  924SOL     OW 3904   5.516   7.230   5.829 -0.2869 -0.0097 -0.1772
  924SOL    HW1 3905   5.594   7.283   5.811  0.0781  0.0658  1.4581
  924SOL    HW2 3906   5.544   7.168   5.896 -0.8416 -2.0083 -1.6980
  925SOL     OW 3907   5.893   2.067   1.290  0.2396 -0.2947 -0.0204
  925SOL    HW1 3908   5.928   2.019   1.365  0.2485  1.5599  1.2372
  925SOL    HW2 3909   5.808   2.100   1.320 -0.2312 -0.3764 -1.2034
  926SOL     OW 3910   3.194   3.278   6.903  0.4681 -0.3241 -0.1157
  926SOL    HW1 3911   3.224   3.370   6.904  0.2929 -0.2103 -1.8725
  926SOL    HW2 3912   3.240   3.238   6.977 -0.2756  1.4007  1.3862
  927SOL     OW 3913   3.290   5.344   8.210 -0.4683  0.2329 -0.4171
  927SOL    HW1 3914   3.239   5.343   8.129  0.0140 -1.8788 -0.7654
  927SOL    HW2 3915   3.308   5.252   8.228  0.1415  0.7019  1.6683
  928SOL     OW 3916   5.229   0.558   8.124  0.5724 -0.3902  0.3801
  928SOL    HW1 3917   5.323   0.539   8.112  0.4080 -1.5752  0.8678
  928SOL    HW2 3918   5.185   0.484   8.083 -0.1311 -0.4507  1.2353
  929SOL     OW 3919   1.237   3.396   1.957 -0.1373 -0.1589  0.6281
  929SOL    HW1 3920   1.271   3.378   2.045  0.0349  0.0643  0.6071
  929SOL    HW2 3921   1.203   3.311   1.927  1.2187 -0.6011  0.2800
  930SOL     OW 3922   1.234   3.691   3.406  0.3372 -0.5779 -0.1592
  930SOL    HW1 3923   1.329   3.700   3.401  0.4086 -1.6486 -1.1080
  930SOL    HW2 3924   1.218   3.598   3.391 -0.8858 -0.3505 -0.3365
  931SOL     OW 3925   3.982   6.002   5.125  0.2080 -0.2600 -0.8663
  931SOL    HW1 3926   3.994   5.983   5.032 -0.0858 -0.4234 -0.8702
  931SOL    HW2 3927   3.915   6.071   5.128  1.1652  0.6995 -0.8462
  932SOL     OW 3928   1.677   8.123   1.100  0.2272 -0.4330  0.0024
  932SOL    HW1 3929   1.752   8.182   1.099 -0.9747  1.2114  1.1149
  932SOL    HW2 3930   1.602   8.180   1.082 -0.7644 -2.0383 -1.1735
  933SOL     OW 3931   3.222   5.466   1.663  0.3846 -0.1984 -0.3038
  933SOL    HW1 3932   3.288   5.412   1.618  0.6249 -0.0280 -0.1550
  933SOL    HW2 3933   3.185   5.408   1.729  1.6313  0.2356  0.8019
  934SOL     OW 3934   8.623   7.780   8.419 -0.0113  0.5579 -0.1844
  934SOL    HW1 3935   8.594   7.837   8.348 -0.2268  0.8582  0.1413
  934SOL    HW2 3936   8.548   7.724   8.437 -0.5680  1.6025  0.9298
  935SOL     OW 3937   0.808   5.961   5.083 -0.4272 -0.0776  0.2633
  935SOL    HW1 3938   0.891   6.006   5.065 -1.8531  3.3677  1.3828
  935SOL    HW2 3939   0.809   5.948   5.178 -0.9407 -0.5081  0.2069
  936SOL     OW 3940   7.737   1.439   2.031 -0.9995  0.6099  0.2122
  936SOL    HW1 3941   7.688   1.487   1.964  0.0026  0.9645 -0.2857
  936SOL    HW2 3942   7.793   1.378   1.981 -0.2004  0.9198  0.7118
  937SOL     OW 3943   8.642   3.061   3.260  0.1681 -0.0942 -0.7610
  937SOL    HW1 3944   8.718   3.104   3.300  0.3304 -0.6444 -0.4594
  937SOL    HW2 3945   8.579   3.131   3.245  0.2294  0.1733  0.1823
  938SOL     OW 3946   2.281   2.918   6.218  0.0488 -0.8724  0.5485
  938SOL    HW1 3947   2.237   2.990   6.172  0.7907 -1.4825 -1.2269
  938SOL    HW2 3948   2.214   2.850   6.224 -0.5048 -0.2499  1.7821
  939SOL     OW 3949   1.663   2.440   0.510  0.0393 -0.4708  0.2846
  939SOL    HW1 3950   1.638   2.348   0.514  0.1295 -0.5149 -0.0777
  939SOL    HW2 3951   1.605   2.477   0.443  1.7122 -0.8357 -1.4708
  940SOL     OW 3952   3.325   5.679   3.031 -0.0004 -0.3543 -0.2982
  940SOL    HW1 3953   3.403   5.734   3.039 -0.1544 -0.2632  0.8346
  940SOL    HW2 3954   3.309   5.649   3.121 -0.9891 -0.7561 -0.6011
  941SOL     OW 3955   8.767   6.728   0.562  0.0479  0.2370 -0.2466
  941SOL    HW1 3956   8.774   6.738   0.467  1.4782 -0.5117 -0.2408
  941SOL    HW2 3957   8.843   6.774   0.597 -1.4531  2.1508  0.7053
  942SOL     OW 3958   1.101   0.989   0.992  0.0058 -0.3385 -0.4809
  942SOL    HW1 3959   1.074   0.900   0.973 -0.6162 -0.3282  0.3153
  942SOL    HW2 3960   1.100   0.995   1.087 -2.1700  1.1650 -0.5330
  943SOL     OW 3961   7.161   5.826   2.241 -0.6328 -0.4273  0.2709
  943SOL    HW1 3962   7.216   5.754   2.272  0.8808  0.8235  0.6193
  943SOL    HW2 3963   7.223   5.892   2.211 -1.9962  0.4531 -0.7124
  944SOL     OW 3964   2.187   4.788   0.290 -0.5580 -0.3851 -0.5309
  944SOL    HW1 3965   2.259   4.790   0.226 -0.1265  2.0199 -0.0793
  944SOL    HW2 3966   2.232   4.786   0.375 -0.9659  1.4579 -0.2380
  945SOL     OW 3967   1.497   9.054   0.273 -0.1980  0.0201  0.4276
  945SOL    HW1 3968   1.518   9.095   0.189 -2.7986 -0.9291 -0.8112
  945SOL    HW2 3969   1.495   8.960   0.253 -1.3631 -0.1878  1.4136
  946SOL     OW 3970   8.567   3.114   1.708 -0.6044  0.3385 -0.1274
  946SOL    HW1 3971   8.545   3.025   1.736  0.6794 -0.1978 -0.7043
  946SOL    HW2 3972   8.598   3.157   1.787 -0.2857 -0.0633 -0.0245
  947SOL     OW 3973   2.459   0.006   8.701 -0.4076  0.0457  0.2119
  947SOL    HW1 3974   2.379   0.047   8.735 -1.1143 -0.6310 -0.5820
  947SOL    HW2 3975   2.487  -0.051   8.773 -0.1695  0.8970  0.8067
  948SOL     OW 3976   5.987   4.702   4.786  0.2523  0.2090  0.3164
  948SOL    HW1 3977   6.075   4.675   4.813 -0.4827 -2.6050  0.1853
  948SOL    HW2 3978   5.928   4.656   4.846 -1.2040  2.9745  1.2068
  949SOL     OW 3979   5.065   0.014   8.722  0.0333  0.3957  0.3375
  949SOL    HW1 3980   5.157   0.038   8.730  0.7354 -2.0848  0.4325
  949SOL    HW2 3981   5.026   0.037   8.807  1.1524 -0.7928  1.1982
  950SOL     OW 3982   1.661   5.766   2.200  0.1798  0.0268  0.1966
  950SOL    HW1 3983   1.653   5.791   2.291 -0.1790 -0.3166  0.2633
  950SOL    HW2 3984   1.750   5.790   2.176  1.7532 -3.4224  1.7877
  951SOL     OW 3985   5.347   7.009   0.354  0.0083 -0.4779 -0.0079
  951SOL    HW1 3986   5.342   7.099   0.325  1.8741  0.0381  1.0833
  951SOL    HW2 3987   5.330   7.013   0.448  1.8329 -0.9651  0.3933
  952SOL     OW 3988   6.180   3.160   3.516  0.2462 -0.3639  0.1053
  952SOL    HW1 3989   6.209   3.180   3.605  1.3497  3.9204 -1.0101
  952SOL    HW2 3990   6.116   3.228   3.495  0.2782 -1.0244 -2.5035
  953SOL     OW 3991   4.612   1.810   7.427 -0.3117 -0.3347 -0.3276
  953SOL    HW1 3992   4.627   1.884   7.486  1.8251 -1.0288  0.0766
  953SOL    HW2 3993   4.643   1.841   7.341 -0.0894 -0.5211 -0.3141
  954SOL     OW 3994   0.530   0.116   0.139  0.3931 -0.4277  0.6817
  954SOL    HW1 3995   0.585   0.187   0.106  1.7660 -1.2319  1.1754
  954SOL    HW2 3996   0.440   0.148   0.127  0.9443  0.8388 -0.3118
  955SOL     OW 3997   3.789   4.485   7.464  0.1475  0.5450 -0.1382
  955SOL    HW1 3998   3.817   4.482   7.373  1.5405 -0.0077  0.2758
  955SOL    HW2 3999   3.784   4.393   7.491 -1.4291  0.6492  0.0281
  956SOL     OW 4000   7.658   1.909   6.974 -0.8700  0.0549 -0.2545
  956SOL    HW1 4001   7.591   1.840   6.976 -1.2415  0.3953  1.9032
  956SOL    HW2 4002   7.717   1.886   7.046  0.6298  0.4635 -1.3272
  957SOL     OW 4003   5.012   7.441   3.891  0.4656  0.4114 -0.0322
  957SOL    HW1 4004   4.954   7.379   3.935  1.5029 -1.8636 -1.6814
  957SOL    HW2 4005   4.955   7.488   3.830 -0.0473 -0.1080  0.0367
  958SOL     OW 4006   1.279   7.849   5.453  0.6069  0.2699  0.0833
  958SOL    HW1 4007   1.213   7.805   5.507 -0.0333  0.2666 -0.6696
  958SOL    HW2 4008   1.238   7.855   5.366  1.1684  1.2546 -0.1308
  959SOL     OW 4009   6.684   6.760   0.535 -0.1063  0.1278  0.7096
  959SOL    HW1 4010   6.673   6.665   0.536 -0.1246  0.1280  0.5560
  959SOL    HW2 4011   6.771   6.774   0.573  1.2657 -0.1599 -2.0420
  960SOL     OW 4012   6.805   7.110   1.251  0.2711 -0.1396 -0.1061
  960SOL    HW1 4013   6.872   7.177   1.236  0.6906 -0.8171 -1.4066
  960SOL    HW2 4014   6.822   7.078   1.340  0.7715  0.6861  0.1004
  961SOL     OW 4015   7.322   7.109   0.611 -0.3285  0.1952 -0.3738
  961SOL    HW1 4016   7.253   7.144   0.556 -0.9647  0.2203  0.4210
  961SOL    HW2 4017   7.307   7.014   0.611 -0.7235  0.2546  0.2689
  962SOL     OW 4018   7.583   9.045   0.386 -0.7941  0.2603  0.0133
  962SOL    HW1 4019   7.511   9.013   0.331 -0.1464  2.1965 -2.1061
  962SOL    HW2 4020   7.649   9.076   0.324  1.2595 -0.0642  1.9135
  963SOL     OW 4021   0.918   5.169   4.461 -0.0371 -0.2709 -0.2633
  963SOL    HW1 4022   0.845   5.112   4.487  0.0145  0.1173  0.7673
  963SOL    HW2 4023   0.939   5.218   4.540  0.0226  1.0771 -1.0928
  964SOL     OW 4024   1.501   8.286   5.905  0.0880 -0.3475 -0.0150
  964SOL    HW1 4025   1.431   8.347   5.930  0.4584  1.0293 -2.0649
  964SOL    HW2 4026   1.581   8.339   5.906  0.8078 -1.4153  0.4580
  965SOL     OW 4027   3.955   1.460   8.700  0.1763 -0.5948 -0.1932
  965SOL    HW1 4028   4.038   1.440   8.744 -0.7286 -2.1427  0.8950
  965SOL    HW2 4029   3.943   1.554   8.714 -0.2631 -1.0436  3.3751
  966SOL     OW 4030   5.038   0.392   1.632  0.1865 -0.2539 -0.1277
  966SOL    HW1 4031   5.077   0.449   1.698 -0.5067  1.2917 -0.9830
  966SOL    HW2 4032   5.097   0.398   1.557  0.0693 -0.5955 -0.2482
  967SOL     OW 4033   4.848   4.412   6.572 -0.3717 -0.1626 -0.6123
  967SOL    HW1 4034   4.938   4.444   6.564 -0.6049  0.4979 -0.6175
  967SOL    HW2 4035   4.858   4.318   6.584  0.2788 -0.2910 -1.8818
  968SOL     OW 4036   0.502   6.126   1.490  0.0663  0.2924 -0.1485
  968SOL    HW1 4037   0.465   6.191   1.551 -0.2928 -0.2217  0.1901
  968SOL    HW2 4038   0.451   6.047   1.507 -0.0853  0.1614 -1.1782
  969SOL     OW 4039   4.375   6.314   2.274  0.4322  0.0694 -0.1387
  969SOL    HW1 4040   4.312   6.339   2.342  0.3841  2.4657 -0.9556
  969SOL    HW2 4041   4.378   6.390   2.216  0.1475 -2.0185 -3.1039
  970SOL     OW 4042   3.646   2.929   4.887 -0.0157  0.3369 -0.1550
  970SOL    HW1 4043   3.685   2.862   4.943  1.4813  0.9750 -0.3953
  970SOL    HW2 4044   3.658   3.011   4.935 -0.1268  0.6867 -0.7063
  971SOL     OW 4045   4.239   1.482   4.402  0.3215  0.1908 -0.0823
  971SOL    HW1 4046   4.283   1.555   4.445 -0.7370  0.4840  0.5657
  971SOL    HW2 4047   4.287   1.469   4.321  0.8741  1.2444  0.0516
  972SOL     OW 4048   8.646   1.492   6.852  0.1110 -0.3643 -0.4078
  972SOL    HW1 4049   8.717   1.550   6.880 -1.1502  1.0982 -0.0916
  972SOL    HW2 4050   8.620   1.527   6.766 -1.0328 -0.0859  0.0344
  973SOL     OW 4051   1.504   7.752   2.914  0.0983  0.1160 -0.0140
  973SOL    HW1 4052   1.466   7.668   2.940 -0.1492  1.0919  3.2979
  973SOL    HW2 4053   1.581   7.729   2.863 -0.8219 -2.0516 -0.5366
  974SOL     OW 4054   5.782   5.382   8.598  0.5383  0.5575  0.0002
  974SOL    HW1 4055   5.804   5.340   8.514 -0.0487 -0.0857  0.1553
  974SOL    HW2 4056   5.839   5.338   8.661  0.5538  0.6209  0.0300
  975SOL     OW 4057   0.052   3.816   1.884 -0.2632  0.2776  0.0270
  975SOL    HW1 4058   0.101   3.757   1.941 -0.4931 -0.4340 -0.4993
  975SOL    HW2 4059   0.008   3.876   1.944 -1.0439 -0.8735  0.6409
  976SOL     OW 4060   4.890   0.219   5.169  0.1681 -0.3579 -0.2691
  976SOL    HW1 4061   4.874   0.289   5.233  0.1924 -0.4061 -0.2108
  976SOL    HW2 4062   4.805   0.179   5.155  0.1065 -0.1503 -0.4941
  977SOL     OW 4063   7.023   2.054   6.262 -0.3773  0.0355 -0.4175
  977SOL    HW1 4064   7.035   2.149   6.270  2.3254 -0.3927  2.4972
  977SOL    HW2 4065   6.928   2.042   6.262 -0.7941  2.6838  0.1610
  978SOL     OW 4066   9.002   5.595   5.040  0.0262  0.1668 -0.4181
  978SOL    HW1 4067   9.006   5.551   5.124  0.3820 -1.0456 -1.0451
  978SOL    HW2 4068   9.093   5.598   5.010 -0.1063  0.4952 -0.7963
  979SOL     OW 4069   3.813   7.196   8.283  0.5005 -0.0793 -0.1653
  979SOL    HW1 4070   3.867   7.230   8.354 -0.2478 -0.3251  0.5352
  979SOL    HW2 4071   3.758   7.130   8.324 -0.3564  0.1900 -0.8540
  980SOL     OW 4072   8.626   6.309   4.481 -0.4075 -0.4938  0.6107
  980SOL    HW1 4073   8.565   6.330   4.411  1.1101 -1.3325 -1.0301
  980SOL    HW2 4074   8.710   6.297   4.438  1.1243  1.2273  2.8453
  981SOL     OW 4075   4.007   7.790   4.405 -0.0073 -0.7465  0.6619
  981SOL    HW1 4076   3.978   7.740   4.481  1.3235  0.1919  1.8133
  981SOL    HW2 4077   3.926   7.821   4.365 -0.7208 -0.9669  1.8844
  982SOL     OW 4078   4.623   7.395   7.352  0.1310  0.3971 -0.0217
  982SOL    HW1 4079   4.603   7.361   7.439 -0.6765 -1.2193 -0.8050
  982SOL    HW2 4080   4.670   7.324   7.308 -1.6214  0.2014 -1.7162
  983SOL     OW 4081   5.153   6.834   7.809  0.0360  0.0161 -0.3664
  983SOL    HW1 4082   5.234   6.803   7.847 -0.1163 -0.6172 -0.5563
  983SOL    HW2 4083   5.084   6.792   7.861 -0.1788 -1.2845 -1.6480
  984SOL     OW 4084   9.095   4.229   8.399 -0.1024  0.2438 -0.1164
  984SOL    HW1 4085   9.132   4.154   8.445 -0.9398  0.3606  0.7806
  984SOL    HW2 4086   9.098   4.205   8.307  1.0177 -0.2667  0.0445
  985SOL     OW 4087   0.217   4.311   5.398 -0.0798  0.1028  0.6140
  985SOL    HW1 4088   0.155   4.254   5.352 -0.2863 -1.1427  2.3540
  985SOL    HW2 4089   0.162   4.367   5.452  0.2083 -2.0665  3.3897
  986SOL     OW 4090   7.831   1.741   8.214 -0.1287 -0.4384  0.4254
  986SOL    HW1 4091   7.904   1.795   8.184 -1.6227  1.2659 -0.3410
  986SOL    HW2 4092   7.870   1.655   8.230  2.0173  0.3916  0.0146
  987SOL     OW 4093   4.734   2.323   1.300  0.2303  0.3996 -0.4003
  987SOL    HW1 4094   4.734   2.405   1.349 -0.9034  1.1791 -1.6341
  987SOL    HW2 4095   4.647   2.319   1.261  0.3352 -1.3076 -0.5271
  988SOL     OW 4096   4.643   4.750   2.413 -0.1043  1.0478 -0.1296
  988SOL    HW1 4097   4.700   4.747   2.490  2.0585  1.1528 -1.6292
  988SOL    HW2 4098   4.627   4.843   2.400 -0.0217  1.0657 -0.1110
  989SOL     OW 4099   4.172   2.145   5.343  0.2504  0.2577 -0.6487
  989SOL    HW1 4100   4.207   2.194   5.268  0.9051  0.0994 -0.4545
  989SOL    HW2 4101   4.082   2.125   5.318  0.6231 -0.2837 -1.6457
  990SOL     OW 4102   0.337   4.858   4.210  0.2060  0.4751  0.3763
  990SOL    HW1 4103   0.266   4.919   4.191  1.2799  1.0845 -2.0161
  990SOL    HW2 4104   0.415   4.913   4.215  0.7153 -0.3187  1.8835
  991SOL     OW 4105   0.919   5.613   7.386  0.4007 -0.1631  0.6294
  991SOL    HW1 4106   0.950   5.522   7.390 -0.4453 -0.5105 -0.1900
  991SOL    HW2 4107   0.917   5.633   7.292  2.8150  1.5230  0.8740
  992SOL     OW 4108   3.346   2.962   6.656  0.6658  0.0192 -0.1401
  992SOL    HW1 4109   3.291   2.888   6.683  0.1963  0.1120 -0.8055
  992SOL    HW2 4110   3.302   2.996   6.578  2.3085 -0.6494 -1.4147
  993SOL     OW 4111   2.544   7.882   6.618 -0.0708 -0.3842 -0.3838
  993SOL    HW1 4112   2.450   7.903   6.625 -0.1350 -1.0733  1.3590
  993SOL    HW2 4113   2.586   7.967   6.604 -0.6703  0.4656  2.4093
  994SOL     OW 4114   6.566   3.669   5.295  0.4893  0.2609  0.3087
  994SOL    HW1 4115   6.597   3.602   5.235 -1.2664 -1.2885  1.0060
  994SOL    HW2 4116   6.545   3.621   5.375  0.0262  1.7954  1.1480
  995SOL     OW 4117   7.151   1.526   6.765 -0.3049 -0.2270 -0.0522
  995SOL    HW1 4118   7.233   1.567   6.740 -0.6235  0.5907  0.2258
  995SOL    HW2 4119   7.170   1.432   6.764  1.1387 -0.0015  1.7708
  996SOL     OW 4120   4.525   2.133   4.412  0.5644  0.2733  0.0345
  996SOL    HW1 4121   4.561   2.190   4.481  2.2257  0.1869 -0.6978
  996SOL    HW2 4122   4.472   2.192   4.359  0.8453  0.7695  0.2887
  997SOL     OW 4123   6.310   2.035   1.360 -0.1483  0.3162 -0.1830
  997SOL    HW1 4124   6.254   1.984   1.418  0.3322 -1.0005 -0.8313
  997SOL    HW2 4125   6.396   2.035   1.402 -0.7417  3.1464  1.2991
  998SOL     OW 4126   4.694   5.582   0.082 -0.4631  0.2705  0.0318
  998SOL    HW1 4127   4.636   5.518   0.124  0.6194 -1.3076 -0.7656
  998SOL    HW2 4128   4.652   5.600  -0.002 -0.2401 -0.2223 -0.1901
  999SOL     OW 4129   5.848   5.547   5.515  0.2549 -0.1386  0.0574
  999SOL    HW1 4130   5.772   5.502   5.478 -0.4337  0.2709  0.9224
  999SOL    HW2 4131   5.816   5.635   5.534  0.5027 -0.3785  1.7765
 1000SOL     OW 4132   5.348   6.123   2.963  0.2136 -0.9545  0.6166
 1000SOL    HW1 4133   5.383   6.035   2.978 -1.5621 -1.5514  1.5161
 1000SOL    HW2 4134   5.366   6.170   3.044 -1.5253 -1.4568  1.3341
 1001SOL     OW 4135   8.162   2.675   5.932 -0.4830 -0.7130 -0.2323
 1001SOL    HW1 4136   8.070   2.649   5.921 -0.8589 -0.3399  1.7608
 1001SOL    HW2 4137   8.159   2.747   5.995  1.1156 -0.0336 -0.8859
 1002SOL     OW 4138   7.805   7.667   7.983 -0.3065 -0.0611  0.1239
 1002SOL    HW1 4139   7.826   7.612   8.058  0.9832 -1.7157 -1.3551
 1002SOL    HW2 4140   7.724   7.630   7.948  0.8486 -1.4521 -1.1901
 1003SOL     OW 4141   8.388   8.049   1.980 -0.0186 -0.1751 -0.0807
 1003SOL    HW1 4142   8.417   8.008   2.061 -1.0236 -0.2307  0.2738
 1003SOL    HW2 4143   8.298   8.076   1.998 -0.8621 -1.6433 -1.6766
 1004SOL     OW 4144   7.120   3.097   4.520 -0.2714  0.0282  0.2316
 1004SOL    HW1 4145   7.034   3.069   4.550 -1.2274  1.5660 -0.8739
 1004SOL    HW2 4146   7.106   3.187   4.490  1.1461 -0.4726 -2.2281
 1005SOL     OW 4147   3.276   1.475   4.910  0.9862  0.2929 -0.2791
 1005SOL    HW1 4148   3.330   1.397   4.903  1.8294  0.9547 -1.3450
 1005SOL    HW2 4149   3.279   1.515   4.823  1.1288  1.8757  0.4209
 1006SOL     OW 4150   7.770   7.019   4.165 -0.1157 -0.1138 -0.5460
 1006SOL    HW1 4151   7.857   7.056   4.151 -0.6144  0.8096 -1.3137
 1006SOL    HW2 4152   7.713   7.070   4.108 -1.0047 -1.3676 -0.8153
 1007SOL     OW 4153   5.818   7.497   3.027  0.4577  0.1687 -0.2966
 1007SOL    HW1 4154   5.748   7.552   2.991 -0.3270 -1.0772 -0.7140
 1007SOL    HW2 4155   5.868   7.469   2.951 -1.3543 -2.6834 -0.5879
 1008SOL     OW 4156   5.289   1.614   7.959  0.2703  0.6191  0.4750
 1008SOL    HW1 4157   5.279   1.555   8.034  0.5642 -0.1957 -0.1223
 1008SOL    HW2 4158   5.377   1.651   7.971  0.1527  0.8121  0.7574
 1009SOL     OW 4159   0.716   5.909   2.075 -0.3075  0.3204  0.3790
 1009SOL    HW1 4160   0.646   5.845   2.087  0.4578 -0.6135  0.0566
 1009SOL    HW2 4161   0.699   5.948   1.989  0.1297 -0.6738 -0.1875
 1010SOL     OW 4162   3.439   4.497   0.115 -0.9778 -0.3831  0.0958
 1010SOL    HW1 4163   3.515   4.440   0.126 -1.2509 -0.6729  0.4985
 1010SOL    HW2 4164   3.464   4.556   0.044 -1.3199 -2.0934 -1.5315
 1011SOL     OW 4165   3.397   3.488   8.741 -0.4896  0.6599 -0.4808
 1011SOL    HW1 4166   3.367   3.577   8.723 -1.0647  0.7106  0.6355
 1011SOL    HW2 4167   3.324   3.432   8.713 -1.3446  0.7335  1.4585
 1012SOL     OW 4168   7.796   4.975   2.778  0.2123 -0.4225  0.5558
 1012SOL    HW1 4169   7.772   5.005   2.866 -0.2489 -0.4121  0.4289
 1012SOL    HW2 4170   7.872   4.919   2.792  0.8936  0.5545  0.8266
 1013SOL     OW 4171   1.116   8.781   8.734  0.0851 -0.5424 -0.4141
 1013SOL    HW1 4172   1.158   8.730   8.664 -1.6876 -1.9882 -0.5124
 1013SOL    HW2 4173   1.035   8.733   8.752 -1.2975  1.8535  0.0830
 1014SOL     OW 4174   1.460   2.392   6.945 -0.5348 -0.4644 -0.1179
 1014SOL    HW1 4175   1.543   2.382   6.898  0.2001 -2.2772  1.4673
 1014SOL    HW2 4176   1.432   2.482   6.924  2.5451  0.7615  0.4899
 1015SOL     OW 4177   4.031   1.306   3.889  0.0004 -0.4471 -0.2807
 1015SOL    HW1 4178   4.028   1.214   3.862 -0.2448 -0.2288 -1.0166
 1015SOL    HW2 4179   4.124   1.325   3.902  0.2972 -0.1272 -2.5309
 1016SOL     OW 4180   7.776   8.539   4.137  0.4179 -0.1266  0.2273
 1016SOL    HW1 4181   7.709   8.605   4.119  2.2454  1.9011  0.4096
 1016SOL    HW2 4182   7.813   8.519   4.051  0.5489 -0.1626  0.2926
 1017SOL     OW 4183   7.366   0.680   5.508  0.6855 -0.0664 -0.1528
 1017SOL    HW1 4184   7.285   0.672   5.458  1.2678  0.3069 -1.1847
 1017SOL    HW2 4185   7.338   0.718   5.592 -0.2436 -0.2510 -0.3604
 1018SOL     OW 4186   8.197   5.390   8.647  0.7707 -0.0234  0.0898
 1018SOL    HW1 4187   8.132   5.458   8.660 -0.2304 -0.8933 -0.2624
 1018SOL    HW2 4188   8.240   5.413   8.564  2.0622  1.4290  1.0949
 1019SOL     OW 4189   0.969   4.029   5.817 -0.7028  0.1926  0.2711
 1019SOL    HW1 4190   0.959   4.013   5.723  0.0795 -0.4259  0.2804
 1019SOL    HW2 4191   0.993   3.943   5.853  0.0216  0.6348  0.8731
 1020SOL     OW 4192   5.103   2.198   3.061  0.5364  0.0135 -0.2874
 1020SOL    HW1 4193   5.136   2.125   3.113  1.2855 -0.1027 -0.9047
 1020SOL    HW2 4194   5.180   2.252   3.044  0.3809 -0.1074 -1.5124
 1021SOL     OW 4195   1.024   4.378   1.670 -0.1282  0.0944 -0.1324
 1021SOL    HW1 4196   1.050   4.394   1.579 -0.3719  1.2383 -0.0136
 1021SOL    HW2 4197   0.932   4.352   1.664 -0.8466  2.4519 -0.0626
 1022SOL     OW 4198   5.805   5.260   8.993 -0.4730 -0.4282 -0.1181
 1022SOL    HW1 4199   5.779   5.169   9.007  1.2891 -1.1125 -1.0666
 1022SOL    HW2 4200   5.845   5.261   8.906 -1.5329  1.5150 -0.6370
 1023SOL     OW 4201   8.484   4.468   3.613  0.2435 -0.0900 -0.2290
 1023SOL    HW1 4202   8.508   4.481   3.705 -1.8228  2.4671  0.0798
 1023SOL    HW2 4203   8.428   4.390   3.614 -0.9734  0.7362  1.0047
 1024SOL     OW 4204   3.114   0.013   3.545 -0.0968  0.2233 -0.3161
 1024SOL    HW1 4205   3.105   0.093   3.596 -3.2608 -1.0050  1.3577
 1024SOL    HW2 4206   3.166  -0.046   3.600 -2.4228 -0.6512  1.1085
 1025SOL     OW 4207   5.345   0.253   8.575 -0.1478 -0.2246  0.1514
 1025SOL    HW1 4208   5.383   0.236   8.489 -0.3277 -3.0243  0.5479
 1025SOL    HW2 4209   5.361   0.347   8.590  0.0895  0.2983 -2.7831
 1026SOL     OW 4210   2.972   7.416   5.929  0.4533  0.3348  0.1013
 1026SOL    HW1 4211   2.963   7.324   5.904 -1.1380  0.9606 -1.8224
 1026SOL    HW2 4212   3.061   7.439   5.901  1.1106 -0.7305  1.1747
 1027SOL     OW 4213   6.831   1.269   6.438  0.2980 -0.7608  0.1699
 1027SOL    HW1 4214   6.839   1.187   6.487  0.0925 -1.6623 -1.2241
 1027SOL    HW2 4215   6.745   1.303   6.463  0.3331 -1.0321  0.6773
 1028SOL     OW 4216   8.867   0.093   5.422  1.3137  0.0662  0.0250
 1028SOL    HW1 4217   8.808   0.143   5.478 -1.8503 -2.5174 -0.6588
 1028SOL    HW2 4218   8.873   0.144   5.341 -2.1952 -0.6403 -0.8458
 1029SOL     OW 4219   2.908   2.150   0.457 -0.3930  0.3799 -0.6413
 1029SOL    HW1 4220   2.960   2.091   0.402 -0.9934 -0.4547 -0.3298
 1029SOL    HW2 4221   2.856   2.200   0.394 -0.2382  0.2322 -0.8919
 1030SOL     OW 4222   5.960   5.086   7.715 -0.4334 -0.4642  0.2238
 1030SOL    HW1 4223   6.007   5.163   7.747 -0.0528  0.1850 -1.7296
 1030SOL    HW2 4224   5.884   5.079   7.772  0.6666  0.0177  1.8167
 1031SOL     OW 4225   3.087   6.157   8.931 -0.0614 -0.3145 -0.1852
 1031SOL    HW1 4226   3.012   6.125   8.881  0.5659 -0.1955 -1.2193
 1031SOL    HW2 4227   3.053   6.168   9.020 -1.4332  0.3103 -0.7580
 1032SOL     OW 4228   8.686   3.209   1.927 -0.6193 -0.1079 -0.3991
 1032SOL    HW1 4229   8.707   3.150   2.000 -1.1769 -1.0584 -0.9946
 1032SOL    HW2 4230   8.608   3.257   1.956  0.0613  0.6521  0.2437
 1033SOL     OW 4231   6.669   7.024   6.028  0.3283 -0.1523 -0.6030
 1033SOL    HW1 4232   6.694   6.954   5.968 -1.0929 -0.7160 -0.5881
 1033SOL    HW2 4233   6.638   7.095   5.971  0.5846 -0.0148 -0.5751
 1034SOL     OW 4234   4.697   0.187   4.731  0.0155  0.2072 -0.2343
 1034SOL    HW1 4235   4.648   0.117   4.686 -0.5399  0.4394  0.0021
 1034SOL    HW2 4236   4.761   0.216   4.666 -1.2118  0.9916 -1.1274
 1035SOL     OW 4237   4.490   3.833   1.842  1.0530  0.1304  0.4349
 1035SOL    HW1 4238   4.397   3.815   1.831  1.0551  1.0935 -1.4906
 1035SOL    HW2 4239   4.524   3.838   1.753  2.3811  2.6319  1.0179
 1036SOL     OW 4240   0.177   8.657   7.804 -0.2444  0.2908  0.1952
 1036SOL    HW1 4241   0.120   8.580   7.807  1.8045 -1.3163  0.3567
 1036SOL    HW2 4242   0.203   8.665   7.713 -0.6962  1.0100  0.1224
 1037SOL     OW 4243   1.126   6.161   0.163 -0.2424 -0.5384  0.5107
 1037SOL    HW1 4244   1.157   6.249   0.184 -0.5033  0.4138 -2.6486
 1037SOL    HW2 4245   1.132   6.113   0.246  2.6924  1.5878  1.7075
 1038SOL     OW 4246   0.582   5.948   0.338 -0.1481  0.1991  0.4655
 1038SOL    HW1 4247   0.651   5.892   0.303 -1.2116 -2.5327  2.4074
 1038SOL    HW2 4248   0.627   6.029   0.362  2.3054 -1.2251  1.0248
 1039SOL     OW 4249   5.833   0.604   3.006  0.0014  0.3431 -0.1661
 1039SOL    HW1 4250   5.799   0.646   2.927  1.6853  1.5782 -0.2802
 1039SOL    HW2 4251   5.797   0.656   3.078 -0.3214  0.1351 -0.1747
 1040SOL     OW 4252   7.346   6.723   0.857 -0.4962  0.1485 -0.2250
 1040SOL    HW1 4253   7.385   6.810   0.850 -1.1088  0.3314 -1.7109
 1040SOL    HW2 4254   7.417   6.669   0.892  0.5904  0.8156 -1.2901
 1041SOL     OW 4255   8.234   3.052   2.227 -0.6301 -0.1261  0.0747
 1041SOL    HW1 4256   8.275   3.135   2.251  0.7968 -0.6517 -0.4371
 1041SOL    HW2 4257   8.219   3.007   2.310  0.4660 -0.2028  0.2389
 1042SOL     OW 4258   0.011   8.855   0.419 -0.1472  0.1687  0.1851
 1042SOL    HW1 4259   0.083   8.847   0.482  0.9515 -0.0827 -1.0544
 1042SOL    HW2 4260   0.002   8.768   0.381 -0.4396  0.4371 -0.3719
 1043SOL     OW 4261   7.652   7.288   8.348  0.4960  0.5290  0.3202
 1043SOL    HW1 4262   7.699   7.311   8.268  3.2805 -1.2129  1.3056
 1043SOL    HW2 4263   7.672   7.360   8.408 -1.2138  1.6051 -0.3367
 1044SOL     OW 4264   7.073   1.773   8.920 -0.3028 -0.2080 -0.3073
 1044SOL    HW1 4265   7.126   1.775   8.840 -0.2899  0.0295 -0.2928
 1044SOL    HW2 4266   7.136   1.791   8.990 -0.7547  2.4012 -0.4728
 1045SOL     OW 4267   8.715   2.282   6.086  0.2177 -0.3755  0.1946
 1045SOL    HW1 4268   8.747   2.373   6.089 -1.2631  0.1380  2.2318
 1045SOL    HW2 4269   8.695   2.268   5.993  3.1844  0.3102 -0.6918
 1046SOL     OW 4270   2.423   5.694   3.751  0.1374  0.4342  0.1368
 1046SOL    HW1 4271   2.350   5.729   3.701 -0.1613  1.4773  1.2470
 1046SOL    HW2 4272   2.494   5.684   3.687 -0.6883  0.2736 -0.7709
 1047SOL     OW 4273   8.942   4.643   5.986  0.2938  0.2684  0.3061
 1047SOL    HW1 4274   8.860   4.617   6.028  0.2921 -0.2710 -0.0126
 1047SOL    HW2 4275   8.928   4.624   5.893  0.2885  1.4586  0.0491
 1048SOL     OW 4276   4.957   5.352   2.114 -0.0521 -0.0130  0.3154
 1048SOL    HW1 4277   5.018   5.392   2.176 -0.5586  0.5949  0.4257
 1048SOL    HW2 4278   5.004   5.350   2.031  0.9205 -1.5200  0.8532
 1049SOL     OW 4279   0.507   0.678   1.358  0.0908  0.2821  0.5983
 1049SOL    HW1 4280   0.538   0.588   1.366  0.5407  0.4449  0.7021
 1049SOL    HW2 4281   0.411   0.670   1.355  0.1703 -0.4182 -2.1471
 1050SOL     OW 4282   6.382   3.552   1.487  0.4609  0.1110  0.2422
 1050SOL    HW1 4283   6.419   3.614   1.424 -0.5471 -1.0640 -1.5914
 1050SOL    HW2 4284   6.452   3.487   1.500  0.6391  0.3047  0.2631
 1051SOL     OW 4285   6.668   5.350   4.817  0.8558  0.3990  0.1403
 1051SOL    HW1 4286   6.654   5.259   4.845  1.2792  0.2115 -0.2436
 1051SOL    HW2 4287   6.640   5.352   4.726  0.2748  0.8056  0.3234
 1052SOL     OW 4288   6.541   2.017   7.048 -0.3135  0.3311  0.1731
 1052SOL    HW1 4289   6.472   1.966   7.092  1.9293 -1.9446  1.3308
 1052SOL    HW2 4290   6.576   1.957   6.982  0.2348  1.6321 -0.7419
 1053SOL     OW 4291   3.715   1.714   8.362 -0.2688 -0.6537 -0.1623
 1053SOL    HW1 4292   3.771   1.648   8.404  0.4912  0.1460  0.1193
 1053SOL    HW2 4293   3.642   1.725   8.423 -0.4838 -1.3508 -0.2893
 1054SOL     OW 4294   2.814   6.861   6.658  0.2981  0.4159 -0.0401
 1054SOL    HW1 4295   2.904   6.864   6.690  0.0867  1.9906  0.5005
 1054SOL    HW2 4296   2.766   6.814   6.726  0.2630  1.8396  0.9739
 1055SOL     OW 4297   6.936   0.542   8.764 -0.2929 -0.2955 -0.0675
 1055SOL    HW1 4298   6.874   0.601   8.721 -0.4085 -0.1240  0.3336
 1055SOL    HW2 4299   6.991   0.599   8.818 -0.5512 -0.5790  0.5004
 1056SOL     OW 4300   6.853   1.907   9.053 -0.3291  0.0150 -0.4289
 1056SOL    HW1 4301   6.937   1.862   9.061 -0.5185 -0.1549  0.8801
 1056SOL    HW2 4302   6.804   1.879   9.130 -1.4689  0.3685 -1.0097
 1057SOL     OW 4303   4.222   1.365   3.585 -0.3896 -0.7041  1.0309
 1057SOL    HW1 4304   4.219   1.339   3.493  0.2921 -0.1288  0.8253
 1057SOL    HW2 4305   4.218   1.283   3.634 -1.4346 -0.9777  0.5178
 1058SOL     OW 4306   5.095   2.443   2.727  0.4619 -0.0339  0.5004
 1058SOL    HW1 4307   5.004   2.423   2.747 -0.0318  0.2541 -1.2710
 1058SOL    HW2 4308   5.142   2.362   2.746 -0.4813 -0.7980 -0.3004
 1059SOL     OW 4309   0.473   8.951   1.502 -0.2067  0.1064 -0.3051
 1059SOL    HW1 4310   0.386   8.915   1.517 -0.1459  0.0070 -0.1913
 1059SOL    HW2 4311   0.489   8.938   1.408  0.8590 -2.5272  0.1495
 1060SOL     OW 4312   8.520   4.547   8.973 -0.0167 -0.2589 -0.3097
 1060SOL    HW1 4313   8.599   4.532   9.025  0.4090  0.7950 -0.6298
 1060SOL    HW2 4314   8.496   4.460   8.940 -1.0123 -1.2013  2.5958
 1061SOL     OW 4315   5.126   5.860   3.735 -0.0000 -0.4878 -0.0728
 1061SOL    HW1 4316   5.058   5.849   3.802 -0.3696 -1.4645 -0.5950
 1061SOL    HW2 4317   5.083   5.913   3.667 -0.3357 -1.3083 -0.5144
 1062SOL     OW 4318   5.608   3.230   5.132  0.6994 -0.3939  0.2898
 1062SOL    HW1 4319   5.641   3.267   5.214 -0.4226 -0.8454  0.9650
 1062SOL    HW2 4320   5.626   3.297   5.066  0.7766  0.3680  1.0666
 1063SOL     OW 4321   3.286   2.118   8.565  0.1818 -0.1310  0.2503
 1063SOL    HW1 4322   3.222   2.154   8.628  1.2253  1.4330  0.4656
 1063SOL    HW2 4323   3.303   2.190   8.505  1.0296 -0.8514 -0.3872
 1064SOL     OW 4324   8.016   2.807   2.629 -0.3228 -0.1969  0.1136
 1064SOL    HW1 4325   7.963   2.761   2.563  1.3824 -0.9617 -0.7941
 1064SOL    HW2 4326   8.046   2.738   2.688 -0.9202  0.3342  1.0536
 1065SOL     OW 4327   8.803   7.416   5.692 -0.1034 -0.8990 -0.1270
 1065SOL    HW1 4328   8.851   7.348   5.738  2.4070 -0.0393 -1.3096
 1065SOL    HW2 4329   8.777   7.376   5.609 -1.6842 -1.4115  0.5728
 1066SOL     OW 4330   2.059   3.553   0.342 -0.6543  0.0570  0.7129
 1066SOL    HW1 4331   2.054   3.648   0.345  0.4379  0.1055  2.8052
 1066SOL    HW2 4332   2.037   3.530   0.252 -0.5138  2.3036  0.0655
 1067SOL     OW 4333   0.950   7.835   5.064  0.4033  0.4416 -0.3676
 1067SOL    HW1 4334   0.954   7.895   5.138 -0.6068  1.4865 -1.1203
 1067SOL    HW2 4335   0.856   7.822   5.049  0.5960 -0.1947 -1.1153
 1068SOL     OW 4336   5.943   6.523   6.465  0.1584  0.3212 -0.2745
 1068SOL    HW1 4337   5.892   6.552   6.541 -1.8683 -1.5055 -0.8244
 1068SOL    HW2 4338   5.963   6.603   6.417 -0.8356  1.2527  0.8150
 1069SOL     OW 4339   3.533   6.372   3.598  0.4872 -0.2723  0.1718
 1069SOL    HW1 4340   3.555   6.436   3.665 -0.3819  0.0264  0.1880
 1069SOL    HW2 4341   3.594   6.391   3.526 -0.5145  1.3845 -0.3029
 1070SOL     OW 4342   8.754   1.202   4.810  0.1764  0.0740 -0.1676
 1070SOL    HW1 4343   8.751   1.124   4.866  0.5210 -0.6421 -1.1099
 1070SOL    HW2 4344   8.705   1.268   4.858 -1.4231 -1.1694  0.0007
 1071SOL     OW 4345   7.449   6.899   8.588  0.0960 -0.1891 -0.2350
 1071SOL    HW1 4346   7.422   6.860   8.505  0.8708 -0.6120 -0.2934
 1071SOL    HW2 4347   7.469   6.990   8.565 -3.9696  1.0683  0.3170
 1072SOL     OW 4348   6.705   0.043   1.355 -0.0295  0.2833  0.3853
 1072SOL    HW1 4349   6.771   0.072   1.418  0.3592  0.5074 -0.1104
 1072SOL    HW2 4350   6.738  -0.041   1.323 -0.9561 -0.5469  1.5291
 1073SOL     OW 4351   5.415   3.735   8.808  0.0801  0.2918  0.0292
 1073SOL    HW1 4352   5.499   3.697   8.831 -0.7355 -2.6757 -1.3878
 1073SOL    HW2 4353   5.365   3.737   8.890  1.3783  1.9558  0.8485
 1074SOL     OW 4354   5.639   9.115   5.383 -0.0703  0.1795 -0.2203
 1074SOL    HW1 4355   5.571   9.155   5.438  0.8069 -1.8008  2.5181
 1074SOL    HW2 4356   5.716   9.169   5.398  0.6461 -1.3516  2.0765
 1075SOL     OW 4357   5.139   0.820   2.944  0.4472  0.0792  0.4152
 1075SOL    HW1 4358   5.102   0.733   2.959  0.9178 -0.1696  0.1755
 1075SOL    HW2 4359   5.212   0.826   3.005  1.5630 -0.4325 -0.8015
 1076SOL     OW 4360   5.823   0.021   1.259  0.2371 -0.6142  0.2264
 1076SOL    HW1 4361   5.837   0.063   1.175 -1.7285 -1.1816 -0.4499
 1076SOL    HW2 4362   5.894   0.052   1.314  1.0198  0.5243 -1.3589
 1077SOL     OW 4363   0.157   8.770   5.504 -0.1463  0.0867  0.3940
 1077SOL    HW1 4364   0.198   8.713   5.569 -1.9028 -1.3951  0.2796
 1077SOL    HW2 4365   0.064   8.749   5.510 -0.5287  1.1147 -1.4581
 1078SOL     OW 4366   0.930   5.278   6.924  0.1851  0.5714  0.2512
 1078SOL    HW1 4367   1.002   5.341   6.920  1.0589 -0.4339 -0.5347
 1078SOL    HW2 4368   0.971   5.193   6.908 -1.0973 -0.1047  0.3683
 1079SOL     OW 4369   6.304   1.124   3.912  0.2037  0.2413  0.0650
 1079SOL    HW1 4370   6.315   1.141   4.006  0.2335 -2.3042  0.6159
 1079SOL    HW2 4371   6.212   1.100   3.903  0.0313  1.1411 -0.7141
 1080SOL     OW 4372   0.353   0.067   4.044  0.1176 -0.5942  0.3121
 1080SOL    HW1 4373   0.257   0.069   4.048  0.1532 -0.5508  1.5757
 1080SOL    HW2 4374   0.374   0.114   3.963 -0.9186 -0.6412 -0.0097
 1081SOL     OW 4375   1.589   2.156   5.378 -0.5267  0.0262  0.3213
 1081SOL    HW1 4376   1.518   2.142   5.315  0.4758 -0.3616 -0.7627
 1081SOL    HW2 4377   1.618   2.245   5.361 -1.2965  0.4822  1.3466
 1082SOL     OW 4378   2.439   6.615   5.360 -0.4834  0.4182 -0.5381
 1082SOL    HW1 4379   2.344   6.606   5.349 -0.4707 -0.6859  0.0626
 1082SOL    HW2 4380   2.465   6.537   5.410  0.4288  1.7423  1.1694
 1083SOL     OW 4381   3.062   5.893   8.374 -0.2871 -0.8277 -0.3796
 1083SOL    HW1 4382   3.108   5.845   8.443 -0.0698  0.3125  0.2750
 1083SOL    HW2 4383   3.130   5.945   8.331 -0.9442  0.9952  0.6955
 1084SOL     OW 4384   0.605   5.489   0.478  0.4240  0.3055  0.1338
 1084SOL    HW1 4385   0.556   5.549   0.534  1.9370  0.1243  1.7491
 1084SOL    HW2 4386   0.607   5.532   0.392  0.8726  2.2723  1.0582
 1085SOL     OW 4387   8.203   4.651   6.280 -0.0629  0.3876 -0.0008
 1085SOL    HW1 4388   8.266   4.614   6.342 -0.4364  1.2372  0.9084
 1085SOL    HW2 4389   8.256   4.702   6.219  0.0483  2.2864  1.6122
 1086SOL     OW 4390   8.363   6.446   2.956  0.3109  0.0913  0.1451
 1086SOL    HW1 4391   8.326   6.470   3.041  2.6807  1.5333  0.8644
 1086SOL    HW2 4392   8.366   6.350   2.956 -1.4776  0.0113  0.8566
 1087SOL     OW 4393   2.741   1.990   2.290  0.4061 -0.3135 -0.2709
 1087SOL    HW1 4394   2.728   2.085   2.287  0.5717 -0.2723  0.3155
 1087SOL    HW2 4395   2.692   1.957   2.214 -1.3602  0.0475  0.6458
 1088SOL     OW 4396   1.281   0.578   4.113 -0.3682  0.0684  0.0242
 1088SOL    HW1 4397   1.258   0.489   4.139 -1.4867  0.2014 -0.4162
 1088SOL    HW2 4398   1.329   0.568   4.031  0.1050 -0.1649  0.3305
 1089SOL     OW 4399   8.119   5.485   3.291 -0.0173 -0.1511  0.1658
 1089SOL    HW1 4400   8.057   5.533   3.345  0.1243 -0.0749  0.2627
 1089SOL    HW2 4401   8.135   5.404   3.339 -0.4456 -0.4059 -0.1191
 1090SOL     OW 4402   7.544   3.624   6.100  0.0605  0.1353 -0.0911
 1090SOL    HW1 4403   7.589   3.545   6.070 -0.8356  0.3218 -2.0684
 1090SOL    HW2 4404   7.560   3.689   6.031 -0.7454  1.1080  0.6100
 1091SOL     OW 4405   1.783   3.870   6.249 -0.2479 -0.1681 -0.1787
 1091SOL    HW1 4406   1.788   3.805   6.319 -0.0150  0.3606  0.2989
 1091SOL    HW2 4407   1.875   3.892   6.230 -0.3573  0.9203  0.5050
 1092SOL     OW 4408   1.350   0.627   4.952 -0.5033  0.4570  0.9388
 1092SOL    HW1 4409   1.302   0.590   5.026 -2.0634 -0.7166 -0.5679
 1092SOL    HW2 4410   1.417   0.562   4.931 -0.5238  0.4467  0.9034
 1093SOL     OW 4411   3.859   8.796   8.272  0.2016  0.1796 -0.1033
 1093SOL    HW1 4412   3.931   8.777   8.333 -0.3145 -1.3020  0.1012
 1093SOL    HW2 4413   3.891   8.869   8.219  1.8150 -0.3536  0.0718
 1094SOL     OW 4414   5.982   1.445   7.395  0.0137 -0.3536 -0.3050
 1094SOL    HW1 4415   5.918   1.379   7.371 -1.0566  0.9835 -1.3149
 1094SOL    HW2 4416   5.956   1.473   7.483 -1.0203  0.3979 -0.8301
 1095SOL     OW 4417   0.204   0.596   6.130  0.0190 -0.3379 -0.0001
 1095SOL    HW1 4418   0.248   0.585   6.215 -1.7571 -1.0223  0.8923
 1095SOL    HW2 4419   0.121   0.549   6.140 -1.0097  1.0254 -1.5220
 1096SOL     OW 4420   2.716   1.587   7.107 -0.2913  0.2371  0.2075
 1096SOL    HW1 4421   2.693   1.573   7.199  1.7704 -1.6567  0.5360
 1096SOL    HW2 4422   2.773   1.513   7.085  0.2226  1.2522 -2.2650
 1097SOL     OW 4423   1.753   5.264   3.015 -0.6649 -0.5421  0.1196
 1097SOL    HW1 4424   1.777   5.226   3.100 -0.7810  0.6634  0.7123
 1097SOL    HW2 4425   1.698   5.339   3.037  0.1766  0.4276 -0.9740
 1098SOL     OW 4426   8.888   2.168   8.092 -0.1762 -0.2646 -0.5949
 1098SOL    HW1 4427   8.891   2.093   8.151 -2.2569  0.8246  1.0773
 1098SOL    HW2 4428   8.978   2.199   8.087  0.3295 -1.4420  0.6482
 1099SOL     OW 4429   7.298   6.661   2.705 -0.2221 -0.2164 -0.3371
 1099SOL    HW1 4430   7.370   6.699   2.756 -0.7598 -0.4971  0.6632
 1099SOL    HW2 4431   7.307   6.700   2.619  1.1035 -0.2091 -0.2266
 1100SOL     OW 4432   4.331   7.892   3.368 -0.1870  0.2045  0.1296
 1100SOL    HW1 4433   4.241   7.876   3.340 -0.2594  1.0349 -0.1623
 1100SOL    HW2 4434   4.384   7.833   3.315 -0.5506 -0.1877  0.2000
 1101SOL     OW 4435   1.920   5.139   8.374  0.1488  0.0174  0.3611
 1101SOL    HW1 4436   1.937   5.230   8.353 -1.5537  0.6562  1.5178
 1101SOL    HW2 4437   1.887   5.101   8.292  2.1678  0.0357 -0.4995
 1102SOL     OW 4438   3.976   1.858   6.175 -0.2350  1.2418  0.4013
 1102SOL    HW1 4439   4.042   1.912   6.133  1.6250 -0.1709  1.3525
 1102SOL    HW2 4440   4.025   1.788   6.218 -2.3987 -0.2547  0.6441
 1103SOL     OW 4441   5.451   1.491   9.003 -0.2129 -0.5747  0.2403
 1103SOL    HW1 4442   5.448   1.586   9.016 -1.8506 -0.5752  0.0567
 1103SOL    HW2 4443   5.543   1.473   8.981 -0.3581  1.3359 -2.3753
 1104SOL     OW 4444   7.066   7.762   4.705 -0.2150  0.1641  0.2096
 1104SOL    HW1 4445   7.002   7.808   4.760 -1.1713  0.5487 -1.1538
 1104SOL    HW2 4446   7.081   7.822   4.632  0.3799 -0.6816 -0.3687
 1105SOL     OW 4447   2.661   0.789   1.577 -0.1250 -0.4115  0.6653
 1105SOL    HW1 4448   2.724   0.788   1.649 -1.0310 -0.3485  1.4812
 1105SOL    HW2 4449   2.657   0.881   1.549 -0.6274 -0.2328  1.3132
 1106SOL     OW 4450   2.061   7.881   3.395  0.5029 -0.0553  0.1109
 1106SOL    HW1 4451   2.086   7.937   3.322 -1.0060  0.4270 -0.0600
 1106SOL    HW2 4452   1.982   7.921   3.431 -0.3734 -1.8197  0.2585
 1107SOL     OW 4453   1.401   0.132   6.494  0.2599 -0.2619 -0.3957
 1107SOL    HW1 4454   1.358   0.047   6.503  2.1929 -1.1452  1.3536
 1107SOL    HW2 4455   1.375   0.181   6.572 -0.4231  0.5942 -1.1340
 1108SOL     OW 4456   4.509   3.347   6.656  0.1160 -0.3411 -0.1595
 1108SOL    HW1 4457   4.532   3.313   6.570  0.5689 -1.5145  0.4091
 1108SOL    HW2 4458   4.414   3.336   6.662  0.3872 -2.6923  0.4786
 1109SOL     OW 4459   3.300   5.751   8.287  0.0684 -0.1051  0.6305
 1109SOL    HW1 4460   3.370   5.701   8.329 -0.4180 -0.4726  1.0211
 1109SOL    HW2 4461   3.238   5.684   8.256 -0.3149  0.2259  0.6737
 1110SOL     OW 4462   4.174   1.849   7.499  0.1904 -0.2835 -0.3195
 1110SOL    HW1 4463   4.262   1.884   7.488 -0.1068  0.0192 -2.0286
 1110SOL    HW2 4464   4.118   1.926   7.506  0.0705 -0.4733  1.1266
 1111SOL     OW 4465   4.988   1.947   4.933 -0.1623  0.2980  0.2343
 1111SOL    HW1 4466   4.986   1.876   4.868  0.5107  0.4501  0.0397
 1111SOL    HW2 4467   5.081   1.972   4.938 -0.5628  2.1683 -0.7854
 1112SOL     OW 4468   4.507   0.830   7.521  0.5338 -0.4602  0.4589
 1112SOL    HW1 4469   4.446   0.774   7.473 -0.7429 -1.5600  3.1909
 1112SOL    HW2 4470   4.494   0.917   7.483 -0.4114 -1.2525 -1.1321
 1113SOL     OW 4471   2.860   3.784   1.888  0.5550 -0.2126 -0.1639
 1113SOL    HW1 4472   2.845   3.863   1.836 -0.8209 -0.1086  0.3575
 1113SOL    HW2 4473   2.930   3.738   1.841 -0.3909  0.0548 -1.9111
 1114SOL     OW 4474   7.399   3.206   4.902 -0.3232 -0.3939  0.0912
 1114SOL    HW1 4475   7.460   3.249   4.961  1.3068 -0.3304 -1.5563
 1114SOL    HW2 4476   7.313   3.216   4.944  0.3600  2.1316  1.0413
 1115SOL     OW 4477   5.642   7.592   2.123 -0.0925 -0.4513  0.4596
 1115SOL    HW1 4478   5.598   7.568   2.042 -0.0965 -2.0168  0.9070
 1115SOL    HW2 4479   5.734   7.599   2.100 -0.1419 -0.5054  0.2497
 1116SOL     OW 4480   1.584   4.132   6.994 -0.5401  0.2907 -0.4913
 1116SOL    HW1 4481   1.625   4.050   7.021 -1.9858 -1.3386 -2.9074
 1116SOL    HW2 4482   1.580   4.184   7.075 -0.6317 -2.4589  1.4225
 1117SOL     OW 4483   0.824   5.765   1.453 -0.4440 -0.1558 -0.0295
 1117SOL    HW1 4484   0.759   5.753   1.384  2.0692  0.4965 -2.6992
 1117SOL    HW2 4485   0.801   5.849   1.493 -0.7006  0.6000 -1.6552
 1118SOL     OW 4486   0.520   3.156   9.019 -0.1795 -0.2560  0.2037
 1118SOL    HW1 4487   0.456   3.129   9.085 -0.5051 -2.2606 -0.8548
 1118SOL    HW2 4488   0.490   3.243   8.992 -1.8251 -0.6851  0.5265
 1119SOL     OW 4489   2.366   3.329   8.516  0.8116  0.8324 -0.8643
 1119SOL    HW1 4490   2.440   3.389   8.521  0.8953  0.6765  0.1017
 1119SOL    HW2 4491   2.393   3.254   8.570  0.1078  0.6084 -0.8107
 1120SOL     OW 4492   3.704   4.068   1.931  0.4535  0.0352 -0.2007
 1120SOL    HW1 4493   3.636   4.133   1.911  0.8723  0.2872 -0.8612
 1120SOL    HW2 4494   3.781   4.100   1.884  0.3462 -1.5873 -1.5475
 1121SOL     OW 4495   0.592   2.523   1.469  0.1369  0.4734 -0.1545
 1121SOL    HW1 4496   0.551   2.509   1.384 -0.0119 -2.0898  0.2684
 1121SOL    HW2 4497   0.681   2.491   1.459  0.1758  0.3281  0.6011
 1122SOL     OW 4498   3.977   5.476   6.612 -0.1888 -0.0954 -0.7145
 1122SOL    HW1 4499   3.989   5.537   6.685  0.6574  1.0064 -1.7200
 1122SOL    HW2 4500   3.902   5.510   6.564 -0.6040 -0.6876 -0.4957
 1123SOL     OW 4501   7.845   1.728   0.821 -0.2501 -0.4904  0.0524
 1123SOL    HW1 4502   7.773   1.747   0.881  0.3838  1.1541  0.3382
 1123SOL    HW2 4503   7.901   1.667   0.869  0.9316  1.7730  1.7506
 1124SOL     OW 4504   2.301   4.296   8.363 -0.0533  0.2835 -0.3009
 1124SOL    HW1 4505   2.340   4.375   8.325 -0.5206 -0.2324 -1.9437
 1124SOL    HW2 4506   2.288   4.318   8.455  0.9257  1.6870 -0.4544
 1125SOL     OW 4507   5.123   5.648   1.345  0.1144 -0.2421  0.1259
 1125SOL    HW1 4508   5.041   5.638   1.393  0.5140  0.9394  1.1007
 1125SOL    HW2 4509   5.189   5.607   1.402  0.1692 -1.5923 -0.8559
 1126SOL     OW 4510   5.287   0.811   4.009 -0.1153  0.2424 -0.0929
 1126SOL    HW1 4511   5.263   0.748   3.941  0.0687  1.9001 -1.7710
 1126SOL    HW2 4512   5.361   0.771   4.054 -0.0805 -0.7899 -1.0274
 1127SOL     OW 4513   2.566   5.372   0.306 -0.1682  0.1711  0.1521
 1127SOL    HW1 4514   2.624   5.336   0.239 -1.3072  0.2488 -0.9238
 1127SOL    HW2 4515   2.616   5.366   0.387  1.2301 -0.0019 -0.6830
 1128SOL     OW 4516   0.353   4.766   2.819  0.5148 -0.1909 -0.0324
 1128SOL    HW1 4517   0.278   4.797   2.870  0.1993  0.3402 -0.7954
 1128SOL    HW2 4518   0.427   4.772   2.879  0.2472  0.9384  0.2197
 1129SOL     OW 4519   7.324   8.676   0.605 -0.5229  0.1182 -0.0249
 1129SOL    HW1 4520   7.417   8.664   0.589 -0.5159 -0.5598  0.4813
 1129SOL    HW2 4521   7.294   8.734   0.534  0.1517 -0.1586 -0.5392
 1130SOL     OW 4522   8.978   3.316   2.542 -0.2690 -0.0418 -0.0257
 1130SOL    HW1 4523   8.916   3.354   2.480  0.5431 -0.3968 -1.0936
 1130SOL    HW2 4524   8.948   3.226   2.556 -1.1982  0.4221  1.1488
 1131SOL     OW 4525   0.140   2.697   6.137  0.8791  0.2019 -0.5360
 1131SOL    HW1 4526   0.141   2.778   6.187  0.7743  0.3961 -0.8447
 1131SOL    HW2 4527   0.209   2.643   6.176 -0.4389 -0.4038  1.0597
 1132SOL     OW 4528   6.222   8.259   8.192  0.0768  0.3130  0.0838
 1132SOL    HW1 4529   6.174   8.291   8.116  0.7132 -1.0585 -0.9386
 1132SOL    HW2 4530   6.246   8.339   8.240 -2.8447  1.0609  0.4807
 1133SOL     OW 4531   4.792   7.886   8.390  0.2342 -0.3080  0.2697
 1133SOL    HW1 4532   4.834   7.811   8.348 -0.3544 -0.5928  0.1882
 1133SOL    HW2 4533   4.749   7.933   8.318 -0.5763 -0.6666  0.5062
 1134SOL     OW 4534   3.668   4.286   7.797 -0.0528 -0.3452 -0.0916
 1134SOL    HW1 4535   3.734   4.333   7.847 -1.2340  0.1415  1.0590
 1134SOL    HW2 4536   3.587   4.297   7.847 -0.7075 -2.2208 -0.6427
 1135SOL     OW 4537   8.820   3.993   7.849  0.0812  0.1724  0.2623
 1135SOL    HW1 4538   8.747   3.953   7.896  0.2092  1.7058  1.8755
 1135SOL    HW2 4539   8.785   4.073   7.812  0.2305 -0.5573 -1.5764
 1136SOL     OW 4540   4.313   3.574   7.922  0.0873  0.5831  0.1583
 1136SOL    HW1 4541   4.359   3.658   7.928 -0.1215  0.6407  1.2109
 1136SOL    HW2 4542   4.271   3.576   7.836 -2.8504  3.1394  1.4431
 1137SOL     OW 4543   1.904   6.534   4.815 -0.1537 -0.0179 -0.2693
 1137SOL    HW1 4544   1.893   6.445   4.782  0.6961 -0.2806  0.1155
 1137SOL    HW2 4545   1.978   6.528   4.876  0.2880  1.0601 -0.6730
 1138SOL     OW 4546   6.182   5.562   2.343  0.2562 -0.5170 -0.3221
 1138SOL    HW1 4547   6.137   5.647   2.339  0.9835 -0.1696 -2.0974
 1138SOL    HW2 4548   6.164   5.522   2.258  1.7279 -1.1903 -0.3394
 1139SOL     OW 4549   5.771   2.480   8.815 -0.3996  0.0799 -0.2217
 1139SOL    HW1 4550   5.788   2.509   8.726  1.0627  1.4809  0.4611
 1139SOL    HW2 4551   5.752   2.560   8.863  0.1878 -0.4866  1.0024
 1140SOL     OW 4552   5.953   1.706   6.882  0.0247 -0.0932 -0.2641
 1140SOL    HW1 4553   6.041   1.674   6.865  0.4072  0.0785  1.2737
 1140SOL    HW2 4554   5.965   1.798   6.905 -0.4331 -0.3009  0.8732
 1141SOL     OW 4555   5.729   4.180   8.548 -0.1458  0.1221  0.5079
 1141SOL    HW1 4556   5.751   4.270   8.524  0.0824  0.3862  1.6427
 1141SOL    HW2 4557   5.771   4.127   8.480 -2.6519  0.9204 -1.8618
 1142SOL     OW 4558   7.990   4.520   5.047 -0.4329 -0.1392 -0.0340
 1142SOL    HW1 4559   7.907   4.564   5.028  1.1881  2.7176 -1.1274
 1142SOL    HW2 4560   8.036   4.519   4.963  1.2059 -0.3592  0.8357
 1143SOL     OW 4561   8.469   3.920   4.326 -0.5202  0.0523 -0.0611
 1143SOL    HW1 4562   8.542   3.937   4.385  0.0138  0.0508 -0.7129
 1143SOL    HW2 4563   8.481   3.829   4.298 -0.6181  0.1315 -0.3697
 1144SOL     OW 4564   4.641   5.909   5.574 -0.5301  0.1536 -0.6919
 1144SOL    HW1 4565   4.703   5.886   5.644 -0.7149 -0.6525 -0.7806
 1144SOL    HW2 4566   4.695   5.946   5.505 -0.3263  0.8241 -0.1841
 1145SOL     OW 4567   4.921   4.347   2.149 -0.0770  0.7400  0.1167
 1145SOL    HW1 4568   4.841   4.370   2.195 -0.4046  0.0412 -0.0878
 1145SOL    HW2 4569   4.981   4.318   2.217 -1.2036 -2.1708  0.0050
 1146SOL     OW 4570   1.530   3.802   4.683 -0.1057  0.3300 -0.1139
 1146SOL    HW1 4571   1.536   3.779   4.776  1.3480 -1.4184 -0.5974
 1146SOL    HW2 4572   1.572   3.730   4.637  1.2418  2.2153 -2.0166
 1147SOL     OW 4573   6.294   5.356   3.411  0.0290  0.2054 -0.8319
 1147SOL    HW1 4574   6.270   5.371   3.502 -2.2756 -1.0334 -1.1455
 1147SOL    HW2 4575   6.373   5.409   3.397  0.6602  0.1462  1.9470
 1148SOL     OW 4576   4.606   1.538   8.050  0.3572  0.9372 -0.1265
 1148SOL    HW1 4577   4.537   1.588   8.095 -1.1942 -0.7862 -0.4927
 1148SOL    HW2 4578   4.622   1.588   7.970 -1.7228  0.5257 -0.8670
 1149SOL     OW 4579   6.966   6.441   5.991 -0.5588  0.2127 -0.8928
 1149SOL    HW1 4580   6.879   6.414   5.964 -1.4657  0.0793  1.8454
 1149SOL    HW2 4581   6.951   6.516   6.048  1.4043  2.2121 -2.8020
 1150SOL     OW 4582   1.886   3.094   7.858 -0.2179  0.1210 -0.2087
 1150SOL    HW1 4583   1.854   3.114   7.946 -0.8768 -0.4036 -0.3198
 1150SOL    HW2 4584   1.906   3.179   7.820 -3.5251  0.7373 -0.8797
 1151SOL     OW 4585   4.997   5.889   6.514  0.2493  0.2239 -0.2276
 1151SOL    HW1 4586   4.963   5.902   6.425  0.9302  1.0626 -0.3843
 1151SOL    HW2 4587   5.018   5.977   6.544 -1.8157  0.1767  1.5548
 1152SOL     OW 4588   3.499   8.303   6.924 -0.3319 -0.1704  0.1004
 1152SOL    HW1 4589   3.536   8.262   7.002 -0.6072 -1.3144 -0.3505
 1152SOL    HW2 4590   3.532   8.393   6.926  1.6287 -0.8500  0.2540
 1153SOL     OW 4591   1.141   7.735   5.214 -0.0465  0.1230  0.1235
 1153SOL    HW1 4592   1.083   7.691   5.276 -0.7119 -0.4018 -0.8418
 1153SOL    HW2 4593   1.082   7.779   5.152  0.5917  2.0323  0.7788
 1154SOL     OW 4594   2.637   7.094   1.869  0.2929  0.6754  0.8109
 1154SOL    HW1 4595   2.646   7.110   1.963  0.4128 -1.0073  1.1147
 1154SOL    HW2 4596   2.702   7.027   1.850 -0.6253  0.0527 -0.2155
 1155SOL     OW 4597   0.181   6.402   2.976  0.2345 -0.2222 -0.0952
 1155SOL    HW1 4598   0.151   6.312   2.991  0.3012 -0.4287 -1.0728
 1155SOL    HW2 4599   0.122   6.457   3.027  1.2649 -0.9084  1.9565
 1156SOL     OW 4600   6.880   7.372   7.246 -0.1774 -0.1893  0.6625
 1156SOL    HW1 4601   6.849   7.330   7.166 -0.5790 -1.1035  1.2897
 1156SOL    HW2 4602   6.880   7.303   7.312 -0.9405  0.8079  1.7444
 1157SOL     OW 4603   2.802   2.293   0.251  0.2361  0.4310  0.0686
 1157SOL    HW1 4604   2.869   2.360   0.267 -0.9967  1.4839  0.9982
 1157SOL    HW2 4605   2.735   2.337   0.199  0.1201 -0.5401 -0.6417
 1158SOL     OW 4606   5.684   4.613   2.630 -0.1622 -0.0049 -0.0414
 1158SOL    HW1 4607   5.696   4.558   2.706  0.3536 -0.4993 -0.4752
 1158SOL    HW2 4608   5.654   4.553   2.561  0.3759  0.2487 -0.5080
 1159SOL     OW 4609   5.997   8.029   4.911 -0.2391 -0.4799  0.0213
 1159SOL    HW1 4610   5.954   7.988   4.836  0.9029 -1.4994 -0.1016
 1159SOL    HW2 4611   6.068   8.080   4.874 -1.2323  1.1002  0.2329
 1160SOL     OW 4612   4.706   8.652   3.481 -0.3866  0.4647 -0.2242
 1160SOL    HW1 4613   4.672   8.728   3.528 -1.2436  0.5075 -0.8992
 1160SOL    HW2 4614   4.788   8.632   3.526  0.3755  2.3916 -0.6386
 1161SOL     OW 4615   3.400   5.610   3.837 -0.0464  0.5342 -0.0899
 1161SOL    HW1 4616   3.422   5.631   3.928 -1.1431  2.2887 -0.1910
 1161SOL    HW2 4617   3.485   5.610   3.792  0.2785  2.0454  0.4854
 1162SOL     OW 4618   7.161   8.982   7.207 -0.0799  0.2393  0.3427
 1162SOL    HW1 4619   7.254   8.991   7.228  0.5914 -1.0758 -1.7521
 1162SOL    HW2 4620   7.121   9.063   7.238  1.7469  0.8387  1.2846
 1163SOL     OW 4621   8.397   0.045   1.587 -0.3883 -0.3084 -0.1171
 1163SOL    HW1 4622   8.323  -0.009   1.614 -1.5788  0.5542 -1.4866
 1163SOL    HW2 4623   8.366   0.089   1.508  0.2957  2.7896  1.2101
 1164SOL     OW 4624   8.361   6.341   3.457 -0.7187 -0.0652 -0.0114
 1164SOL    HW1 4625   8.315   6.412   3.502 -2.8650 -2.0539  1.1303
 1164SOL    HW2 4626   8.292   6.284   3.424  0.9118 -1.7091 -0.7706
 1165SOL     OW 4627   4.489   1.654   4.355  0.1078  0.0620  0.2219
 1165SOL    HW1 4628   4.537   1.735   4.339  0.6346 -0.3222 -0.1853
 1165SOL    HW2 4629   4.504   1.601   4.276 -0.9958 -0.0591  0.0811
 1166SOL     OW 4630   7.159   5.675   6.404  0.0887  0.2061  0.5633
 1166SOL    HW1 4631   7.230   5.689   6.341 -0.9133  0.7493 -0.4730
 1166SOL    HW2 4632   7.080   5.702   6.358 -0.8118 -0.4157  1.6903
 1167SOL     OW 4633   8.944   7.123   1.313 -0.3720 -0.0645 -0.2506
 1167SOL    HW1 4634   8.872   7.085   1.264 -0.4442  0.2790 -0.4175
 1167SOL    HW2 4635   8.948   7.072   1.394 -1.1465  0.2419 -0.0040
 1168SOL     OW 4636   8.953   6.977   5.329 -0.5854  0.5344 -0.0721
 1168SOL    HW1 4637   8.890   6.940   5.266 -2.7145  1.3010  1.4797
 1168SOL    HW2 4638   8.946   6.920   5.406  1.5553 -0.0539 -0.2613
 1169SOL     OW 4639   0.822   2.105   2.414 -0.1407  0.4289  0.0751
 1169SOL    HW1 4640   0.909   2.132   2.444 -0.1563  0.8636 -0.2722
 1169SOL    HW2 4641   0.772   2.186   2.409 -0.8650  0.0748  1.2182
 1170SOL     OW 4642   5.623   3.532   1.511 -0.5213  0.3860  0.3954
 1170SOL    HW1 4643   5.599   3.619   1.479 -2.9101 -0.8282 -1.4780
 1170SOL    HW2 4644   5.686   3.499   1.447 -0.3590  0.3837  0.5573
 1171SOL     OW 4645   4.504   8.858   6.179  0.0935 -0.3321  0.4630
 1171SOL    HW1 4646   4.451   8.853   6.258 -0.8632  0.3125 -0.1142
 1171SOL    HW2 4647   4.447   8.900   6.114  1.3581  0.5537 -0.1372
 1172SOL     OW 4648   7.493   0.137   0.565 -0.2528 -0.4974 -0.1535
 1172SOL    HW1 4649   7.537   0.069   0.515 -0.6032 -1.8644  1.3247
 1172SOL    HW2 4650   7.400   0.112   0.564 -0.3227 -0.3250  0.7987
 1173SOL     OW 4651   4.340   8.080   5.913  0.0322 -0.4520 -0.2312
 1173SOL    HW1 4652   4.417   8.079   5.856 -0.7618 -1.7831 -1.3566
 1173SOL    HW2 4653   4.274   8.129   5.864 -0.0669  0.0791  0.4177
 1174SOL     OW 4654   6.914   6.743   4.360  0.7142  0.1470 -0.5041
 1174SOL    HW1 4655   6.893   6.836   4.343  0.1244  0.7994  3.0396
 1174SOL    HW2 4656   6.987   6.746   4.421 -0.4577 -1.5960  1.0912
 1175SOL     OW 4657   3.711   0.854   4.775  0.4808  0.0984  0.5797
 1175SOL    HW1 4658   3.732   0.790   4.843 -1.6988 -0.5142  0.7415
 1175SOL    HW2 4659   3.632   0.898   4.806  0.7671  1.4455 -0.4952
 1176SOL     OW 4660   2.421   1.557   7.467  0.0434  0.4861 -0.0362
 1176SOL    HW1 4661   2.408   1.599   7.382 -0.7341  0.3029 -0.0109
 1176SOL    HW2 4662   2.402   1.625   7.531 -0.6394  0.2715 -0.0022
 1177SOL     OW 4663   5.678   5.328   7.117  0.5493 -0.0588  0.3852
 1177SOL    HW1 4664   5.757   5.313   7.168  2.0134 -0.0060 -1.7258
 1177SOL    HW2 4665   5.607   5.324   7.180  2.2700  0.4897  2.4644
 1178SOL     OW 4666   0.854   4.929   3.135  0.4202 -0.0401  0.3283
 1178SOL    HW1 4667   0.866   4.834   3.136  0.6166 -0.0104  1.3503
 1178SOL    HW2 4668   0.885   4.956   3.048  0.2233 -0.9226 -0.0261
 1179SOL     OW 4669   7.584   3.046   7.000 -0.0540  0.0273  0.4059
 1179SOL    HW1 4670   7.536   2.965   7.017 -1.5049  0.7902  0.0830
 1179SOL    HW2 4671   7.535   3.088   6.930  0.5532  1.2938  0.7243
 1180SOL     OW 4672   5.259   1.076   9.055 -0.3088  0.1115 -0.6761
 1180SOL    HW1 4673   5.189   1.012   9.036 -1.5234  1.3875 -0.6783
 1180SOL    HW2 4674   5.224   1.128   9.127  1.1438  0.0631  0.0931
 1181SOL     OW 4675   5.437   8.654   4.357  0.0253  0.1961 -0.2959
 1181SOL    HW1 4676   5.386   8.708   4.418 -2.0720 -0.7310 -1.1265
 1181SOL    HW2 4677   5.404   8.565   4.370  0.9585 -0.3347 -1.3788
 1182SOL     OW 4678   7.193   5.594   5.379 -0.2962 -0.5378 -0.1723
 1182SOL    HW1 4679   7.148   5.525   5.331 -1.7901 -0.0762  0.4922
 1182SOL    HW2 4680   7.168   5.580   5.470 -2.0482  1.7939 -0.1825
 1183SOL     OW 4681   6.015   6.826   7.828 -0.5377 -0.0228  0.2090
 1183SOL    HW1 4682   6.077   6.753   7.836 -1.3537 -0.6051  1.4238
 1183SOL    HW2 4683   5.929   6.785   7.825 -0.9793  0.8705  0.2801
 1184SOL     OW 4684   5.912   7.589   5.570  0.3593 -0.4069  0.3362
 1184SOL    HW1 4685   5.861   7.669   5.584 -1.0681 -0.4014 -3.6933
 1184SOL    HW2 4686   5.850   7.527   5.531  2.1391 -2.4492  0.5500
 1185SOL     OW 4687   0.133   5.982   4.201  0.0226  0.2483 -0.7378
 1185SOL    HW1 4688   0.126   5.957   4.293 -0.1200  0.8459 -0.5844
 1185SOL    HW2 4689   0.179   5.908   4.160  1.8109  0.8170  0.1646
 1186SOL     OW 4690   7.123   1.312   8.271 -0.6591 -0.7723 -0.0937
 1186SOL    HW1 4691   7.082   1.271   8.347  0.1334 -0.6316  0.4284
 1186SOL    HW2 4692   7.181   1.244   8.236  1.1836  0.0491  1.1825
 1187SOL     OW 4693   4.042   1.866   2.703  0.3224 -0.1369  0.0593
 1187SOL    HW1 4694   4.059   1.810   2.779 -0.4227  0.0280  0.3506
 1187SOL    HW2 4695   4.059   1.809   2.627 -0.7730 -0.8711  0.3482
 1188SOL     OW 4696   1.181   3.486   7.035  0.0572 -0.0386  0.3183
 1188SOL    HW1 4697   1.232   3.415   6.996  0.0190 -0.5983  1.2560
 1188SOL    HW2 4698   1.224   3.566   7.006 -0.7687 -0.3520 -1.9855
 1189SOL     OW 4699   4.845   0.525   4.460  0.1774  0.2373  0.3427
 1189SOL    HW1 4700   4.914   0.558   4.518  1.9840 -0.6897 -1.1793
 1189SOL    HW2 4701   4.879   0.540   4.372 -1.5618 -0.3292 -0.4541
 1190SOL     OW 4702   4.066   6.391   8.662  0.2989 -0.0567 -0.1645
 1190SOL    HW1 4703   3.999   6.366   8.726  0.7968  0.9675  0.8006
 1190SOL    HW2 4704   4.055   6.485   8.651  1.8246  0.2110  0.3305
 1191SOL     OW 4705   6.621   6.561   1.369 -0.0943  0.3004 -0.4113
 1191SOL    HW1 4706   6.709   6.598   1.364 -0.6715  1.6595 -0.9653
 1191SOL    HW2 4707   6.622   6.489   1.307 -0.4088  2.6483 -3.3603
 1192SOL     OW 4708   2.580   3.968   6.667 -0.0486 -0.3433 -0.3050
 1192SOL    HW1 4709   2.621   4.043   6.709 -0.6594  0.4659 -1.1047
 1192SOL    HW2 4710   2.653   3.919   6.629  0.3055  0.1971 -0.3340
 1193SOL     OW 4711   1.974   8.405   3.284 -0.5321 -0.0874 -0.0405
 1193SOL    HW1 4712   2.023   8.327   3.259 -3.3413 -2.3333  0.8803
 1193SOL    HW2 4713   1.912   8.418   3.213 -1.2049  0.2404  0.5937
 1194SOL     OW 4714   7.533   5.040   5.310 -0.2161 -0.3171 -0.2346
 1194SOL    HW1 4715   7.488   4.956   5.300 -0.9371 -0.0102  0.3187
 1194SOL    HW2 4716   7.605   5.036   5.247 -0.1436 -1.4128 -0.1099
 1195SOL     OW 4717   2.363   7.453   4.909 -0.1313 -0.0653  0.3956
 1195SOL    HW1 4718   2.434   7.475   4.969  0.1719  0.4629 -0.1480
 1195SOL    HW2 4719   2.335   7.366   4.936  0.7089 -0.2709  0.6318
 1196SOL     OW 4720   0.486   1.697   8.744  0.3729  0.8520  0.5738
 1196SOL    HW1 4721   0.500   1.656   8.660 -0.5424  2.2571 -0.3144
 1196SOL    HW2 4722   0.391   1.714   8.747  0.6927  2.9278  0.8195
 1197SOL     OW 4723   2.754   0.596   2.522 -0.2268 -0.0604 -0.0846
 1197SOL    HW1 4724   2.769   0.580   2.429  0.1091  0.0108 -0.0448
 1197SOL    HW2 4725   2.842   0.613   2.558 -0.2397 -1.0000  0.4205
 1198SOL     OW 4726   5.005   9.036   0.199  0.0442  0.1522  0.3021
 1198SOL    HW1 4727   4.911   9.023   0.205 -0.2170  2.3389  2.6598
 1198SOL    HW2 4728   5.040   8.950   0.175 -2.4843 -0.7856 -0.3009
 1199SOL     OW 4729   0.026   0.223   2.074 -0.2778  0.3917 -0.3492
 1199SOL    HW1 4730   0.068   0.152   2.122  0.2794  0.4104 -0.7825
 1199SOL    HW2 4731   0.022   0.191   1.983  1.2785  1.4370 -0.8361
 1200SOL     OW 4732   4.753   4.542   3.799  0.0585  0.1396 -0.3381
 1200SOL    HW1 4733   4.746   4.576   3.711 -0.7075 -0.0911 -0.3725
 1200SOL    HW2 4734   4.803   4.460   3.790 -0.8690 -0.3944 -0.6991
 1201SOL     OW 4735   4.896   2.553   5.028  0.0021 -0.8170  0.2899
 1201SOL    HW1 4736   4.944   2.491   5.083  1.3872 -0.7051 -0.7349
 1201SOL    HW2 4737   4.956   2.573   4.956 -0.3940  1.6559  0.5343
 1202SOL     OW 4738   8.435   1.858   1.768 -0.0183 -0.1712  0.2721
 1202SOL    HW1 4739   8.451   1.909   1.847  2.5037  0.4725 -0.5743
 1202SOL    HW2 4740   8.458   1.768   1.793 -1.3770 -0.3945  0.8427
 1203SOL     OW 4741   1.175   4.250   2.215 -0.1299  0.1564  0.3517
 1203SOL    HW1 4742   1.148   4.277   2.303  2.4603 -0.0531  1.2872
 1203SOL    HW2 4743   1.242   4.314   2.189  2.5339 -2.3298  0.5534
 1204SOL     OW 4744   3.287   0.733   0.793  0.1988  0.3304 -0.7581
 1204SOL    HW1 4745   3.282   0.640   0.817 -1.2705  0.1830 -1.4928
 1204SOL    HW2 4746   3.201   0.752   0.754  0.6337  1.8910 -1.0252
 1205SOL     OW 4747   3.205   4.567   6.414  0.5248  0.1421  0.4080
 1205SOL    HW1 4748   3.226   4.527   6.499 -0.4759  2.1856  1.6844
 1205SOL    HW2 4749   3.204   4.661   6.431 -0.7798  0.5534 -1.6381
 1206SOL     OW 4750   8.593   5.332   8.910  0.3552 -0.5919  0.2237
 1206SOL    HW1 4751   8.524   5.380   8.864 -0.0230  0.4360  1.7933
 1206SOL    HW2 4752   8.589   5.243   8.873 -0.3789 -0.0002 -1.2014
 1207SOL     OW 4753   3.014   9.055   5.071 -0.0680  0.0403 -0.4335
 1207SOL    HW1 4754   2.935   9.016   5.036 -0.6799 -0.4796  1.3942
 1207SOL    HW2 4755   3.082   8.990   5.054 -0.1921  0.1096 -1.2383
 1208SOL     OW 4756   0.354   3.919   5.522  0.8506  0.1553 -0.2974
 1208SOL    HW1 4757   0.345   3.868   5.442 -0.8824  0.9717 -0.6771
 1208SOL    HW2 4758   0.327   4.007   5.496  1.4831  0.7255  0.9090
 1209SOL     OW 4759   4.809   3.980   0.209  0.2869 -0.7509  0.2568
 1209SOL    HW1 4760   4.736   3.972   0.270  0.2752  0.9044  0.5048
 1209SOL    HW2 4761   4.865   3.905   0.228  0.3009 -0.2499  2.3385
 1210SOL     OW 4762   7.726   2.780   2.807  0.4034  0.1206  0.1457
 1210SOL    HW1 4763   7.734   2.868   2.771 -1.3216  0.1045 -0.3592
 1210SOL    HW2 4764   7.800   2.732   2.770  0.5142  0.9655 -0.7600
 1211SOL     OW 4765   0.306   5.767   6.393  0.5023  0.2364  0.4549
 1211SOL    HW1 4766   0.372   5.701   6.369 -0.0389  0.1861 -1.0136
 1211SOL    HW2 4767   0.223   5.729   6.366  0.2353  1.7463 -1.0606
 1212SOL     OW 4768   6.186   8.152   3.605  0.7730  0.3071  0.0089
 1212SOL    HW1 4769   6.198   8.057   3.608 -1.0280  0.0628  0.8900
 1212SOL    HW2 4770   6.272   8.186   3.581  0.9035 -1.6544 -2.8370
 1213SOL     OW 4771   8.377   1.412   2.920  0.3937 -0.3359 -0.1427
 1213SOL    HW1 4772   8.350   1.403   2.829 -0.5460 -0.0509  0.0929
 1213SOL    HW2 4773   8.333   1.339   2.965 -0.7457  0.6550  0.4011
 1214SOL     OW 4774   5.249   8.504   7.435  0.4494  0.6911 -0.0975
 1214SOL    HW1 4775   5.191   8.535   7.504 -2.1711 -0.4983 -1.6122
 1214SOL    HW2 4776   5.274   8.416   7.463 -1.7949 -0.3830 -1.1927
 1215SOL     OW 4777   2.753   0.301   2.505  0.0157  1.4198  0.5660
 1215SOL    HW1 4778   2.788   0.390   2.499  1.2495  0.8515 -1.9767
 1215SOL    HW2 4779   2.736   0.276   2.414  2.0668 -1.8375  0.9314
 1216SOL     OW 4780   3.308   2.121   1.576  0.0480 -0.5664  0.4493
 1216SOL    HW1 4781   3.325   2.188   1.643 -1.6883  0.4733 -0.0698
 1216SOL    HW2 4782   3.358   2.149   1.500 -2.3316  1.5278 -0.5190
 1217SOL     OW 4783   1.928   0.752   2.452 -0.0696 -0.0298  0.2099
 1217SOL    HW1 4784   2.000   0.718   2.505 -1.0427 -0.2629  1.4137
 1217SOL    HW2 4785   1.851   0.707   2.484 -0.9637  1.1739 -0.1715
 1218SOL     OW 4786   8.056   6.987   2.699  0.7374 -0.3417 -0.3955
 1218SOL    HW1 4787   7.973   7.021   2.731  2.2044  1.4290  1.8040
 1218SOL    HW2 4788   8.076   7.042   2.623 -0.1559 -0.9131 -1.0637
 1219SOL     OW 4789   2.771   4.722   3.826  0.3910 -0.0188  0.4647
 1219SOL    HW1 4790   2.797   4.709   3.735 -0.7346 -1.6723  0.3458
 1219SOL    HW2 4791   2.744   4.814   3.830  0.2766  0.0252 -0.9177
 1220SOL     OW 4792   2.554   7.604   7.696 -0.1334  0.5558 -0.0563
 1220SOL    HW1 4793   2.490   7.549   7.743 -0.0988  1.2495  0.8340
 1220SOL    HW2 4794   2.638   7.563   7.714 -0.0984  0.9282  0.6805
 1221SOL     OW 4795   8.833   1.062   6.875 -0.1718 -0.0928  0.1426
 1221SOL    HW1 4796   8.874   1.102   6.799 -1.2160  0.1925 -0.2880
 1221SOL    HW2 4797   8.811   0.973   6.847  0.1175 -0.2308  0.3554
 1222SOL     OW 4798   1.329   3.349   1.517  0.3472  0.3836  0.7262
 1222SOL    HW1 4799   1.277   3.296   1.578  1.4070  1.5759  2.7705
 1222SOL    HW2 4800   1.272   3.422   1.494 -0.7891 -1.0664 -1.3953
 1223SOL     OW 4801   8.022   0.241   5.945  0.4184 -0.1634 -0.1403
 1223SOL    HW1 4802   8.105   0.235   5.898 -1.1656  0.1717 -3.1815
 1223SOL    HW2 4803   7.957   0.207   5.884 -1.7931  0.0122  1.9633
 1224SOL     OW 4804   3.289   4.018   0.236  0.1774  0.3449 -0.1488
 1224SOL    HW1 4805   3.377   4.008   0.200 -0.2533 -0.2941 -1.0873
 1224SOL    HW2 4806   3.240   4.063   0.167 -0.5547 -0.5193 -0.2237
 1225SOL     OW 4807   0.124   7.558   5.365  0.2764  0.4109  0.1309
 1225SOL    HW1 4808   0.216   7.571   5.344  0.0978  1.0848 -0.2856
 1225SOL    HW2 4809   0.103   7.471   5.332 -0.0231  1.4644 -2.7213
 1226SOL     OW 4810   5.125   4.785   1.482  0.2653 -0.0929 -0.0183
 1226SOL    HW1 4811   5.192   4.782   1.551 -1.7180 -2.3359  1.9882
 1226SOL    HW2 4812   5.042   4.780   1.529 -1.3408  1.5726 -2.4674
 1227SOL     OW 4813   6.632   5.737   0.048  0.0884 -0.1188  0.0349
 1227SOL    HW1 4814   6.550   5.696   0.076  1.1857 -2.3060  0.2442
 1227SOL    HW2 4815   6.644   5.707  -0.042  0.3047  0.7892 -0.2438
 1228SOL     OW 4816   5.624   6.459   6.953  0.4761 -1.0265 -0.0675
 1228SOL    HW1 4817   5.647   6.433   6.864 -1.6668 -1.2118 -0.6273
 1228SOL    HW2 4818   5.681   6.534   6.971  0.0210 -0.0955 -2.1479
 1229SOL     OW 4819   2.766   6.764   1.666  0.1127  0.3090 -0.6204
 1229SOL    HW1 4820   2.825   6.826   1.707  0.3423 -0.0736 -0.3718
 1229SOL    HW2 4821   2.715   6.727   1.738  0.3379 -0.1734 -0.7079
 1230SOL     OW 4822   3.798   5.867   9.058  0.2488  0.1444 -0.1103
 1230SOL    HW1 4823   3.742   5.796   9.090 -0.9261  0.5174 -1.2445
 1230SOL    HW2 4824   3.885   5.845   9.090 -0.3740 -0.9656  0.9021
 1231SOL     OW 4825   7.435   7.828   3.344 -0.0422  0.0767  0.2604
 1231SOL    HW1 4826   7.508   7.850   3.402 -0.4738  0.4115  0.6846
 1231SOL    HW2 4827   7.443   7.733   3.330 -0.4324 -0.1766  1.5818
 1232SOL     OW 4828   7.625   3.530   5.770  0.0265 -0.1896  0.0765
 1232SOL    HW1 4829   7.716   3.561   5.767 -0.6064  2.2029  2.1646
 1232SOL    HW2 4830   7.628   3.452   5.825  1.3555 -2.9995 -3.5822
 1233SOL     OW 4831   8.433   1.162   9.065  0.4850  0.4846 -0.5808
 1233SOL    HW1 4832   8.350   1.168   9.112  0.4774  3.1556 -0.8010
 1233SOL    HW2 4833   8.498   1.148   9.133 -0.0457 -1.1501 -0.3649
 1234SOL     OW 4834   2.722   0.444   6.538  0.7852  0.0550  0.5343
 1234SOL    HW1 4835   2.680   0.529   6.554  2.4688  1.0306 -0.0056
 1234SOL    HW2 4836   2.793   0.440   6.601  1.7836 -0.1786 -0.5809
 1235SOL     OW 4837   5.958   2.002   2.940  0.2317 -0.0912  0.5220
 1235SOL    HW1 4838   6.009   2.012   3.020  2.3031  0.8787 -0.8357
 1235SOL    HW2 4839   5.934   2.091   2.916  1.8181 -0.0871 -1.2287
 1236SOL     OW 4840   6.812   1.804   3.009  0.5567 -0.6809 -0.4784
 1236SOL    HW1 4841   6.795   1.842   3.096 -0.9088 -2.5651  0.1303
 1236SOL    HW2 4842   6.853   1.875   2.960 -0.5169  1.1308  1.0822
 1237SOL     OW 4843   2.764   7.199   3.885  0.1144  0.4626 -0.4805
 1237SOL    HW1 4844   2.787   7.162   3.800  0.1437 -3.4218  0.9941
 1237SOL    HW2 4845   2.670   7.185   3.894 -0.1377  2.0580 -0.3503
 1238SOL     OW 4846   3.202   7.692   4.276 -0.0883  0.3502 -0.2245
 1238SOL    HW1 4847   3.248   7.649   4.349  0.3325 -0.1507 -0.7804
 1238SOL    HW2 4848   3.232   7.783   4.280  0.6813  0.1110 -0.3540
 1239SOL     OW 4849   2.093   3.620   5.765 -0.2141 -0.0619  0.2559
 1239SOL    HW1 4850   2.176   3.667   5.755 -0.6458  0.7307  0.3232
 1239SOL    HW2 4851   2.097   3.584   5.853  0.3267 -0.5580  0.0310
 1240SOL     OW 4852   0.036   3.836   0.265 -0.1444  0.1946 -0.1915
 1240SOL    HW1 4853   0.089   3.904   0.223 -2.5422  1.4669 -1.3629
 1240SOL    HW2 4854   0.054   3.846   0.358  1.0277  1.1465 -0.4973
 1241SOL     OW 4855   1.713   9.062   1.941  0.0814  0.1606 -0.3743
 1241SOL    HW1 4856   1.738   9.139   1.992 -2.3369  1.0187 -0.3719
 1241SOL    HW2 4857   1.710   8.991   2.005  2.8818 -0.1894 -0.4701
 1242SOL     OW 4858   6.938   1.585   5.276  0.2736 -0.0997 -0.4693
 1242SOL    HW1 4859   6.844   1.595   5.290  0.1057 -1.2918 -0.5972
 1242SOL    HW2 4860   6.977   1.598   5.362  0.1853  2.0760 -0.6951
 1243SOL     OW 4861   6.123   0.960   6.086  0.2551  0.1895 -0.2169
 1243SOL    HW1 4862   6.049   0.996   6.036 -1.4459 -3.1774 -0.3941
 1243SOL    HW2 4863   6.102   0.981   6.177  0.2015  1.0697 -0.4230
 1244SOL     OW 4864   0.950   4.135   8.608 -0.5503  0.1990  0.4437
 1244SOL    HW1 4865   0.948   4.213   8.552 -0.3554 -0.4780 -0.5430
 1244SOL    HW2 4866   1.043   4.118   8.623 -0.5971  0.2586  0.8193
 1245SOL     OW 4867   3.475   4.546   8.164 -0.0765 -0.7351  0.1075
 1245SOL    HW1 4868   3.507   4.632   8.136  0.0635 -0.5711  0.7382
 1245SOL    HW2 4869   3.403   4.566   8.224 -1.9826 -1.1124 -1.9494
 1246SOL     OW 4870   7.770   3.569   8.505 -0.4507 -0.3251 -1.0131
 1246SOL    HW1 4871   7.811   3.484   8.518  3.0296  1.3438  0.2052
 1246SOL    HW2 4872   7.832   3.619   8.453 -0.1417  2.8013  1.9554
 1247SOL     OW 4873   2.023   2.095   4.006  0.2475  0.2030 -0.5145
 1247SOL    HW1 4874   2.098   2.081   3.948 -0.6513  0.0225 -1.6497
 1247SOL    HW2 4875   1.982   2.175   3.974 -0.4687 -0.0947 -0.3535
 1248SOL     OW 4876   2.049   5.805   7.136  0.3255  0.3661 -0.2246
 1248SOL    HW1 4877   2.023   5.887   7.179  0.9419  0.2930  0.3076
 1248SOL    HW2 4878   1.983   5.741   7.163 -0.7402  0.8859 -1.4374
 1249SOL     OW 4879   2.503   1.057   5.829 -0.2841 -0.2866 -0.2238
 1249SOL    HW1 4880   2.429   1.061   5.768 -0.3560  0.7701 -0.0866
 1249SOL    HW2 4881   2.480   1.119   5.899 -0.1905 -1.4605  0.8762
 1250SOL     OW 4882   7.920   8.826   8.137  0.4238  0.0213 -0.2802
 1250SOL    HW1 4883   7.975   8.881   8.193  0.7751 -0.5625 -0.0380
 1250SOL    HW2 4884   7.837   8.872   8.132  0.2385 -0.1156  1.0974
 1251SOL     OW 4885   9.115   0.270   3.584 -0.0560 -0.1974 -0.3063
 1251SOL    HW1 4886   9.193   0.297   3.631  0.1131  1.8896 -1.6487
 1251SOL    HW2 4887   9.138   0.186   3.545  0.7940 -0.5565  0.9106
 1252SOL     OW 4888   0.674   4.622   6.183 -0.2390 -0.1910 -0.6561
 1252SOL    HW1 4889   0.681   4.717   6.191  2.5790 -0.4800  2.3083
 1252SOL    HW2 4890   0.737   4.599   6.116 -0.0354 -0.0538 -0.5125
 1253SOL     OW 4891   5.345   3.099   5.068 -0.1460  0.1351 -0.1182
 1253SOL    HW1 4892   5.286   3.096   5.144  0.9937  1.4829  0.8665
 1253SOL    HW2 4893   5.428   3.131   5.104  0.3442  1.0692 -2.0029
 1254SOL     OW 4894   5.986   3.507   5.449  0.1567  0.1897 -0.3203
 1254SOL    HW1 4895   5.975   3.416   5.420  3.3641 -0.2799 -0.4172
 1254SOL    HW2 4896   5.988   3.559   5.369  2.3481 -0.2422 -0.5970
 1255SOL     OW 4897   7.374   8.810   4.516  0.1470 -0.1102 -0.6435
 1255SOL    HW1 4898   7.299   8.766   4.476  0.1905 -2.3460  1.4634
 1255SOL    HW2 4899   7.444   8.802   4.452 -0.2009 -2.1315 -0.8241
 1256SOL     OW 4900   6.370   4.456   4.467 -0.2692  0.0341 -0.6220
 1256SOL    HW1 4901   6.359   4.487   4.378 -1.7795  0.9206 -0.1613
 1256SOL    HW2 4902   6.464   4.440   4.476  0.2305  2.0886 -1.6730
 1257SOL     OW 4903   2.512   2.461   7.291 -0.1189  0.2273  0.5903
 1257SOL    HW1 4904   2.603   2.480   7.313  0.2915 -0.9549 -0.0093
 1257SOL    HW2 4905   2.516   2.414   7.208 -1.1988 -0.7414  1.0490
 1258SOL     OW 4906   6.620   8.259   0.354  0.4033 -0.1275  0.2040
 1258SOL    HW1 4907   6.533   8.290   0.327  0.7303  0.7929  0.1806
 1258SOL    HW2 4908   6.647   8.200   0.284  1.5727  2.8151 -2.0351
 1259SOL     OW 4909   0.083   0.763   0.169  0.0696  0.5672  0.3317
 1259SOL    HW1 4910   0.062   0.763   0.263  0.4035 -0.8397  0.4219
 1259SOL    HW2 4911   0.092   0.671   0.146 -0.8661  0.8487 -1.2994
 1260SOL     OW 4912   3.040   9.005   8.396 -0.0660 -0.6806 -0.0165
 1260SOL    HW1 4913   2.957   9.053   8.403  1.3188  1.8377  0.7362
 1260SOL    HW2 4914   3.049   8.960   8.480 -0.4668 -0.6247  0.0599
 1261SOL     OW 4915   7.393   7.619   0.850  0.2178  0.2156  0.1864
 1261SOL    HW1 4916   7.405   7.584   0.762 -0.1053 -0.8569  0.5518
 1261SOL    HW2 4917   7.456   7.571   0.903  0.9847  1.4386  0.4069
 1262SOL     OW 4918   5.445   3.260   7.276  0.1837 -0.4096  0.5818
 1262SOL    HW1 4919   5.478   3.173   7.254 -0.5552 -0.4986 -0.2306
 1262SOL    HW2 4920   5.509   3.320   7.239 -0.9586 -0.5555 -1.8219
 1263SOL     OW 4921   8.988   8.791   5.511  0.1530 -0.6275  0.1650
 1263SOL    HW1 4922   8.914   8.732   5.529  0.6654 -1.0813  0.8389
 1263SOL    HW2 4923   8.997   8.790   5.415 -0.9504 -0.2592  0.0416
 1264SOL     OW 4924   4.257   1.297   3.345 -0.5432 -0.0511  0.0412
 1264SOL    HW1 4925   4.214   1.274   3.262  1.3147  1.3686 -1.4290
 1264SOL    HW2 4926   4.341   1.335   3.318  1.2308 -1.7621  2.6999
 1265SOL     OW 4927   7.133   3.027   7.375 -1.0634  0.8532  0.0786
 1265SOL    HW1 4928   7.101   2.938   7.368  0.1473  0.3111  0.9265
 1265SOL    HW2 4929   7.226   3.017   7.397 -0.5542  2.3281 -1.2423
 1266SOL     OW 4930   7.625   1.794   8.466 -0.7152 -0.5318 -0.0410
 1266SOL    HW1 4931   7.687   1.766   8.399 -0.0486  0.5170  0.1172
 1266SOL    HW2 4932   7.677   1.802   8.545 -1.2865 -0.7451  0.3619
 1267SOL     OW 4933   6.497   4.439   2.566 -0.2735  0.3310  0.0861
 1267SOL    HW1 4934   6.450   4.488   2.633  0.7033 -0.7205  1.5884
 1267SOL    HW2 4935   6.450   4.356   2.559 -0.4668  0.4888 -0.6922
 1268SOL     OW 4936   3.936   0.434   2.263  0.1676  0.2394 -0.3580
 1268SOL    HW1 4937   3.866   0.401   2.319 -0.4520 -0.0550 -1.2761
 1268SOL    HW2 4938   3.914   0.401   2.176  1.9139 -0.5615 -0.5217
 1269SOL     OW 4939   3.159   3.643   5.390 -0.0824  0.1781  0.0902
 1269SOL    HW1 4940   3.104   3.599   5.325 -1.1693  1.8814 -0.2216
 1269SOL    HW2 4941   3.113   3.725   5.408  1.9852  1.3454  0.3909
 1270SOL     OW 4942   4.712   2.990   6.460  0.0471  0.1384 -0.0450
 1270SOL    HW1 4943   4.637   3.048   6.449 -0.6617 -0.7763 -0.2230
 1270SOL    HW2 4944   4.789   3.046   6.451 -0.5859  0.7653 -2.0644
 1271SOL     OW 4945   1.543   7.719   6.791  0.0098 -0.0425 -0.7050
 1271SOL    HW1 4946   1.577   7.715   6.880 -0.1406  0.4349 -0.6207
 1271SOL    HW2 4947   1.479   7.791   6.794 -0.1359 -0.1528 -1.1494
 1272SOL     OW 4948   8.605   8.484   7.392  0.4314 -0.1113 -0.1498
 1272SOL    HW1 4949   8.548   8.481   7.470 -0.0516  0.1956 -0.4864
 1272SOL    HW2 4950   8.614   8.393   7.366 -1.3825 -0.0421 -1.1452
 1273SOL     OW 4951   4.696   1.657   7.767 -0.2820  0.5031 -0.0958
 1273SOL    HW1 4952   4.787   1.666   7.739  0.6414 -0.8862  2.1716
 1273SOL    HW2 4953   4.653   1.735   7.732  1.9245  1.5511 -0.6764
 1274SOL     OW 4954   4.437   1.257   0.120  0.0922 -0.0872  0.1202
 1274SOL    HW1 4955   4.421   1.239   0.213 -0.6628  0.2403  0.0560
 1274SOL    HW2 4956   4.532   1.261   0.113  0.1441  1.6762  1.2307
 1275SOL     OW 4957   0.644   3.140   4.704 -0.5692  0.2890 -0.0766
 1275SOL    HW1 4958   0.661   3.139   4.799 -0.7310 -1.6997 -0.0333
 1275SOL    HW2 4959   0.574   3.076   4.692  0.0243 -0.0835 -1.6550
 1276SOL     OW 4960   1.008   8.666   3.113  0.1950  0.1307 -0.4143
 1276SOL    HW1 4961   0.950   8.719   3.167 -0.5631 -0.0068 -1.0765
 1276SOL    HW2 4962   0.987   8.575   3.136 -1.1247  0.0220 -1.9018
 1277SOL     OW 4963   3.639   2.586   8.059  0.2002 -1.0853 -0.1977
 1277SOL    HW1 4964   3.591   2.596   8.141  0.8966 -1.8208  0.3044
 1277SOL    HW2 4965   3.647   2.492   8.046  0.8027 -0.9744 -0.6931
 1278SOL     OW 4966   6.216   7.023   3.226 -0.0861  0.3967  0.2176
 1278SOL    HW1 4967   6.130   7.051   3.196 -1.1978 -1.2287  1.6367
 1278SOL    HW2 4968   6.207   7.016   3.321  1.7649  0.6293  0.4453
 1279SOL     OW 4969   2.211   2.240   0.804 -0.3100  0.1153 -0.0361
 1279SOL    HW1 4970   2.258   2.225   0.886  1.2817  0.4111 -0.8494
 1279SOL    HW2 4971   2.271   2.208   0.736 -0.8893  1.3719 -1.1889
 1280SOL     OW 4972   3.810   6.136   1.695 -0.3992 -0.5065 -0.2746
 1280SOL    HW1 4973   3.773   6.219   1.668  0.2681  0.1653  0.7649
 1280SOL    HW2 4974   3.776   6.122   1.784  0.7555 -0.5173  0.1896
 1281SOL     OW 4975   4.587   0.067   7.284 -0.3264  0.0049 -0.3062
 1281SOL    HW1 4976   4.556   0.089   7.197 -1.0315  0.4393  0.0508
 1281SOL    HW2 4977   4.512   0.083   7.342 -0.3833 -1.7872  0.1828
 1282SOL     OW 4978   3.152   2.519   6.020 -0.5566 -0.2341  0.0959
 1282SOL    HW1 4979   3.133   2.583   6.089 -0.5830 -0.0951 -0.0385
 1282SOL    HW2 4980   3.247   2.514   6.017 -0.5703 -0.9945  0.8283
 1283SOL     OW 4981   0.081   6.440   6.524 -0.1045 -0.0716 -0.1356
 1283SOL    HW1 4982   0.104   6.492   6.601 -0.2842 -1.1639  0.6788
 1283SOL    HW2 4983   0.038   6.362   6.560  0.8405 -1.1592 -1.2793
 1284SOL     OW 4984   0.534   2.853   8.118  0.2455 -0.2443  0.2826
 1284SOL    HW1 4985   0.477   2.820   8.187 -1.4335  4.5370  1.6249
 1284SOL    HW2 4986   0.474   2.881   8.049  1.1684  1.8004  0.2382
 1285SOL     OW 4987   4.681   4.146   3.922 -0.0102  0.2060  0.2895
 1285SOL    HW1 4988   4.760   4.140   3.976  0.1614  1.1657  0.1608
 1285SOL    HW2 4989   4.700   4.092   3.846 -0.1255 -0.9009  1.0213
 1286SOL     OW 4990   8.380   7.257   4.797  0.0592 -0.4254 -0.1761
 1286SOL    HW1 4991   8.296   7.283   4.759 -0.5714 -2.5317 -0.3604
 1286SOL    HW2 4992   8.444   7.276   4.730 -0.3442  0.6518 -0.2675
 1287SOL     OW 4993   5.052   4.973   0.407  0.2052  0.1561 -0.2227
 1287SOL    HW1 4994   5.138   5.001   0.437  0.2999  0.1219 -0.4552
 1287SOL    HW2 4995   4.992   5.038   0.443  0.3191  0.1344  0.0057
 1288SOL     OW 4996   4.476   3.592   4.214  1.0136 -0.3107 -0.0332
 1288SOL    HW1 4997   4.407   3.649   4.179  0.0426 -1.1278  0.4978
 1288SOL    HW2 4998   4.555   3.621   4.169  0.1667  0.0130 -1.3880
 1289SOL     OW 4999   3.906   8.388   3.483  0.8368 -0.6127 -0.3417
 1289SOL    HW1 5000   3.933   8.439   3.560 -0.5695 -0.5954  0.1750
 1289SOL    HW2 5001   3.854   8.316   3.520 -1.0368  0.1637 -1.3251
 1290SOL     OW 5002   7.688   8.874   4.643  0.3278 -0.9092  0.4576
 1290SOL    HW1 5003   7.625   8.907   4.706  1.8083  0.2320  1.4041
 1290SOL    HW2 5004   7.704   8.947   4.583  1.3398 -0.8970  0.7174
 1291SOL     OW 5005   7.722   1.793   9.014  0.5984 -0.1933  0.1489
 1291SOL    HW1 5006   7.758   1.821   9.098 -0.9822  1.0853  0.4421
 1291SOL    HW2 5007   7.629   1.780   9.030 -0.0355  1.5114 -1.7086
 1292SOL     OW 5008   4.208   3.926   0.982 -0.4540  0.1154  0.2774
 1292SOL    HW1 5009   4.286   3.899   0.934 -1.8014 -0.2621 -1.8269
 1292SOL    HW2 5010   4.233   3.920   1.074  1.7796 -0.6092 -0.3213
 1293SOL     OW 5011   4.200   7.153   2.539  0.1611 -0.1797 -0.3573
 1293SOL    HW1 5012   4.240   7.159   2.452 -1.1309 -0.4589 -0.9941
 1293SOL    HW2 5013   4.228   7.068   2.573  2.3071  0.7306  0.3911
 1294SOL     OW 5014   4.244   4.349   8.711  0.0805  0.2580  0.2088
 1294SOL    HW1 5015   4.256   4.256   8.731 -1.4001 -0.0901 -0.3658
 1294SOL    HW2 5016   4.278   4.394   8.787 -2.2500 -0.9006  2.0686
 1295SOL     OW 5017   7.247   7.451   5.704 -0.3635 -0.6001  0.2502
 1295SOL    HW1 5018   7.245   7.455   5.799  1.9351 -1.4996  0.4140
 1295SOL    HW2 5019   7.178   7.390   5.680 -1.1869 -0.1054  1.3003
 1296SOL     OW 5020   8.701   2.621   8.506  0.4521 -0.1592  0.0240
 1296SOL    HW1 5021   8.727   2.713   8.506  0.3192 -0.1218 -0.2294
 1296SOL    HW2 5022   8.667   2.605   8.418 -0.1202 -0.2807  0.2650
 1297SOL     OW 5023   5.772   8.632   3.627  0.6057 -0.4218 -0.1575
 1297SOL    HW1 5024   5.743   8.685   3.700 -0.3475 -1.0040 -0.0983
 1297SOL    HW2 5025   5.858   8.598   3.654  1.1595  0.9480 -0.1463
 1298SOL     OW 5026   8.685   3.794   6.336 -0.1324  0.0095 -0.6558
 1298SOL    HW1 5027   8.597   3.777   6.370  1.3855 -0.6351  3.4952
 1298SOL    HW2 5028   8.711   3.712   6.294 -0.9773 -0.2930 -0.6052
 1299SOL     OW 5029   3.406   3.563   0.868 -0.1305  0.7600  0.2461
 1299SOL    HW1 5030   3.402   3.515   0.785 -2.0981  2.5856 -0.8251
 1299SOL    HW2 5031   3.477   3.521   0.917 -0.2290 -1.6818 -1.5166
 1300SOL     OW 5032   3.742   0.148   2.255  0.3723 -0.2709 -0.1722
 1300SOL    HW1 5033   3.685   0.222   2.233  1.0931  0.6392  0.9448
 1300SOL    HW2 5034   3.683   0.085   2.296  0.4742  1.7440  3.4470
 1301SOL     OW 5035   6.968   5.664   1.869  0.1081  0.5297 -0.3442
 1301SOL    HW1 5036   6.989   5.727   1.938 -0.2372 -0.4436  0.6751
 1301SOL    HW2 5037   7.011   5.583   1.896  0.4590  0.2711 -1.5767
 1302SOL     OW 5038   3.164   0.490   7.426  0.2233 -0.4843 -0.2936
 1302SOL    HW1 5039   3.240   0.441   7.395  0.6153 -0.3421  0.4404
 1302SOL    HW2 5040   3.121   0.432   7.489  1.2792  0.4794  1.3909
 1303SOL     OW 5041   0.346   1.942   0.064  0.3510 -0.1235 -0.1491
 1303SOL    HW1 5042   0.364   2.034   0.042  0.1974 -0.0528  0.0228
 1303SOL    HW2 5043   0.432   1.900   0.061  0.2861 -0.2123 -1.3431
 1304SOL     OW 5044   0.577   1.130   0.745  0.5774  0.5380 -0.4993
 1304SOL    HW1 5045   0.642   1.112   0.812 -1.8741 -0.8007  1.7028
 1304SOL    HW2 5046   0.558   1.224   0.754 -0.7652  0.1300  1.8480
 1305SOL     OW 5047   7.732   4.458   0.217 -0.1991 -0.1987  0.1106
 1305SOL    HW1 5048   7.654   4.403   0.222 -0.4037  0.0581 -0.2328
 1305SOL    HW2 5049   7.708   4.529   0.157  0.5282 -0.4856 -0.5367
 1306SOL     OW 5050   0.470   5.995   8.278  0.2301 -0.2111  0.2032
 1306SOL    HW1 5051   0.516   5.923   8.321  1.8499 -0.1122 -1.2409
 1306SOL    HW2 5052   0.526   6.071   8.291 -1.0211  0.6235  0.9400
 1307SOL     OW 5053   7.628   4.799   1.644 -0.0083 -0.0835  0.6240
 1307SOL    HW1 5054   7.545   4.844   1.658 -0.0427 -0.5403  1.9818
 1307SOL    HW2 5055   7.639   4.743   1.721  1.9160  0.5120  0.8233
 1308SOL     OW 5056   6.130   8.765   8.303  0.8348 -0.2384 -0.9079
 1308SOL    HW1 5057   6.095   8.739   8.389  2.1400 -0.6040 -0.4608
 1308SOL    HW2 5058   6.059   8.748   8.242 -0.4986  0.9960  0.2184
 1309SOL     OW 5059   1.812   4.280   4.860 -0.4557  0.5331 -0.1504
 1309SOL    HW1 5060   1.756   4.247   4.930 -0.9872 -1.6538 -1.4872
 1309SOL    HW2 5061   1.755   4.284   4.783  0.9490 -0.9273 -1.3476
 1310SOL     OW 5062   2.557   2.331   5.440  0.0451 -0.7029 -0.4883
 1310SOL    HW1 5063   2.644   2.344   5.475  0.0545 -0.4572 -0.6013
 1310SOL    HW2 5064   2.499   2.382   5.497  0.0935 -0.0702 -0.9835
 1311SOL     OW 5065   5.432   6.844   1.332 -0.0447 -0.3141 -0.2584
 1311SOL    HW1 5066   5.347   6.874   1.363  0.2559  0.0502  0.2302
 1311SOL    HW2 5067   5.418   6.822   1.240 -0.5249  0.3031 -0.3354
 1312SOL     OW 5068   8.151   1.756   1.392 -0.0396 -0.1822  0.2188
 1312SOL    HW1 5069   8.199   1.839   1.397 -1.1624  0.3916  2.7660
 1312SOL    HW2 5070   8.213   1.691   1.425  0.7944 -0.4110 -1.6539
 1313SOL     OW 5071   8.830   0.831   5.609 -0.5092 -0.3821 -0.7865
 1313SOL    HW1 5072   8.897   0.775   5.570  0.5565 -0.4008  0.9796
 1313SOL    HW2 5073   8.877   0.884   5.673 -1.7888  1.3438 -1.2143
 1314SOL     OW 5074   0.783   5.493   3.178 -0.2511 -0.0473  0.3621
 1314SOL    HW1 5075   0.845   5.419   3.179 -0.1668 -0.0041 -0.8296
 1314SOL    HW2 5076   0.793   5.533   3.265  1.4532  0.0064  0.1815
 1315SOL     OW 5077   2.376   0.586   5.161 -0.1112  0.4260 -0.4158
 1315SOL    HW1 5078   2.284   0.586   5.133 -0.3491  1.8261  0.2615
 1315SOL    HW2 5079   2.371   0.588   5.256  0.6322  0.3828 -0.3743
 1316SOL     OW 5080   5.362   3.980   4.499 -0.6780 -0.1088  0.2876
 1316SOL    HW1 5081   5.360   3.885   4.494  2.7145 -0.2448 -2.1991
 1316SOL    HW2 5082   5.331   4.009   4.413  1.2284  0.7816 -0.1712
 1317SOL     OW 5083   0.352   3.247   6.748 -0.3217  0.3314 -0.2653
 1317SOL    HW1 5084   0.438   3.245   6.789  0.3901 -1.2315 -1.7449
 1317SOL    HW2 5085   0.315   3.161   6.767 -0.3352 -0.0984 -2.1024
 1318SOL     OW 5086   5.997   2.561   3.309  0.0074 -0.3228 -0.8245
 1318SOL    HW1 5087   6.076   2.612   3.326 -1.3953  1.9272 -0.5825
 1318SOL    HW2 5088   5.927   2.613   3.348 -1.6327 -2.0909 -1.2904
 1319SOL     OW 5089   4.959   3.657   8.087 -0.0508 -0.3256 -0.2636
 1319SOL    HW1 5090   5.010   3.653   8.006 -1.5038 -2.3318 -1.1858
 1319SOL    HW2 5091   4.903   3.734   8.076  1.4236  0.8193 -0.0496
 1320SOL     OW 5092   2.641   2.957   0.974  0.5178 -0.0456  0.2116
 1320SOL    HW1 5093   2.550   2.966   1.001  0.6811  0.2210  0.6782
 1320SOL    HW2 5094   2.676   3.046   0.976  0.1519  0.2438 -2.3258
 1321SOL     OW 5095   8.233   7.404   6.480  0.0354  0.4014 -0.3770
 1321SOL    HW1 5096   8.259   7.478   6.425  0.9344  1.0821  0.8892
 1321SOL    HW2 5097   8.312   7.384   6.531 -0.4438 -0.9039 -0.1130
 1322SOL     OW 5098   0.864   7.154   7.668 -0.1002 -0.5570 -0.2037
 1322SOL    HW1 5099   0.771   7.160   7.687  0.2484  0.3595  1.3502
 1322SOL    HW2 5100   0.874   7.193   7.581 -0.8559  1.6232  0.6286
 1323SOL     OW 5101   5.088   5.203   7.935 -0.3704  0.2950 -0.4600
 1323SOL    HW1 5102   5.093   5.125   7.879  2.3869  0.9939 -1.3462
 1323SOL    HW2 5103   5.084   5.276   7.873 -1.0282  0.9555  0.3468
 1324SOL     OW 5104   3.924   5.996   3.823 -0.4856 -0.4642  0.1204
 1324SOL    HW1 5105   3.931   5.917   3.769  1.4061  0.8763 -1.7937
 1324SOL    HW2 5106   3.906   6.066   3.760  0.3418  0.9657  1.4028
 1325SOL     OW 5107   6.832   4.814   4.896  0.1095 -0.4499 -0.1282
 1325SOL    HW1 5108   6.785   4.742   4.855  0.5145  0.5153 -2.4188
 1325SOL    HW2 5109   6.921   4.808   4.861  0.1549  1.1152 -0.3447
 1326SOL     OW 5110   5.011   3.214   3.186 -0.0581 -0.4424 -0.2246
 1326SOL    HW1 5111   5.092   3.246   3.225  0.6200 -3.0897  0.7218
 1326SOL    HW2 5112   5.032   3.201   3.093 -0.3273  1.5643 -0.6179
 1327SOL     OW 5113   4.528   5.122   5.732  0.1695  0.1576 -0.1433
 1327SOL    HW1 5114   4.597   5.169   5.685 -1.2914  0.2436 -2.3636
 1327SOL    HW2 5115   4.498   5.183   5.799 -0.8478  2.0000 -2.1608
 1328SOL     OW 5116   5.841   5.849   7.601  0.6912  0.0685  0.1770
 1328SOL    HW1 5117   5.885   5.874   7.520  0.4844  0.4449  0.1809
 1328SOL    HW2 5118   5.880   5.764   7.624 -1.0242 -1.3300 -1.6740
 1329SOL     OW 5119   1.993   4.859   2.993 -0.0241 -0.2329  0.4988
 1329SOL    HW1 5120   1.917   4.814   3.028 -0.7135 -0.2040 -0.9126
 1329SOL    HW2 5121   2.059   4.790   2.982 -0.7831 -0.7734 -0.8470
 1330SOL     OW 5122   0.684   2.787   7.042 -0.1494 -0.0034  0.2372
 1330SOL    HW1 5123   0.757   2.764   6.985 -0.5498  0.0891 -0.3188
 1330SOL    HW2 5124   0.719   2.855   7.099 -0.1775  1.0524 -0.9584
 1331SOL     OW 5125   1.356   9.092   0.518  0.2554 -0.8882 -0.2521
 1331SOL    HW1 5126   1.389   9.110   0.430 -0.8162 -1.1640 -0.7158
 1331SOL    HW2 5127   1.302   9.014   0.508  0.5599 -1.2433  0.7572
 1332SOL     OW 5128   2.083   8.529   2.495  0.5143  0.2946 -0.1344
 1332SOL    HW1 5129   2.070   8.450   2.547 -1.6713  0.8204  0.2116
 1332SOL    HW2 5130   2.097   8.598   2.559 -0.6926  0.6861 -0.2652
 1333SOL     OW 5131   2.416   5.050   7.590  0.1101 -0.1947 -0.1582
 1333SOL    HW1 5132   2.340   4.993   7.580  1.2420 -1.6318 -1.0058
 1333SOL    HW2 5133   2.438   5.078   7.501  2.2089 -2.1116 -0.3386
 1334SOL     OW 5134   2.354   0.719   6.133 -0.6204  0.2169  0.2009
 1334SOL    HW1 5135   2.293   0.754   6.068 -1.0129  0.7565  0.8464
 1334SOL    HW2 5136   2.432   0.697   6.083 -0.8738  0.7304 -0.4345
 1335SOL     OW 5137   2.854   2.449   2.464 -0.0659 -0.0027  0.1922
 1335SOL    HW1 5138   2.858   2.526   2.521  0.5120  1.0070 -1.1577
 1335SOL    HW2 5139   2.776   2.464   2.410  0.7430  0.2685 -0.9244
 1336SOL     OW 5140   1.274   4.111   5.669  0.2381  0.2695  0.0786
 1336SOL    HW1 5141   1.225   4.178   5.718  1.2967  0.6352  0.6753
 1336SOL    HW2 5142   1.315   4.057   5.737  0.7139  0.0142 -0.4055
 1337SOL     OW 5143   8.634   0.915   4.186 -0.4334  0.1202  0.1438
 1337SOL    HW1 5144   8.572   0.843   4.175  0.0663 -0.3569  0.3742
 1337SOL    HW2 5145   8.683   0.893   4.265  1.6778 -0.7803 -1.3132
 1338SOL     OW 5146   0.428   7.249   1.534 -0.3281 -0.0926 -0.9890
 1338SOL    HW1 5147   0.434   7.247   1.630  1.7373 -0.8241 -1.0710
 1338SOL    HW2 5148   0.495   7.312   1.507 -0.2528 -0.5675 -1.9627
 1339SOL     OW 5149   1.191   6.580   6.741  0.0209 -0.2590  0.0341
 1339SOL    HW1 5150   1.101   6.614   6.737  0.1943  0.1855 -0.2207
 1339SOL    HW2 5151   1.220   6.580   6.650  0.2027 -0.6156  0.0927
 1340SOL     OW 5152   2.947   7.937   5.551 -0.1117 -0.4136 -0.2319
 1340SOL    HW1 5153   2.951   7.925   5.456  2.7215 -0.6413 -0.1693
 1340SOL    HW2 5154   2.951   8.032   5.564 -0.2710 -0.3937 -0.3275
 1341SOL     OW 5155   3.237   1.895   4.902  0.3660  1.2218 -0.3666
 1341SOL    HW1 5156   3.165   1.894   4.965 -0.7216  2.1961 -1.5303
 1341SOL    HW2 5157   3.194   1.906   4.817  1.8092  0.2563 -1.2600
 1342SOL     OW 5158   6.877   8.474   0.092  0.0381 -0.4079 -0.2095
 1342SOL    HW1 5159   6.853   8.515   0.175 -2.4474  1.5561 -1.7521
 1342SOL    HW2 5160   6.866   8.380   0.108  1.5085 -0.2549  2.1716
 1343SOL     OW 5161   1.274   6.591   0.323  0.0858  0.5538 -0.2271
 1343SOL    HW1 5162   1.328   6.668   0.334  2.4781 -1.3560  3.3481
 1343SOL    HW2 5163   1.310   6.547   0.246  2.9651  0.0017  1.2940
 1344SOL     OW 5164   6.838   7.854   6.636 -0.0630 -0.4410 -0.4106
 1344SOL    HW1 5165   6.769   7.920   6.644  0.2539 -0.1587  0.0856
 1344SOL    HW2 5166   6.801   7.775   6.677 -0.1669 -0.3488 -0.3267
 1345SOL     OW 5167   5.481   0.479   5.013  0.0760  0.1434  0.0399
 1345SOL    HW1 5168   5.531   0.449   5.089 -0.1518  0.4126  0.2947
 1345SOL    HW2 5169   5.394   0.498   5.047  0.3008  1.3820 -0.0633
 1346SOL     OW 5170   0.023   1.047   8.732 -0.9839 -0.4211 -0.2316
 1346SOL    HW1 5171   0.048   1.090   8.813 -0.1568 -1.8826  0.3260
 1346SOL    HW2 5172   0.038   1.113   8.664  3.4186 -0.7279  0.1848
 1347SOL     OW 5173   3.041   0.237   5.622 -0.6591  0.6117  0.5659
 1347SOL    HW1 5174   3.091   0.156   5.620 -1.5094  0.0773 -0.7980
 1347SOL    HW2 5175   3.072   0.283   5.700 -0.3909 -1.1676  1.5680
 1348SOL     OW 5176   8.583   3.918   2.433  0.1931 -0.0320 -0.3880
 1348SOL    HW1 5177   8.633   3.995   2.461  1.8624 -1.5315  1.0657
 1348SOL    HW2 5178   8.507   3.953   2.387  1.2457  2.4431 -0.3733
 1349SOL     OW 5179   7.974   8.555   0.155  0.3622  0.2570  0.3243
 1349SOL    HW1 5180   7.923   8.605   0.218 -0.1990  0.6267 -0.3999
 1349SOL    HW2 5181   8.049   8.612   0.135 -0.0568  0.6414 -0.1850
 1350SOL     OW 5182   0.753   7.133   6.601  0.6086  0.0913 -0.0613
 1350SOL    HW1 5183   0.671   7.182   6.600  1.8936  2.4499  0.8637
 1350SOL    HW2 5184   0.759   7.093   6.514 -0.4760  1.7693 -0.9571
 1351SOL     OW 5185   3.849   0.547   5.394 -0.2493 -0.4404  0.3374
 1351SOL    HW1 5186   3.806   0.486   5.454 -0.9610  0.1577  0.4471
 1351SOL    HW2 5187   3.780   0.608   5.369  0.8989  1.5453  1.7745
 1352SOL     OW 5188   8.890   7.584   2.092 -0.2590 -0.3496  0.0369
 1352SOL    HW1 5189   8.973   7.591   2.139 -1.2105 -0.0204  1.7337
 1352SOL    HW2 5190   8.863   7.674   2.076 -0.5096 -0.4447 -0.0905
 1353SOL     OW 5191   0.276   6.457   4.188 -0.4101  0.0516 -0.3173
 1353SOL    HW1 5192   0.296   6.371   4.226  0.0411  0.3546  0.1339
 1353SOL    HW2 5193   0.266   6.439   4.095 -1.7202 -0.7310 -0.0497
 1354SOL     OW 5194   7.331   3.638   0.644  0.1284 -0.9530  0.4622
 1354SOL    HW1 5195   7.267   3.568   0.634 -0.5396 -0.0528 -3.4858
 1354SOL    HW2 5196   7.378   3.640   0.560  2.5107  1.1208  1.6914
 1355SOL     OW 5197   0.682   3.973   1.122 -0.0218  0.1569  0.2637
 1355SOL    HW1 5198   0.762   4.024   1.109  1.2148 -2.0462 -1.3839
 1355SOL    HW2 5199   0.623   4.003   1.053  0.2510  0.1966  0.0466
 1356SOL     OW 5200   2.496   2.560   5.890  0.0431  0.0693  0.4330
 1356SOL    HW1 5201   2.545   2.639   5.871 -0.1059 -0.3368 -1.9554
 1356SOL    HW2 5202   2.420   2.564   5.832 -1.3635 -0.6095  2.1277
 1357SOL     OW 5203   5.621   2.232   4.384  0.2467  0.6021 -0.2646
 1357SOL    HW1 5204   5.528   2.256   4.380  0.7423  2.5444 -1.9313
 1357SOL    HW2 5205   5.667   2.315   4.395  1.8227 -0.2208 -0.3719
 1358SOL     OW 5206   0.346   1.325   7.977 -0.2532  0.1356 -0.0454
 1358SOL    HW1 5207   0.413   1.350   7.913 -1.3407  0.4081 -1.1004
 1358SOL    HW2 5208   0.336   1.230   7.965 -0.1319  0.1112  0.0427
 1359SOL     OW 5209   3.090   3.611   3.861 -0.0456 -0.0099 -0.4591
 1359SOL    HW1 5210   3.123   3.651   3.780 -0.3356 -0.5149 -0.8368
 1359SOL    HW2 5211   3.139   3.654   3.931 -0.5777  1.2507 -0.8237
 1360SOL     OW 5212   7.327   0.650   3.038 -0.2202  0.1526  0.2325
 1360SOL    HW1 5213   7.342   0.568   3.086 -0.5509  0.9487  1.7599
 1360SOL    HW2 5214   7.290   0.709   3.103  1.7029  2.1189 -0.3303
 1361SOL     OW 5215   6.920   3.849   8.485 -0.0087  0.0883 -0.2791
 1361SOL    HW1 5216   6.915   3.861   8.390 -0.9612  0.6066 -0.1744
 1361SOL    HW2 5217   6.943   3.757   8.496  1.5309  0.3499 -1.0260
 1362SOL     OW 5218   3.276   0.507   5.154  0.4110 -0.4604 -0.5989
 1362SOL    HW1 5219   3.230   0.424   5.164 -2.2644  0.8267 -1.2030
 1362SOL    HW2 5220   3.219   0.571   5.198  1.3835  1.3365 -1.8310
 1363SOL     OW 5221   1.077   4.335   1.255 -0.3244  0.2745  0.1127
 1363SOL    HW1 5222   1.156   4.313   1.205 -0.5839  0.3248 -0.3255
 1363SOL    HW2 5223   1.106   4.402   1.317  0.5961 -1.6206  1.8273
 1364SOL     OW 5224   7.976   7.356   6.533  0.0893  0.5694  0.3277
 1364SOL    HW1 5225   7.971   7.385   6.624  0.7507  2.3064 -0.1604
 1364SOL    HW2 5226   8.053   7.400   6.498 -0.1559 -0.0801 -1.0834
 1365SOL     OW 5227   6.131   9.066   4.986 -0.5759 -0.6169 -0.6326
 1365SOL    HW1 5228   6.146   8.975   4.962  1.3110 -0.4531 -0.1878
 1365SOL    HW2 5229   6.210   9.093   5.033 -0.5722  1.5749 -1.7398
 1366SOL     OW 5230   4.202   8.964   3.172 -0.1184  0.3905 -0.4860
 1366SOL    HW1 5231   4.210   8.994   3.262 -0.0500 -1.0887  0.0316
 1366SOL    HW2 5232   4.110   8.938   3.163 -0.0222  0.1247 -0.7062
 1367SOL     OW 5233   3.349   1.155   4.566 -0.3915  0.0373  0.1436
 1367SOL    HW1 5234   3.387   1.229   4.613 -0.2051 -1.1495  1.9725
 1367SOL    HW2 5235   3.270   1.190   4.526  0.6698  1.6562 -0.6237
 1368SOL     OW 5236   3.646   4.512   8.443  0.2678  0.1272  0.7455
 1368SOL    HW1 5237   3.700   4.535   8.367  1.6561  0.8508  1.9054
 1368SOL    HW2 5238   3.659   4.418   8.453 -2.3184 -0.6221 -1.6548
 1369SOL     OW 5239   0.520   6.641   0.517  0.0156 -0.6511 -0.2449
 1369SOL    HW1 5240   0.608   6.624   0.484  0.3459  0.9343 -0.2666
 1369SOL    HW2 5241   0.492   6.722   0.473 -0.8337 -0.2901  0.8899
 1370SOL     OW 5242   7.669   1.872   2.498  0.1529 -0.5951 -0.3329
 1370SOL    HW1 5243   7.724   1.808   2.453  0.2980 -0.4993 -0.2909
 1370SOL    HW2 5244   7.582   1.832   2.498 -0.3310  0.3208 -2.5603
 1371SOL     OW 5245   0.449   7.671   1.441  0.3034 -0.1339  0.2120
 1371SOL    HW1 5246   0.432   7.725   1.363  2.0558  0.0455 -0.0808
 1371SOL    HW2 5247   0.543   7.653   1.438  0.1182 -1.4902  1.4331
 1372SOL     OW 5248   1.198   1.710   5.548 -0.3306  0.1261  0.6438
 1372SOL    HW1 5249   1.205   1.706   5.453  0.3709 -0.4748  0.7077
 1372SOL    HW2 5250   1.192   1.619   5.576  1.9482  0.1013  1.3175
 1373SOL     OW 5251   6.999   9.058   4.806  0.6926  0.0656 -0.4136
 1373SOL    HW1 5252   6.920   9.003   4.804  0.0195  0.9421  0.5876
 1373SOL    HW2 5253   6.996   9.108   4.725  1.6020 -1.7225 -1.6026
 1374SOL     OW 5254   7.562   0.859   4.651  0.2155 -0.0114  0.2094
 1374SOL    HW1 5255   7.560   0.954   4.641  0.7091 -0.0754 -0.6083
 1374SOL    HW2 5256   7.653   0.835   4.631  0.0228 -0.6769  0.1138
 1375SOL     OW 5257   4.494   6.879   6.745  0.3894 -0.0034 -0.1052
 1375SOL    HW1 5258   4.399   6.868   6.733  0.0244 -0.4754  2.5712
 1375SOL    HW2 5259   4.511   6.969   6.716 -0.8307  0.0190 -0.8345
 1376SOL     OW 5260   6.477   5.177   2.169  0.1457 -0.0690  0.1724
 1376SOL    HW1 5261   6.524   5.259   2.157  0.1675  0.1421  1.5632
 1376SOL    HW2 5262   6.389   5.203   2.195  0.0734 -0.4880  0.3499
 1377SOL     OW 5263   2.821   5.657   0.264  0.3639  0.0133 -0.4831
 1377SOL    HW1 5264   2.788   5.747   0.269 -2.2658 -0.7483 -2.2863
 1377SOL    HW2 5265   2.755   5.604   0.309  0.2800 -1.3242 -2.0888
 1378SOL     OW 5266   2.564   0.407   8.452 -0.2008 -0.2818  0.4160
 1378SOL    HW1 5267   2.493   0.460   8.488  0.7166  1.7647 -0.6400
 1378SOL    HW2 5268   2.615   0.468   8.398 -0.1412 -2.6047 -2.4220
 1379SOL     OW 5269   7.731   4.934   0.354  0.1426  0.1829  0.1447
 1379SOL    HW1 5270   7.817   4.962   0.323 -0.5257  0.6597 -1.3687
 1379SOL    HW2 5271   7.670   4.995   0.313 -1.0901 -1.4712 -0.5990
 1380SOL     OW 5272   3.251   5.574   3.269  0.1111 -0.1247 -0.6804
 1380SOL    HW1 5273   3.161   5.608   3.273  0.2831  0.4328 -1.4835
 1380SOL    HW2 5274   3.244   5.486   3.305 -0.4123  0.5975  1.1186
 1381SOL     OW 5275   0.691   1.325   4.800  0.2962  0.1534 -0.0674
 1381SOL    HW1 5276   0.666   1.410   4.762  1.3874 -0.0663 -1.3918
 1381SOL    HW2 5277   0.732   1.347   4.884  0.1877  0.9117 -0.2086
 1382SOL     OW 5278   5.336   7.599   7.440  0.0162 -0.1844  0.3558
 1382SOL    HW1 5279   5.344   7.684   7.483 -0.8749 -0.2147  0.5847
 1382SOL    HW2 5280   5.383   7.610   7.357 -1.9688  1.2273 -0.6456
 1383SOL     OW 5281   9.075   6.443   7.904 -0.1620 -0.4524  0.3984
 1383SOL    HW1 5282   9.081   6.474   7.995  0.3672 -1.0615  0.5778
 1383SOL    HW2 5283   9.133   6.501   7.855 -4.8893  4.0692 -0.7967
 1384SOL     OW 5284   1.724   8.183   6.923 -0.1590  0.2867 -0.4762
 1384SOL    HW1 5285   1.749   8.254   6.983 -1.2538  0.3533 -0.0794
 1384SOL    HW2 5286   1.706   8.228   6.840  0.3275  0.3220 -0.5662
 1385SOL     OW 5287   0.758   1.640   4.022 -0.6232  0.1494  0.3343
 1385SOL    HW1 5288   0.828   1.702   4.043 -0.4053  0.0035  0.0455
 1385SOL    HW2 5289   0.726   1.610   4.107  0.5689 -0.8026  0.4669
 1386SOL     OW 5290   2.655   4.578   8.891  0.4330  0.1181  0.2319
 1386SOL    HW1 5291   2.694   4.662   8.867  1.0275 -0.6915 -1.7719
 1386SOL    HW2 5292   2.728   4.528   8.928  0.1730  0.3036  1.0221
 1387SOL     OW 5293   0.083   5.958   7.541 -0.4026  0.2859  0.1300
 1387SOL    HW1 5294   0.129   6.016   7.602  0.9471 -0.6979  0.1000
 1387SOL    HW2 5295   0.091   6.002   7.456  0.9775 -0.0991  0.0334
 1388SOL     OW 5296   5.546   8.283   8.347 -0.3465 -0.6616  0.2288
 1388SOL    HW1 5297   5.483   8.331   8.295 -0.3001 -1.3146 -0.4415
 1388SOL    HW2 5298   5.607   8.246   8.284  0.4803 -0.3775  0.8374
 1389SOL     OW 5299   4.955   8.176   5.585 -0.1549 -0.4049 -0.0995
 1389SOL    HW1 5300   4.943   8.257   5.536  0.9029 -0.5811 -0.7017
 1389SOL    HW2 5301   5.050   8.161   5.582 -0.3698 -1.8530 -0.3162
 1390SOL     OW 5302   5.358   3.945   1.719  0.0956 -0.1926 -0.0463
 1390SOL    HW1 5303   5.280   3.949   1.663  1.1890 -0.7977 -1.6469
 1390SOL    HW2 5304   5.418   4.009   1.681  0.8249 -0.5356  0.5117
 1391SOL     OW 5305   7.142   5.487   6.054  0.2311  0.1711  0.2973
 1391SOL    HW1 5306   7.232   5.456   6.051 -0.0265 -0.4868 -1.3003
 1391SOL    HW2 5307   7.100   5.450   5.977 -1.0658  1.5445  0.2795
 1392SOL     OW 5308   2.028   3.877   1.662 -0.7646 -0.3594  0.3843
 1392SOL    HW1 5309   2.082   3.807   1.627  0.0743 -0.5096  1.8818
 1392SOL    HW2 5310   1.957   3.887   1.599 -0.0616 -1.5036 -0.6243
 1393SOL     OW 5311   0.715   7.475   4.000 -0.3120  0.5803 -0.2687
 1393SOL    HW1 5312   0.633   7.523   4.009  0.0282  0.9864  0.9479
 1393SOL    HW2 5313   0.708   7.403   4.062 -0.2680 -0.1461 -1.1031
 1394SOL     OW 5314   5.717   5.027   3.985  0.3153  0.2290  0.1421
 1394SOL    HW1 5315   5.709   5.059   4.075  1.9144  0.0103  0.3947
 1394SOL    HW2 5316   5.810   5.006   3.975 -0.1090 -1.3097 -1.0423
 1395SOL     OW 5317   6.769   5.595   5.626  0.2184 -0.3431  0.0309
 1395SOL    HW1 5318   6.757   5.590   5.721  1.0724 -3.3450  0.0755
 1395SOL    HW2 5319   6.686   5.565   5.590  0.6377 -1.3745 -0.0994
 1396SOL     OW 5320   1.711   3.482   8.601 -0.9200 -0.3003 -0.2733
 1396SOL    HW1 5321   1.659   3.403   8.582  1.2821 -2.9690  3.4123
 1396SOL    HW2 5322   1.786   3.477   8.542 -1.0436 -0.7001 -0.3972
 1397SOL     OW 5323   7.620   1.296   6.638  0.3751 -0.1315  0.0268
 1397SOL    HW1 5324   7.696   1.303   6.580  0.2594  0.4855 -0.0544
 1397SOL    HW2 5325   7.545   1.316   6.581 -0.1520 -3.2827 -0.5743
 1398SOL     OW 5326   8.007   4.434   0.253  0.5775  0.2611 -0.1650
 1398SOL    HW1 5327   7.914   4.442   0.231  0.1184 -0.9546  1.1949
 1398SOL    HW2 5328   8.041   4.370   0.190  0.4771  0.6326 -0.6023
 1399SOL     OW 5329   0.288   8.296   8.911 -0.0217 -0.1977 -0.0265
 1399SOL    HW1 5330   0.361   8.326   8.858  0.3203 -0.7698  0.1077
 1399SOL    HW2 5331   0.268   8.209   8.878 -2.1682  0.8113 -1.6011
 1400SOL     OW 5332   2.389   0.466   1.685  0.0913 -0.0430  0.2143
 1400SOL    HW1 5333   2.382   0.559   1.707 -1.0557 -0.2292  0.7106
 1400SOL    HW2 5334   2.366   0.420   1.767  0.8993 -0.7721  0.0533
 1401SOL     OW 5335   7.643   0.082   8.094  0.5496 -1.0297 -0.5533
 1401SOL    HW1 5336   7.732   0.058   8.069  0.7981 -0.4301 -0.2811
 1401SOL    HW2 5337   7.588   0.012   8.061  1.1375 -1.4463 -0.6521
 1402SOL     OW 5338   8.582   3.125   4.837  0.3362  0.2107 -0.0205
 1402SOL    HW1 5339   8.530   3.203   4.855 -0.5862 -0.3887 -0.0544
 1402SOL    HW2 5340   8.671   3.149   4.864 -0.1103  0.9631  0.8202
 1403SOL     OW 5341   6.510   3.813   7.784  0.6755  0.3236  0.7882
 1403SOL    HW1 5342   6.481   3.829   7.695 -0.3369 -1.7524  0.6952
 1403SOL    HW2 5343   6.553   3.894   7.810  2.3659  0.4808 -2.0956
 1404SOL     OW 5344   4.241   0.978   4.509 -0.3120  0.0167 -0.1184
 1404SOL    HW1 5345   4.258   1.070   4.529 -0.2394 -0.3403  1.6193
 1404SOL    HW2 5346   4.205   0.979   4.421  2.4999  1.4196 -1.3760
 1405SOL     OW 5347   3.849   0.021   7.451  0.4604 -0.0246 -0.2853
 1405SOL    HW1 5348   3.851   0.106   7.495  1.4081  1.1421 -2.4517
 1405SOL    HW2 5349   3.916  -0.030   7.497  0.7256  0.8089  0.2827
 1406SOL     OW 5350   4.862   0.558   6.710  0.1298 -0.3337  0.0043
 1406SOL    HW1 5351   4.804   0.633   6.722 -2.3109 -1.9893 -0.7658
 1406SOL    HW2 5352   4.875   0.523   6.798 -1.9518 -1.2314  0.0098
 1407SOL     OW 5353   7.926   0.311   6.325  0.0401 -0.1731 -0.2590
 1407SOL    HW1 5354   7.863   0.362   6.272  0.1795 -0.6018 -0.8472
 1407SOL    HW2 5355   7.990   0.376   6.355  0.4288 -0.0468 -1.3155
 1408SOL     OW 5356   7.352   2.922   3.990 -0.1063  0.8224  0.0124
 1408SOL    HW1 5357   7.350   2.974   4.070  0.0257  0.0530  0.5373
 1408SOL    HW2 5358   7.377   2.983   3.922 -2.1090  1.9188  0.2025
 1409SOL     OW 5359   4.828   2.641   0.676 -0.0619  0.6321 -0.3154
 1409SOL    HW1 5360   4.811   2.548   0.692 -1.2170  0.8311 -0.2929
 1409SOL    HW2 5361   4.742   2.683   0.685  0.7135  1.9592  1.4648
 1410SOL     OW 5362   0.555   6.712   7.878  0.4683  0.1110 -0.4916
 1410SOL    HW1 5363   0.530   6.795   7.918  1.5400 -0.4102  1.3955
 1410SOL    HW2 5364   0.542   6.647   7.947  0.6521 -1.1233 -1.5862
 1411SOL     OW 5365   8.859   6.927   6.842  0.3168  0.0491 -0.5936
 1411SOL    HW1 5366   8.805   6.925   6.763  1.0945 -0.6317 -1.1230
 1411SOL    HW2 5367   8.949   6.918   6.810  0.7549  1.1688  0.2701
 1412SOL     OW 5368   7.093   6.651   0.873  0.1431 -0.7021 -0.0816
 1412SOL    HW1 5369   7.173   6.702   0.855 -0.0517  0.0529  1.0845
 1412SOL    HW2 5370   7.065   6.680   0.960  0.1922 -3.0577  0.7944
 1413SOL     OW 5371   2.473   5.140   7.335  0.1789 -0.3123  0.5982
 1413SOL    HW1 5372   2.422   5.211   7.295 -0.3578 -0.6833  0.6109
 1413SOL    HW2 5373   2.545   5.124   7.274 -0.5394 -0.7624 -0.1516
 1414SOL     OW 5374   1.854   7.139   3.186 -0.8442  0.2544  0.9549
 1414SOL    HW1 5375   1.855   7.235   3.187  2.9757  0.3840  1.9170
 1414SOL    HW2 5376   1.809   7.116   3.105  1.9999  3.0743 -1.7008
 1415SOL     OW 5377   8.639   2.584   6.363  0.3244  0.0975  0.0105
 1415SOL    HW1 5378   8.675   2.672   6.361 -1.2594  0.7554 -1.3225
 1415SOL    HW2 5379   8.558   2.589   6.312 -0.1084 -1.9923  0.3825
 1416SOL     OW 5380   3.037   4.453   4.812 -0.2190 -0.6971  0.2375
 1416SOL    HW1 5381   3.090   4.423   4.739  0.3808 -1.2115  0.8697
 1416SOL    HW2 5382   3.063   4.545   4.824 -0.4429 -0.5604 -0.2928
 1417SOL     OW 5383   5.296   7.758   9.082 -0.4288 -0.4339 -0.0472
 1417SOL    HW1 5384   5.212   7.802   9.072 -1.3768 -2.2085 -0.4314
 1417SOL    HW2 5385   5.361   7.822   9.054 -1.5791  1.1902  0.8127
 1418SOL     OW 5386   6.654   8.869   1.156 -0.0310  0.3939 -0.2725
 1418SOL    HW1 5387   6.561   8.892   1.162 -0.1192 -0.2275  0.8659
 1418SOL    HW2 5388   6.655   8.788   1.105 -0.4946 -1.6181  2.6649
 1419SOL     OW 5389   2.698   6.592   7.098 -0.0055  0.1180 -0.1908
 1419SOL    HW1 5390   2.618   6.615   7.145  0.2125 -0.1452  0.3159
 1419SOL    HW2 5391   2.747   6.538   7.159  1.8014  2.4545  0.5875
 1420SOL     OW 5392   0.043   4.110   6.612  0.2291  0.0260 -0.2844
 1420SOL    HW1 5393   0.047   4.039   6.548  1.6756  1.6622 -2.1671
 1420SOL    HW2 5394  -0.043   4.150   6.598 -0.0094 -0.4701 -0.2318
 1421SOL     OW 5395   7.027   1.619   4.242 -0.3059 -0.5076 -0.4377
 1421SOL    HW1 5396   6.994   1.600   4.329  1.4543  0.1188  0.4198
 1421SOL    HW2 5397   6.967   1.573   4.183 -1.0543 -1.6432  1.1286
 1422SOL     OW 5398   7.407   3.664   8.276 -0.3475 -0.5245  0.0466
 1422SOL    HW1 5399   7.360   3.742   8.246  0.2971  0.0415  0.4896
 1422SOL    HW2 5400   7.459   3.694   8.351  0.9550 -1.0696 -0.6120
 1423SOL     OW 5401   1.474   7.896   7.133 -0.0921 -0.5842  0.2860
 1423SOL    HW1 5402   1.562   7.931   7.146 -0.5793 -0.0729  2.6604
 1423SOL    HW2 5403   1.474   7.861   7.044  2.1177  0.5081 -0.1827
 1424SOL     OW 5404   6.690   2.997   6.677  0.1855  0.1514  0.0716
 1424SOL    HW1 5405   6.596   2.986   6.661 -0.0546 -0.1420  1.5255
 1424SOL    HW2 5406   6.721   3.048   6.602 -1.1820  0.4640 -0.3150
 1425SOL     OW 5407   1.610   0.244   7.894 -0.0539  0.1481 -0.3216
 1425SOL    HW1 5408   1.659   0.253   7.976 -0.7710  4.0368 -0.1613
 1425SOL    HW2 5409   1.518   0.256   7.920 -0.7238 -2.2834 -1.2811
 1426SOL     OW 5410   0.448   8.937   0.760  0.8694  0.4780 -0.1459
 1426SOL    HW1 5411   0.518   8.891   0.806 -0.1530 -1.9274 -0.8829
 1426SOL    HW2 5412   0.460   8.913   0.668 -0.0482  1.2818 -0.4930
 1427SOL     OW 5413   6.046   1.756   3.381  0.0055  0.2196  0.8044
 1427SOL    HW1 5414   6.103   1.680   3.397  0.1005  0.2476  0.6014
 1427SOL    HW2 5415   5.970   1.721   3.335  0.3017  0.3321  0.2248
 1428SOL     OW 5416   1.801   7.588   7.473 -0.5334  0.4489 -0.2336
 1428SOL    HW1 5417   1.857   7.516   7.446  1.4524  1.3343  1.2439
 1428SOL    HW2 5418   1.771   7.564   7.561  0.7144  1.6620  0.5622
 1429SOL     OW 5419   5.972   3.321   3.492 -0.0176 -0.3539  0.0490
 1429SOL    HW1 5420   5.924   3.398   3.459  0.4870 -0.6018 -1.3562
 1429SOL    HW2 5421   5.928   3.299   3.574  0.0818  1.6838  0.7241
 1430SOL     OW 5422   1.498   0.284   1.217  0.6232 -0.4482 -0.3298
 1430SOL    HW1 5423   1.567   0.269   1.281  0.4141 -0.1784 -0.0369
 1430SOL    HW2 5424   1.522   0.365   1.173  0.1734 -0.0053  0.2151
 1431SOL     OW 5425   0.049   8.141   2.225 -0.8100 -0.0748 -0.5275
 1431SOL    HW1 5426  -0.004   8.093   2.289 -3.7157  0.2448 -2.4907
 1431SOL    HW2 5427  -0.003   8.219   2.206  1.0477  0.9417 -1.6605
 1432SOL     OW 5428   6.295   5.133   7.565 -0.2028  0.1956 -0.4988
 1432SOL    HW1 5429   6.353   5.076   7.614 -1.2400 -0.3185  0.1702
 1432SOL    HW2 5430   6.308   5.220   7.603 -0.6564 -0.1156  0.3864
 1433SOL     OW 5431   6.404   2.392   7.473 -0.7973 -0.4398  0.1937
 1433SOL    HW1 5432   6.460   2.447   7.418  1.8372 -0.8837  2.2057
 1433SOL    HW2 5433   6.340   2.452   7.511 -2.0743  0.0299 -2.4768
 1434SOL     OW 5434   5.791   5.750   8.602  0.2649  0.0841  0.0909
 1434SOL    HW1 5435   5.883   5.743   8.575  0.7995  0.1778  1.7907
 1434SOL    HW2 5436   5.785   5.696   8.681 -0.9930  0.5706  0.3427
 1435SOL     OW 5437   1.759   5.189   3.278  0.0626 -0.0882 -0.5316
 1435SOL    HW1 5438   1.692   5.236   3.329  0.4772 -0.2747  0.1953
 1435SOL    HW2 5439   1.837   5.191   3.333  0.9195  0.8537 -1.7269
 1436SOL     OW 5440   6.548   1.103   6.382 -0.1179 -0.2213  0.2157
 1436SOL    HW1 5441   6.467   1.135   6.343 -0.3290 -1.7863 -0.6986
 1436SOL    HW2 5442   6.571   1.170   6.447 -1.1814  1.1185 -0.7320
 1437SOL     OW 5443   8.774   0.872   3.689  0.1682  0.1507  0.0966
 1437SOL    HW1 5444   8.682   0.894   3.675 -0.3545 -0.5844  2.0066
 1437SOL    HW2 5445   8.818   0.956   3.699 -0.0408  0.5583 -1.9440
 1438SOL     OW 5446   5.702   0.923   6.414  0.5117  0.4031  0.6391
 1438SOL    HW1 5447   5.661   0.861   6.474  0.1289  0.8143  0.8137
 1438SOL    HW2 5448   5.629   0.959   6.363  1.1052 -2.7965 -2.9127
 1439SOL     OW 5449   5.283   6.580   3.847 -0.3780 -0.8797 -0.4806
 1439SOL    HW1 5450   5.344   6.518   3.808  0.3526  0.6627 -1.9279
 1439SOL    HW2 5451   5.239   6.531   3.917  1.0268 -2.6247 -0.7670
 1440SOL     OW 5452   1.681   1.649   7.336  0.2412  0.8028 -0.8356
 1440SOL    HW1 5453   1.663   1.727   7.389 -0.4285  0.3111 -0.3154
 1440SOL    HW2 5454   1.684   1.681   7.246 -0.5918  1.3536 -0.6783
 1441SOL     OW 5455   1.195   5.000   0.129 -0.3858 -0.5146  0.1627
 1441SOL    HW1 5456   1.181   5.045   0.045 -0.4399  0.4862  0.6904
 1441SOL    HW2 5457   1.211   4.909   0.105  0.8603 -0.0156 -1.0304
 1442SOL     OW 5458   6.867   3.946   2.370  0.3501 -0.2573 -0.0347
 1442SOL    HW1 5459   6.935   3.891   2.331  0.2701  0.1070 -0.7106
 1442SOL    HW2 5460   6.905   4.033   2.373  0.9653 -0.5400  2.2422
 1443SOL     OW 5461   0.796   1.941   5.744 -0.1869 -0.0676 -0.4591
 1443SOL    HW1 5462   0.842   1.866   5.705 -0.8221 -0.2546 -0.8541
 1443SOL    HW2 5463   0.769   1.993   5.669  2.3728  1.8803 -0.1657
 1444SOL     OW 5464   1.550   1.522   6.153  0.1572  0.7576 -0.1406
 1444SOL    HW1 5465   1.485   1.511   6.084  1.2303  0.0445 -1.0636
 1444SOL    HW2 5466   1.509   1.482   6.230  0.0282 -0.9580 -1.0461
 1445SOL     OW 5467   2.162   0.104   3.709 -0.6593  1.4225  0.1321
 1445SOL    HW1 5468   2.159   0.025   3.655  0.7868  0.0049  1.9763
 1445SOL    HW2 5469   2.107   0.167   3.662 -0.3055 -0.0168 -2.4128
 1446SOL     OW 5470   3.355   1.241   6.653  0.4218  0.0879  0.0533
 1446SOL    HW1 5471   3.402   1.320   6.623 -2.0879  1.5887 -0.2079
 1446SOL    HW2 5472   3.326   1.263   6.741  0.2885 -0.8434  0.2441
 1447SOL     OW 5473   7.687   0.871   2.333 -0.4330 -0.1029 -0.2631
 1447SOL    HW1 5474   7.749   0.943   2.314 -0.7803  0.1420 -0.4798
 1447SOL    HW2 5475   7.617   0.912   2.383 -0.3040 -0.4319  0.1881
 1448SOL     OW 5476   3.422   4.481   7.375 -0.0213  0.5544  0.5620
 1448SOL    HW1 5477   3.470   4.417   7.428  2.7373  1.4537 -0.6892
 1448SOL    HW2 5478   3.449   4.566   7.410  0.2703  1.1077 -0.9431
 1449SOL     OW 5479   5.996   0.366   3.058  0.0748  0.4985 -0.0697
 1449SOL    HW1 5480   6.052   0.363   2.981  0.6094  1.2881  0.2808
 1449SOL    HW2 5481   5.936   0.439   3.041 -0.8153 -0.2799 -0.4034
 1450SOL     OW 5482   6.805   7.790   7.528  0.4200 -0.4110 -0.0421
 1450SOL    HW1 5483   6.787   7.697   7.545 -0.2276 -0.0750  1.1837
 1450SOL    HW2 5484   6.770   7.805   7.440 -1.9884 -0.7045  0.7858
 1451SOL     OW 5485   7.356   5.472   2.645  0.1211  0.6317 -0.4249
 1451SOL    HW1 5486   7.291   5.402   2.630  0.1414  0.1749  1.4570
 1451SOL    HW2 5487   7.439   5.433   2.617  0.0580  0.0677  0.1497
 1452SOL     OW 5488   3.819   4.212   1.174 -0.1122 -0.0040 -0.0062
 1452SOL    HW1 5489   3.745   4.272   1.187 -0.9081 -0.6262 -1.4279
 1452SOL    HW2 5490   3.828   4.205   1.079  1.0143 -0.8793  0.1445
 1453SOL     OW 5491   3.953   2.882   7.659 -0.0442 -0.2999  0.3032
 1453SOL    HW1 5492   3.939   2.975   7.676 -0.5994 -0.1974 -0.6779
 1453SOL    HW2 5493   4.042   2.865   7.693 -0.4647  0.2376  1.7665
 1454SOL     OW 5494   2.927   4.743   5.281 -0.0049 -0.5437 -0.2059
 1454SOL    HW1 5495   2.964   4.658   5.255  0.7507 -0.2737 -0.0576
 1454SOL    HW2 5496   2.968   4.762   5.365  0.1254  0.1390 -0.4180
 1455SOL     OW 5497   3.794   0.454   0.178 -0.1826  0.2256 -0.1938
 1455SOL    HW1 5498   3.779   0.360   0.181  0.7432  0.0900  0.8024
 1455SOL    HW2 5499   3.774   0.479   0.087 -0.8447 -0.8428 -0.3580
 1456SOL     OW 5500   1.127   8.354   6.783 -0.0940 -0.1352 -0.0953
 1456SOL    HW1 5501   1.097   8.359   6.692  1.7728  1.4405 -0.6897
 1456SOL    HW2 5502   1.221   8.338   6.777  0.1902  0.6544  1.5352
 1457SOL     OW 5503   6.338   1.254   4.712 -0.2274  0.0485  0.4804
 1457SOL    HW1 5504   6.344   1.158   4.721 -0.7392 -0.0309  0.0134
 1457SOL    HW2 5505   6.270   1.267   4.646  0.1289  0.7291  0.2476
 1458SOL     OW 5506   0.035   2.719   8.613 -0.0668 -0.0480  0.4893
 1458SOL    HW1 5507   0.121   2.749   8.642  0.6656 -0.9300 -0.7146
 1458SOL    HW2 5508  -0.014   2.799   8.596  1.0204  0.4715 -0.2746
 1459SOL     OW 5509   0.840   4.284   7.646 -0.2428 -0.3905 -0.2328
 1459SOL    HW1 5510   0.880   4.361   7.688  0.8383 -1.0405 -0.0344
 1459SOL    HW2 5511   0.872   4.210   7.697  1.3152 -1.2483 -2.3033
 1460SOL     OW 5512   3.583   8.238   7.933  0.5873  0.4406 -0.2078
 1460SOL    HW1 5513   3.611   8.163   7.881 -1.2902  0.1779 -0.9273
 1460SOL    HW2 5514   3.664   8.280   7.961  1.6660 -1.3072 -0.5822
 1461SOL     OW 5515   8.381   6.200   6.691 -0.1688  0.0496  0.4264
 1461SOL    HW1 5516   8.376   6.187   6.786  2.5427  2.3457  1.0204
 1461SOL    HW2 5517   8.451   6.142   6.662 -0.9477 -0.5997 -0.1995
 1462SOL     OW 5518   6.580   7.486   8.729 -0.3215 -0.7201 -0.0376
 1462SOL    HW1 5519   6.536   7.477   8.644 -1.2030  1.7006  0.0680
 1462SOL    HW2 5520   6.555   7.407   8.777 -2.0935 -0.8625 -1.0853
 1463SOL     OW 5521   6.895   5.859   5.634  0.7003 -0.0388  0.0642
 1463SOL    HW1 5522   6.859   5.770   5.628  0.2996  0.1708 -0.8760
 1463SOL    HW2 5523   6.857   5.894   5.714  0.1840 -0.4337 -0.0000
 1464SOL     OW 5524   7.491   2.521   7.844  0.5303  0.4700  0.0990
 1464SOL    HW1 5525   7.425   2.575   7.888 -0.6227  0.4396 -1.5084
 1464SOL    HW2 5526   7.552   2.585   7.806  1.8053  0.4883  2.0528
 1465SOL     OW 5527   8.098   3.375   0.100  0.3400  0.7560 -0.0807
 1465SOL    HW1 5528   8.016   3.361   0.052  0.2220 -1.3928  0.6359
 1465SOL    HW2 5529   8.075   3.436   0.170 -0.6816  0.1288  0.1492
 1466SOL     OW 5530   7.557   4.295   6.405  0.3500 -0.4613 -0.7584
 1466SOL    HW1 5531   7.575   4.264   6.317  1.5023 -3.0087  0.2863
 1466SOL    HW2 5532   7.594   4.383   6.407  1.6624 -0.9133 -2.3860
 1467SOL     OW 5533   3.603   5.518   0.516  0.3076  0.3322  0.0320
 1467SOL    HW1 5534   3.683   5.570   0.519 -0.1861  1.0694  1.4266
 1467SOL    HW2 5535   3.573   5.515   0.606 -0.2539 -1.5280 -0.1762
 1468SOL     OW 5536   6.956   5.453   4.121  0.1169 -0.1997  0.6519
 1468SOL    HW1 5537   6.921   5.525   4.070 -0.1763 -1.3556 -0.8345
 1468SOL    HW2 5538   7.051   5.455   4.104  0.0470 -0.4533  0.2224
 1469SOL     OW 5539   1.687   0.888   2.356 -0.0574  0.3161  0.0695
 1469SOL    HW1 5540   1.635   0.831   2.412  1.3509 -1.7159 -0.5546
 1469SOL    HW2 5541   1.777   0.863   2.374  0.5613  1.5682 -1.1036
 1470SOL     OW 5542   4.459   2.691   6.521  0.3177  0.2931 -0.3820
 1470SOL    HW1 5543   4.448   2.643   6.603  0.9857  0.2326 -0.3168
 1470SOL    HW2 5544   4.540   2.655   6.484  0.2128  0.5756 -0.8874
 1471SOL     OW 5545   5.328   7.936   7.264 -0.8013  0.1309 -0.4602
 1471SOL    HW1 5546   5.410   7.938   7.314  0.5471 -0.8132 -2.4739
 1471SOL    HW2 5547   5.289   8.022   7.279  0.5988  0.6482  0.5028
 1472SOL     OW 5548   3.333   5.416   5.969  0.4522  0.0838 -0.1085
 1472SOL    HW1 5549   3.310   5.323   5.961 -2.0015  0.2766  2.6332
 1472SOL    HW2 5550   3.365   5.441   5.883 -2.3464 -2.4183 -2.0697
 1473SOL     OW 5551   3.171   3.205   4.882 -0.0303  0.1171  0.0189
 1473SOL    HW1 5552   3.211   3.203   4.969  1.1235  1.5613 -0.4352
 1473SOL    HW2 5553   3.238   3.169   4.824 -0.2845  0.3856 -0.4459
 1474SOL     OW 5554   1.684   1.534   8.308  0.3279 -0.6868  0.1359
 1474SOL    HW1 5555   1.724   1.579   8.234  0.8412 -2.0286 -0.4278
 1474SOL    HW2 5556   1.728   1.572   8.385  0.7859 -0.2672 -0.3205
 1475SOL     OW 5557   2.581   5.703   6.876 -0.3508  0.2483 -0.2468
 1475SOL    HW1 5558   2.636   5.776   6.845  0.1272  0.2480  0.5732
 1475SOL    HW2 5559   2.615   5.683   6.963 -1.5824  0.1632  0.2312
 1476SOL     OW 5560   5.298   3.334   0.228 -0.1873 -0.3150  0.2689
 1476SOL    HW1 5561   5.336   3.420   0.212 -2.3697  0.5274 -0.8552
 1476SOL    HW2 5562   5.254   3.343   0.313 -0.7988 -0.1466 -0.0575
 1477SOL     OW 5563   6.763   2.369   5.672  0.3477 -0.4883 -0.5134
 1477SOL    HW1 5564   6.757   2.274   5.670  0.1450 -0.4947  0.0989
 1477SOL    HW2 5565   6.837   2.387   5.730  1.7566 -0.2952 -2.3124
 1478SOL     OW 5566   9.046   0.275   3.299  0.4081  0.1141  0.0118
 1478SOL    HW1 5567   9.068   0.306   3.387 -0.4452  1.4167 -0.2106
 1478SOL    HW2 5568   9.066   0.348   3.241  0.7954 -0.6720 -0.8718
 1479SOL     OW 5569   1.215   6.135   2.771 -0.6108  0.7811  0.1351
 1479SOL    HW1 5570   1.192   6.102   2.684 -2.1329  0.5289  0.6123
 1479SOL    HW2 5571   1.238   6.227   2.757  0.0833  0.4913 -0.6664
 1480SOL     OW 5572   6.677   0.831   8.714  0.1311 -0.3429 -0.4304
 1480SOL    HW1 5573   6.771   0.839   8.700  0.2619  0.0323  0.5931
 1480SOL    HW2 5574   6.642   0.917   8.691  0.2612  0.0534  0.7780
 1481SOL     OW 5575   2.411   3.081   4.062 -0.0208  0.0402 -0.6227
 1481SOL    HW1 5576   2.403   3.102   4.155 -0.3497  0.3658 -0.7224
 1481SOL    HW2 5577   2.441   2.990   4.060 -2.0562 -0.6893 -0.2259
 1482SOL     OW 5578   0.360   4.105   6.916 -0.9101 -0.3344  0.1721
 1482SOL    HW1 5579   0.359   4.129   6.823  2.0645 -2.0144 -0.4024
 1482SOL    HW2 5580   0.439   4.145   6.950 -2.5132  1.1939  2.3778
 1483SOL     OW 5581   4.338   8.036   6.613 -0.1571 -0.3596 -0.2412
 1483SOL    HW1 5582   4.329   8.130   6.597 -3.0138 -0.2287  1.4524
 1483SOL    HW2 5583   4.343   8.028   6.708 -0.5439 -1.9289 -0.3282
 1484SOL     OW 5584   8.282   8.606   7.225 -0.1396  0.0609 -0.1849
 1484SOL    HW1 5585   8.242   8.526   7.260 -0.4004  0.0829 -0.4300
 1484SOL    HW2 5586   8.243   8.616   7.138 -0.1186  0.4637 -0.1482
 1485SOL     OW 5587   4.935   6.205   4.465 -0.2456 -0.0003  0.0830
 1485SOL    HW1 5588   4.874   6.161   4.524  2.1679 -2.2531  1.0858
 1485SOL    HW2 5589   4.886   6.281   4.432 -1.5188  2.0299  5.5944
 1486SOL     OW 5590   0.726   3.792   3.766  0.1937  0.4640 -0.0545
 1486SOL    HW1 5591   0.766   3.743   3.694 -0.5907 -1.4193  0.7385
 1486SOL    HW2 5592   0.665   3.852   3.723 -0.1039 -0.4675 -0.9825
 1487SOL     OW 5593   1.746   3.237   3.945  0.0961 -0.2224 -0.3009
 1487SOL    HW1 5594   1.653   3.254   3.929  0.0127 -0.7358 -0.3796
 1487SOL    HW2 5595   1.782   3.322   3.970  0.2172  0.6817 -3.1738
 1488SOL     OW 5596   3.345   1.780   2.443  0.4286 -0.1401  0.3454
 1488SOL    HW1 5597   3.323   1.740   2.527  0.0192  0.5599  0.5716
 1488SOL    HW2 5598   3.309   1.720   2.378  0.9248 -0.7915  0.6557
 1489SOL     OW 5599   3.049   0.405   4.764 -0.6259  0.1616 -0.0371
 1489SOL    HW1 5600   2.955   0.424   4.767 -0.3944  1.2475  2.1808
 1489SOL    HW2 5601   3.087   0.479   4.717 -0.7707  0.2369 -0.0348
 1490SOL     OW 5602   4.963   2.976   0.629 -0.1703  0.4567  0.1892
 1490SOL    HW1 5603   5.042   2.995   0.679 -0.1704  1.9158 -0.3041
 1490SOL    HW2 5604   4.985   2.900   0.575  1.3267  1.5662 -0.8308
 1491SOL     OW 5605   7.672   5.205   4.667  0.3329 -0.2331  0.8022
 1491SOL    HW1 5606   7.634   5.271   4.610 -0.3261 -1.8592 -0.7086
 1491SOL    HW2 5607   7.744   5.168   4.616 -0.7918 -2.2995  0.6060
 1492SOL     OW 5608   0.551   0.688   5.145  0.2864  0.6940 -0.5850
 1492SOL    HW1 5609   0.483   0.646   5.197  1.0592  1.0668  0.7587
 1492SOL    HW2 5610   0.630   0.636   5.162  0.5004  0.6614 -1.6052
 1493SOL     OW 5611   2.971   1.453   0.392 -0.2038 -0.1326  0.5550
 1493SOL    HW1 5612   3.039   1.516   0.415  0.0741  0.0378 -0.6315
 1493SOL    HW2 5613   3.016   1.368   0.392 -0.2418 -0.1519  0.8012
 1494SOL     OW 5614   4.317   8.759   8.747 -0.3183  0.1719 -0.3703
 1494SOL    HW1 5615   4.354   8.833   8.795 -0.3094  0.2231 -0.4563
 1494SOL    HW2 5616   4.223   8.766   8.760 -0.3514  0.4548 -0.7488
 1495SOL     OW 5617   1.233   7.072   5.731  0.1290 -0.2045 -0.0287
 1495SOL    HW1 5618   1.315   7.046   5.773 -1.3837 -1.3727  2.4822
 1495SOL    HW2 5619   1.236   7.168   5.729  0.6322 -0.1226  2.1932
 1496SOL     OW 5620   6.991   7.808   3.658  0.3190  0.1443 -0.0158
 1496SOL    HW1 5621   6.951   7.723   3.639  0.7814 -0.2325  0.6575
 1496SOL    HW2 5622   6.980   7.819   3.753 -2.4711  2.2460 -0.4469
 1497SOL     OW 5623   8.038   3.103   8.594 -0.1479  0.2281  0.0988
 1497SOL    HW1 5624   8.100   3.171   8.620  0.1566 -0.2347  0.6103
 1497SOL    HW2 5625   7.978   3.147   8.534 -0.6640  1.2537  1.3162
 1498SOL     OW 5626   6.977   0.905   2.552  0.0026 -0.4797  0.2454
 1498SOL    HW1 5627   6.983   0.994   2.587  0.5571 -0.9507  1.3914
 1498SOL    HW2 5628   6.890   0.875   2.576 -0.1101 -0.3257  0.0350
 1499SOL     OW 5629   0.306   8.070   4.916  0.3238  1.0387  0.6652
 1499SOL    HW1 5630   0.292   8.162   4.898 -0.6031  0.6828 -0.5306
 1499SOL    HW2 5631   0.374   8.043   4.854 -0.1394  0.6812  0.3099
 1500SOL     OW 5632   5.239   0.370   3.104  0.4716  0.3044  0.6581
 1500SOL    HW1 5633   5.285   0.417   3.034 -1.2663  1.5447  0.2672
 1500SOL    HW2 5634   5.304   0.361   3.174  0.9300  3.4034  0.7713
 1501SOL     OW 5635   3.024   1.667   0.827  0.1892 -0.3005 -0.1402
 1501SOL    HW1 5636   3.042   1.751   0.869  0.6852 -1.7666  2.8842
 1501SOL    HW2 5637   2.933   1.674   0.798 -0.0867  0.9553  0.9515
 1502SOL     OW 5638   2.812   8.887   5.076 -0.5117  0.5978 -0.3530
 1502SOL    HW1 5639   2.769   8.803   5.091 -1.0949  0.8401 -0.6183
 1502SOL    HW2 5640   2.757   8.951   5.120  0.9070  0.6672  1.4314
 1503SOL     OW 5641   1.247   2.658   8.353 -0.1805  0.0839 -0.1574
 1503SOL    HW1 5642   1.282   2.684   8.438 -2.7418  3.4722  0.0919
 1503SOL    HW2 5643   1.159   2.626   8.371 -1.0091  1.4526 -1.5230
 1504SOL     OW 5644   2.514   7.233   3.993  0.1847  0.0718 -0.0080
 1504SOL    HW1 5645   2.441   7.171   4.003  0.6661 -0.5246 -0.1499
 1504SOL    HW2 5646   2.528   7.268   4.081  0.9471 -1.2167  0.4094
 1505SOL     OW 5647   5.663   2.914   3.339 -0.9758  0.1211 -0.2157
 1505SOL    HW1 5648   5.748   2.925   3.296  0.3575  1.8108  2.5533
 1505SOL    HW2 5649   5.649   2.820   3.342  0.5355 -0.1566 -1.2376
 1506SOL     OW 5650   8.322   1.677   4.717 -0.6204  0.0018 -0.5688
 1506SOL    HW1 5651   8.371   1.753   4.747  1.8572 -0.7318 -2.4367
 1506SOL    HW2 5652   8.251   1.713   4.665 -1.2603  1.0559  0.9599
 1507SOL     OW 5653   7.606   2.479   8.270  0.0009 -0.0133  0.0759
 1507SOL    HW1 5654   7.588   2.392   8.305  0.8262  0.3217  1.4065
 1507SOL    HW2 5655   7.522   2.524   8.274 -0.2761 -0.5123  0.0368
 1508SOL     OW 5656   0.673   7.547   4.807 -0.4914  0.1714  0.0653
 1508SOL    HW1 5657   0.733   7.605   4.855 -0.1933 -1.1250  1.3085
 1508SOL    HW2 5658   0.720   7.464   4.802 -1.7533 -0.5575  0.1153
 1509SOL     OW 5659   9.039   5.256   8.284 -0.6919 -0.2053  0.1738
 1509SOL    HW1 5660   8.994   5.340   8.280  0.1136  0.1801 -1.7203
 1509SOL    HW2 5661   9.028   5.218   8.197  0.4411 -1.2569  0.4608
 1510SOL     OW 5662   5.976   8.659   8.084  0.1380 -0.1148  0.1869
 1510SOL    HW1 5663   5.952   8.723   8.017  2.5434  1.5597  0.8141
 1510SOL    HW2 5664   6.019   8.588   8.035  0.6529  0.4474 -0.1921
 1511SOL     OW 5665   6.456   0.855   3.071  0.3342  0.1683  0.0757
 1511SOL    HW1 5666   6.496   0.893   3.149 -0.3036 -1.0431  1.0343
 1511SOL    HW2 5667   6.434   0.765   3.097 -1.1566  0.1732 -1.0405
 1512SOL     OW 5668   7.897   7.476   8.202  0.4173 -0.1657 -0.0076
 1512SOL    HW1 5669   7.988   7.504   8.199  0.4968 -0.5113 -2.3739
 1512SOL    HW2 5670   7.899   7.384   8.175 -0.6223 -0.2347  0.1034
 1513SOL     OW 5671   8.522   3.555   8.315 -0.4951  0.7991  0.0304
 1513SOL    HW1 5672   8.515   3.649   8.333  3.6244  1.5130 -0.9834
 1513SOL    HW2 5673   8.552   3.551   8.224 -1.3834 -1.5888 -0.2061
 1514SOL     OW 5674   6.076   3.580   6.285  0.0966  0.2202 -0.3084
 1514SOL    HW1 5675   5.983   3.593   6.303 -0.1210  1.2629 -1.9978
 1514SOL    HW2 5676   6.119   3.655   6.326  0.2584 -0.3939  0.6942
 1515SOL     OW 5677   5.925   2.564   5.374 -0.1328  0.4868 -0.4619
 1515SOL    HW1 5678   5.845   2.526   5.337 -0.0043  1.4424 -1.8064
 1515SOL    HW2 5679   5.905   2.657   5.385  1.5734  1.3313 -3.3735
 1516SOL     OW 5680   4.750   5.285   6.839 -0.2652  0.3889  0.6360
 1516SOL    HW1 5681   4.835   5.253   6.870 -1.9624 -4.6169  1.0646
 1516SOL    HW2 5682   4.725   5.352   6.903  3.3986  2.4361  0.1842
 1517SOL     OW 5683   0.422   2.393   6.046 -0.7786  0.2432 -0.2714
 1517SOL    HW1 5684   0.438   2.307   6.086  0.0233  1.5430  2.3775
 1517SOL    HW2 5685   0.328   2.395   6.031 -0.6962 -1.4507 -1.3373
 1518SOL     OW 5686   5.855   5.872   3.298  0.9984 -0.0510  0.0785
 1518SOL    HW1 5687   5.912   5.950   3.295 -0.3355  0.9316 -1.0879
 1518SOL    HW2 5688   5.843   5.848   3.207 -0.4312 -0.2551  0.3016
 1519SOL     OW 5689   5.821   2.213   0.243  0.5222  0.1968  0.7687
 1519SOL    HW1 5690   5.887   2.281   0.257  0.7159  0.0064  0.7812
 1519SOL    HW2 5691   5.837   2.150   0.313  0.5793 -0.0473  0.5366
 1520SOL     OW 5692   4.927   0.274   5.835  0.0255  0.2753 -0.0170
 1520SOL    HW1 5693   5.009   0.231   5.811  0.4780  0.6002  0.9097
 1520SOL    HW2 5694   4.868   0.202   5.858  0.3320  0.0850  0.1735
 1521SOL     OW 5695   0.422   0.916   2.775 -0.3611  0.0296 -0.0168
 1521SOL    HW1 5696   0.440   1.010   2.778  2.8691 -0.5048  2.6684
 1521SOL    HW2 5697   0.449   0.890   2.687  1.3157  1.2662  0.0691
 1522SOL     OW 5698   2.605   3.596   4.828  0.1150  0.2981  0.3850
 1522SOL    HW1 5699   2.676   3.611   4.890  1.7537  0.6994 -1.4883
 1522SOL    HW2 5700   2.549   3.673   4.837  0.3541  0.3795  1.2956
 1523SOL     OW 5701   3.221   7.439   6.589 -0.2830  0.2544  0.1752
 1523SOL    HW1 5702   3.190   7.513   6.641 -0.0026  0.2497  0.3498
 1523SOL    HW2 5703   3.157   7.431   6.518  0.0736  1.1115 -0.2506
 1524SOL     OW 5704   3.523   2.286   7.733  0.0545  0.1983  0.2832
 1524SOL    HW1 5705   3.615   2.312   7.722  0.5743 -1.7926 -0.3852
 1524SOL    HW2 5706   3.492   2.271   7.644 -0.3144 -1.0699  0.6128
 1525SOL     OW 5707   3.959   3.895   8.198 -0.1753 -0.3081 -0.2279
 1525SOL    HW1 5708   4.012   3.945   8.259  2.6034 -0.4138 -2.3871
 1525SOL    HW2 5709   4.013   3.885   8.120 -3.2959 -0.6465 -2.5834
 1526SOL     OW 5710   6.853   3.018   4.584  0.1254 -0.3203  0.0832
 1526SOL    HW1 5711   6.789   3.088   4.572  2.0729  1.6025  0.3627
 1526SOL    HW2 5712   6.800   2.938   4.590 -2.2079  1.1373  0.1490
 1527SOL     OW 5713   7.710   0.786   8.629 -0.5606 -0.4976 -0.0294
 1527SOL    HW1 5714   7.803   0.763   8.642 -0.6565 -1.0189 -0.2331
 1527SOL    HW2 5715   7.701   0.872   8.669  0.4490  0.4135 -1.6849
 1528SOL     OW 5716   4.543   5.900   5.898  0.5549  0.1371 -0.1371
 1528SOL    HW1 5717   4.609   5.969   5.897 -1.0247  1.7322 -1.0743
 1528SOL    HW2 5718   4.484   5.923   5.826 -0.5924 -1.6434  0.1737
 1529SOL     OW 5719   5.313   2.316   7.341  0.3583 -0.5343  0.2365
 1529SOL    HW1 5720   5.279   2.227   7.338 -0.2524 -0.2959 -0.0601
 1529SOL    HW2 5721   5.248   2.368   7.296  0.3153  0.1954  1.1134
 1530SOL     OW 5722   3.611   4.404   5.019  0.0429 -0.4662  0.5287
 1530SOL    HW1 5723   3.573   4.482   4.980 -0.7815 -1.9944 -1.9645
 1530SOL    HW2 5724   3.696   4.432   5.053 -0.2803  1.5005 -0.1829
 1531SOL     OW 5725   7.440   7.366   4.050  0.2243  1.0653  0.1030
 1531SOL    HW1 5726   7.429   7.273   4.070 -1.9152  0.8673 -1.6562
 1531SOL    HW2 5727   7.365   7.409   4.092 -0.0511  1.6553 -0.9427
 1532SOL     OW 5728   6.312   3.842   0.106 -0.1680  0.2554  0.2702
 1532SOL    HW1 5729   6.222   3.817   0.081  0.1059  1.0633 -1.6694
 1532SOL    HW2 5730   6.365   3.818   0.030  0.6969  3.0920 -0.1059
 1533SOL     OW 5731   8.777   4.998   4.706  0.4496 -0.1048 -0.2300
 1533SOL    HW1 5732   8.777   4.961   4.618  2.3073 -0.9344  0.0564
 1533SOL    HW2 5733   8.711   4.947   4.754 -3.6588  3.0015 -2.0151
 1534SOL     OW 5734   3.410   0.052   0.609 -0.5547 -0.4293 -0.2924
 1534SOL    HW1 5735   3.456   0.118   0.557 -1.0351 -1.1950 -1.7598
 1534SOL    HW2 5736   3.479  -0.008   0.638 -0.1465  0.5753  0.8650
 1535SOL     OW 5737   1.925   3.436   6.376  0.0768 -0.5020 -0.3611
 1535SOL    HW1 5738   1.868   3.390   6.438  1.2100 -2.6225 -0.7961
 1535SOL    HW2 5739   2.004   3.382   6.371  1.1515  1.0627 -1.6054
 1536SOL     OW 5740   3.959   2.829   6.545 -0.1455 -0.4139 -0.4383
 1536SOL    HW1 5741   4.035   2.886   6.541 -0.0435 -0.6103 -1.4265
 1536SOL    HW2 5742   3.986   2.757   6.603  0.1020 -0.0390 -0.0812
 1537SOL     OW 5743   4.320   5.043   6.568 -0.0124  0.4817 -0.1641
 1537SOL    HW1 5744   4.305   5.008   6.656  1.5010  1.8337  0.6984
 1537SOL    HW2 5745   4.332   4.966   6.513  1.0468 -0.3935  1.2285
 1538SOL     OW 5746   8.452   6.467   7.966 -0.1148 -0.2879  0.0570
 1538SOL    HW1 5747   8.390   6.470   8.039  0.0207  0.8008  0.1374
 1538SOL    HW2 5748   8.461   6.374   7.946 -1.7158 -0.4739  0.0989
 1539SOL     OW 5749   5.871   4.173   3.851  0.0866  0.4766  0.3964
 1539SOL    HW1 5750   5.930   4.248   3.852  0.4820  0.1706  1.4918
 1539SOL    HW2 5751   5.797   4.200   3.904 -0.8892  0.9302 -1.1336
 1540SOL     OW 5752   0.743   7.330   5.941 -0.1639 -0.6121  1.0337
 1540SOL    HW1 5753   0.701   7.301   6.022 -2.0540  2.4307  1.3160
 1540SOL    HW2 5754   0.809   7.394   5.969  1.1929 -1.6194  0.2719
 1541SOL     OW 5755   0.289   6.516   0.149  0.7475  0.4314 -0.6866
 1541SOL    HW1 5756   0.376   6.549   0.128  1.0080  0.5731  0.5603
 1541SOL    HW2 5757   0.305   6.442   0.208  0.0387  0.2312 -0.7418
 1542SOL     OW 5758   0.587   4.102   1.691  0.4867  0.2180  0.2055
 1542SOL    HW1 5759   0.626   4.083   1.776  0.2731 -1.6882 -0.0655
 1542SOL    HW2 5760   0.621   4.032   1.634 -2.1046 -0.6662 -0.3907
 1543SOL     OW 5761   2.157   8.551   0.880 -0.1105  0.0141 -0.0108
 1543SOL    HW1 5762   2.109   8.468   0.878 -0.6492  0.3240 -0.2064
 1543SOL    HW2 5763   2.239   8.530   0.924  0.7746 -1.1387 -2.0962
 1544SOL     OW 5764   1.922   8.162   5.923 -0.4611 -0.3461 -0.5812
 1544SOL    HW1 5765   1.988   8.096   5.900  2.0474  1.7623  0.1172
 1544SOL    HW2 5766   1.972   8.234   5.961 -2.8807  2.5205 -2.3808
 1545SOL     OW 5767   2.427   3.600   7.640 -0.3496  0.1546  0.0498
 1545SOL    HW1 5768   2.439   3.683   7.595 -0.4590 -0.9930 -2.2561
 1545SOL    HW2 5769   2.332   3.588   7.645 -0.3337  0.1096  0.2678
 1546SOL     OW 5770   0.531   0.440   1.536  0.2450 -0.2212 -0.0984
 1546SOL    HW1 5771   0.519   0.525   1.580  0.7670 -0.1909 -0.0121
 1546SOL    HW2 5772   0.470   0.382   1.581 -2.1943  0.7347 -1.9764
 1547SOL     OW 5773   1.416   6.668   7.636 -0.4809 -0.0643  0.1341
 1547SOL    HW1 5774   1.325   6.694   7.622 -0.1386  1.4696  0.5250
 1547SOL    HW2 5775   1.458   6.683   7.551 -0.5785 -0.7391 -0.0368
 1548SOL     OW 5776   1.023   3.893   3.508 -0.1928  0.3950 -0.9474
 1548SOL    HW1 5777   1.071   3.817   3.476 -2.6788 -0.1933 -3.7823
 1548SOL    HW2 5778   1.055   3.907   3.597  2.4922 -2.0872 -1.4033
 1549SOL     OW 5779   5.169   8.335   7.964  0.0131  0.0979 -0.0524
 1549SOL    HW1 5780   5.139   8.257   7.918 -0.3421  0.1945  0.0097
 1549SOL    HW2 5781   5.250   8.360   7.921  0.2093 -0.3994  0.0301
 1550SOL     OW 5782   3.140   2.903   0.761  0.5052  0.5376  0.1668
 1550SOL    HW1 5783   3.189   2.840   0.813  0.7858  1.6613  1.3164
 1550SOL    HW2 5784   3.049   2.894   0.790  0.1289 -0.9003 -1.3094
 1551SOL     OW 5785   0.743   6.259   0.079  0.1093 -0.0776 -0.3427
 1551SOL    HW1 5786   0.760   6.354   0.082  0.9418 -0.2383  0.3314
 1551SOL    HW2 5787   0.731   6.234   0.170  0.5200 -0.7243 -0.4616
 1552SOL     OW 5788   2.813   5.965   6.222  0.0707 -0.0946  0.0330
 1552SOL    HW1 5789   2.868   5.966   6.144  0.9082  1.7839  0.5866
 1552SOL    HW2 5790   2.874   5.980   6.295 -0.8460 -0.5916  0.9281
 1553SOL     OW 5791   2.247   6.396   2.267 -0.3764 -0.0993  0.5938
 1553SOL    HW1 5792   2.220   6.331   2.201 -2.6925  2.1168 -0.8156
 1553SOL    HW2 5793   2.269   6.344   2.344 -1.5335 -2.5872 -0.6419
 1554SOL     OW 5794   8.326   0.133   2.647 -0.1850 -0.5390 -0.0706
 1554SOL    HW1 5795   8.340   0.225   2.624 -0.1084 -0.7033 -0.7103
 1554SOL    HW2 5796   8.367   0.085   2.575  0.7270 -1.0861  0.7926
 1555SOL     OW 5797   3.693   6.950   7.276  0.1176 -0.4414  0.2611
 1555SOL    HW1 5798   3.716   6.959   7.184 -1.5319 -2.0746 -0.3787
 1555SOL    HW2 5799   3.629   7.019   7.292  0.7220  0.1165  0.3269
 1556SOL     OW 5800   0.887   5.845   0.993 -0.1556  0.2431  0.0312
 1556SOL    HW1 5801   0.936   5.822   1.072 -1.0957 -0.5683  0.4004
 1556SOL    HW2 5802   0.903   5.939   0.981  2.5527 -0.2314 -0.6431
 1557SOL     OW 5803   6.577   6.526   1.931 -0.1836 -0.0306  0.0633
 1557SOL    HW1 5804   6.513   6.570   1.987  0.8614  0.5187  0.8516
 1557SOL    HW2 5805   6.558   6.559   1.843 -1.3983 -0.3871  0.1750
 1558SOL     OW 5806   4.519   6.697   3.277 -0.0774 -0.3794 -0.6396
 1558SOL    HW1 5807   4.568   6.628   3.322 -0.1793  0.8475  1.4821
 1558SOL    HW2 5808   4.586   6.745   3.227  0.2551 -0.9825 -0.7859
 1559SOL     OW 5809   6.775   4.323   7.622  0.1123  0.3696 -0.4415
 1559SOL    HW1 5810   6.811   4.320   7.711  0.1422 -3.0168 -0.4404
 1559SOL    HW2 5811   6.694   4.373   7.632  1.5137  2.5496  0.8383
 1560SOL     OW 5812   0.280   1.302   5.067 -0.0343  0.1778 -0.7443
 1560SOL    HW1 5813   0.323   1.276   5.148 -1.2673  0.8095  0.1358
 1560SOL    HW2 5814   0.241   1.221   5.034 -1.5100  0.3268  0.5374
 1561SOL     OW 5815   6.664   8.060   6.739 -0.2736  0.2910  0.3234
 1561SOL    HW1 5816   6.696   8.107   6.816  1.4958 -0.7131  0.2580
 1561SOL    HW2 5817   6.650   8.128   6.673  0.7748  0.8880  0.7048
 1562SOL     OW 5818   6.190   3.383   8.488 -0.4049 -0.3006 -0.2109
 1562SOL    HW1 5819   6.238   3.463   8.465  0.1811 -0.8132 -0.8306
 1562SOL    HW2 5820   6.206   3.371   8.581 -1.6458  1.0550  0.2135
 1563SOL     OW 5821   2.654   0.421   6.875  0.1721  0.2561  0.1454
 1563SOL    HW1 5822   2.710   0.497   6.856  0.2723 -0.1120 -1.1134
 1563SOL    HW2 5823   2.680   0.394   6.963  1.7705  0.2933 -0.2698
 1564SOL     OW 5824   1.484   8.323   2.750 -0.1242 -0.5706 -0.3176
 1564SOL    HW1 5825   1.554   8.297   2.689  0.1031 -2.4819  0.6779
 1564SOL    HW2 5826   1.407   8.275   2.718 -0.2222 -0.8592  0.3374
 1565SOL     OW 5827   7.741   1.580   3.992  0.1896  0.6601 -0.4862
 1565SOL    HW1 5828   7.834   1.558   3.988  0.3240  1.3417 -1.8858
 1565SOL    HW2 5829   7.735   1.649   4.057  0.5571  0.1611  0.0850
 1566SOL     OW 5830   0.652   2.544   5.582 -0.0270 -0.8864  0.0206
 1566SOL    HW1 5831   0.590   2.574   5.648 -0.2629 -0.0418 -0.5759
 1566SOL    HW2 5832   0.614   2.463   5.547 -1.8539  0.6670 -1.7740
 1567SOL     OW 5833   6.325   8.245   0.352 -0.0198  0.3539 -0.6071
 1567SOL    HW1 5834   6.268   8.221   0.425  0.4929  0.8404 -0.0364
 1567SOL    HW2 5835   6.364   8.162   0.324  1.3091  0.3974  0.9810
 1568SOL     OW 5836   1.904   2.956   0.706 -0.3850 -0.0562  0.3676
 1568SOL    HW1 5837   1.885   3.036   0.656 -2.5726 -0.7494 -0.0082
 1568SOL    HW2 5838   1.874   2.885   0.650 -0.9222 -0.9847  1.7781
 1569SOL     OW 5839   0.652   8.082   0.959  0.2894  0.2750 -0.0917
 1569SOL    HW1 5840   0.592   8.056   1.029  2.8298 -1.0703  1.7580
 1569SOL    HW2 5841   0.643   8.177   0.953 -1.8026  0.1513  0.2150
 1570SOL     OW 5842   7.335   9.060   4.626 -0.6640  0.3805  0.0376
 1570SOL    HW1 5843   7.367   8.976   4.593 -2.0964 -0.0740 -0.2734
 1570SOL    HW2 5844   7.339   9.052   4.721 -0.4393  0.1018  0.0049
 1571SOL     OW 5845   3.908   3.751   4.799  0.2245  0.6169  0.0568
 1571SOL    HW1 5846   3.841   3.780   4.861 -1.0360  1.2156 -1.5014
 1571SOL    HW2 5847   3.878   3.664   4.772  0.3000  0.7157 -0.3428
 1572SOL     OW 5848   2.517   1.809   7.614 -0.4099 -0.1847  0.2607
 1572SOL    HW1 5849   2.560   1.817   7.699  0.5950 -0.5094 -0.2014
 1572SOL    HW2 5850   2.535   1.893   7.570 -2.6920  0.8411  1.1173
 1573SOL     OW 5851   1.909   1.258   0.762 -0.3255 -0.2575  0.3557
 1573SOL    HW1 5852   1.943   1.341   0.730 -0.1993 -0.2899  0.4056
 1573SOL    HW2 5853   1.984   1.214   0.802  0.0563 -1.2485 -1.3715
 1574SOL     OW 5854   2.075   0.237   8.629  0.1467 -0.2866  0.0750
 1574SOL    HW1 5855   2.017   0.203   8.696  0.8096 -1.4802  0.0765
 1574SOL    HW2 5856   2.023   0.302   8.582 -0.6979 -0.2906  0.9897
 1575SOL     OW 5857   5.840   4.839   8.857  0.0879  0.2069 -0.0416
 1575SOL    HW1 5858   5.814   4.749   8.836 -1.2384  0.7438 -0.8818
 1575SOL    HW2 5859   5.761   4.878   8.895 -0.3184  1.7845 -2.2525
 1576SOL     OW 5860   1.191   7.716   0.576  0.0508 -0.5500 -0.1533
 1576SOL    HW1 5861   1.262   7.755   0.626 -0.1394  0.7939 -0.8847
 1576SOL    HW2 5862   1.135   7.790   0.552 -1.1976 -1.4846 -0.2228
 1577SOL     OW 5863   6.866   4.500   7.098 -0.3040 -0.2839 -0.3007
 1577SOL    HW1 5864   6.773   4.485   7.082 -0.4698 -0.7457  0.9770
 1577SOL    HW2 5865   6.904   4.511   7.011 -1.4575 -0.6404 -0.8697
 1578SOL     OW 5866   8.746   7.566   7.922  0.3993 -0.2842  0.1000
 1578SOL    HW1 5867   8.679   7.627   7.891  0.6615 -1.0271 -2.1298
 1578SOL    HW2 5868   8.708   7.479   7.909  1.9302 -0.7452 -1.7781
 1579SOL     OW 5869   1.877   4.342   2.039 -0.2573  0.2897  0.1992
 1579SOL    HW1 5870   1.832   4.356   1.955 -2.8633  0.8689  1.5842
 1579SOL    HW2 5871   1.919   4.426   2.058  1.0869 -0.1016 -0.8730
 1580SOL     OW 5872   6.975   1.730   5.559  0.2327  0.2582  0.0185
 1580SOL    HW1 5873   7.027   1.719   5.639  1.6970  2.2221 -0.5955
 1580SOL    HW2 5874   6.891   1.688   5.580  0.9366 -0.2432  2.1799
 1581SOL     OW 5875   0.721   7.281   0.346  0.4705 -0.0761  0.5608
 1581SOL    HW1 5876   0.800   7.228   0.358  1.8198  1.5681 -0.6276
 1581SOL    HW2 5877   0.733   7.322   0.260 -2.1019 -0.4440 -0.0480
 1582SOL     OW 5878   4.634   7.894   7.144  0.6172  0.5333 -0.2010
 1582SOL    HW1 5879   4.547   7.892   7.185  0.3814  2.0424 -0.5744
 1582SOL    HW2 5880   4.623   7.845   7.063  0.7579 -1.3662  0.8672
 1583SOL     OW 5881   4.809   0.154   6.742  0.3390 -0.0825  0.2820
 1583SOL    HW1 5882   4.879   0.219   6.732  2.0988 -1.7024  1.3603
 1583SOL    HW2 5883   4.756   0.188   6.814  0.5519  0.7235  0.0718
 1584SOL     OW 5884   5.714   0.325   2.627  0.3224 -0.4896  0.0646
 1584SOL    HW1 5885   5.808   0.338   2.613 -0.1938  2.6471 -1.3358
 1584SOL    HW2 5886   5.699   0.349   2.718  0.6010  1.1757 -0.3096
 1585SOL     OW 5887   6.240   8.716   5.854 -0.3573 -0.2884  0.7734
 1585SOL    HW1 5888   6.324   8.727   5.809  0.6190  1.2182  2.8125
 1585SOL    HW2 5889   6.242   8.626   5.887  0.6509 -0.1374  1.1543
 1586SOL     OW 5890   8.145   7.040   5.336  0.1238 -0.4945  0.3125
 1586SOL    HW1 5891   8.140   7.114   5.276 -0.2578 -0.9402 -0.2162
 1586SOL    HW2 5892   8.238   7.032   5.356  0.1040  0.5158  0.8759
 1587SOL     OW 5893   1.793   0.767   7.211  0.0647 -0.2140 -0.3577
 1587SOL    HW1 5894   1.802   0.843   7.268 -2.0816  1.4504 -2.0292
 1587SOL    HW2 5895   1.698   0.757   7.200  0.2434  0.7411 -4.8622
 1588SOL     OW 5896   5.700   3.273   8.185  0.2954  0.1881  0.2315
 1588SOL    HW1 5897   5.690   3.187   8.225  0.6422  0.5310  1.0895
 1588SOL    HW2 5898   5.614   3.293   8.148  0.2448 -0.5639 -0.0545
 1589SOL     OW 5899   2.687   8.910   3.306  0.1841  0.4459  0.1860
 1589SOL    HW1 5900   2.672   8.867   3.390 -1.5134 -0.0106 -0.2957
 1589SOL    HW2 5901   2.737   8.989   3.327 -1.9537  1.4558  1.9598
 1590SOL     OW 5902   3.933   8.169   1.466 -0.0370  0.3503  0.2630
 1590SOL    HW1 5903   3.936   8.231   1.538 -1.0991  1.2928 -0.4655
 1590SOL    HW2 5904   3.914   8.085   1.508 -1.2499  0.9858  1.0520
 1591SOL     OW 5905   5.943   0.205   1.871  0.6235  0.6774 -0.0255
 1591SOL    HW1 5906   5.936   0.212   1.776 -0.0982  0.9285  0.0370
 1591SOL    HW2 5907   5.918   0.114   1.890  0.0618  0.8250 -0.0257
 1592SOL     OW 5908   4.453   8.400   6.780  0.5445  0.3128 -0.0490
 1592SOL    HW1 5909   4.375   8.362   6.820  0.2098  0.6315 -0.3928
 1592SOL    HW2 5910   4.452   8.368   6.690  0.9749  0.0762  0.0261
 1593SOL     OW 5911   1.108   2.677   1.743  0.2305  0.0910  0.5003
 1593SOL    HW1 5912   1.116   2.699   1.836 -0.4810  0.0560  0.5702
 1593SOL    HW2 5913   1.172   2.734   1.699  0.6974 -0.0207  1.0229
 1594SOL     OW 5914   7.491   3.608   3.658  0.1672 -0.2053 -0.0356
 1594SOL    HW1 5915   7.563   3.556   3.694  0.5280 -0.2205 -0.7702
 1594SOL    HW2 5916   7.423   3.544   3.639  0.9055 -0.5691 -1.6895
 1595SOL     OW 5917   0.898   3.776   4.548  0.5148 -0.2733  0.1777
 1595SOL    HW1 5918   0.823   3.742   4.499 -1.4855  2.4378  1.1692
 1595SOL    HW2 5919   0.887   3.742   4.636 -0.5087  1.3968  0.7277
 1596SOL     OW 5920   6.852   5.197   5.692  0.0722  0.2896 -0.0273
 1596SOL    HW1 5921   6.860   5.171   5.784 -1.6647  2.7534  0.9070
 1596SOL    HW2 5922   6.907   5.275   5.684 -0.7460  0.8156 -0.7442
 1597SOL     OW 5923   2.860   2.821   0.860  0.1626 -0.3470  0.1754
 1597SOL    HW1 5924   2.779   2.858   0.894 -0.4910 -0.8962 -0.7578
 1597SOL    HW2 5925   2.840   2.795   0.770  0.9482 -1.7934  0.3772
 1598SOL     OW 5926   7.366   3.637   1.039 -0.3934  0.2451  0.2519
 1598SOL    HW1 5927   7.448   3.659   0.994 -1.2888  0.9202 -1.1226
 1598SOL    HW2 5928   7.386   3.649   1.132  1.2609 -0.3212  0.0045
 1599SOL     OW 5929   2.405   8.441   0.569 -0.7478  0.3670 -0.1765
 1599SOL    HW1 5930   2.451   8.476   0.493 -0.6127 -0.6033 -0.5429
 1599SOL    HW2 5931   2.467   8.453   0.641 -0.2810 -0.0981 -0.4976
 1600SOL     OW 5932   4.240   2.811   0.305  0.1141 -0.1640  0.1314
 1600SOL    HW1 5933   4.220   2.904   0.320  1.2350  0.0901  0.1265
 1600SOL    HW2 5934   4.275   2.807   0.216  0.6259 -0.4887  0.3375
 1601SOL     OW 5935   8.455   3.132   0.163  0.3812  0.4296  0.1597
 1601SOL    HW1 5936   8.454   3.164   0.073 -1.3827  1.7462  0.5930
 1601SOL    HW2 5937   8.449   3.211   0.216 -1.6390 -0.4387  1.3443
 1602SOL     OW 5938   3.874   3.736   2.336 -0.0392 -0.7277  0.1727
 1602SOL    HW1 5939   3.865   3.831   2.339  0.2429 -0.7300  2.4383
 1602SOL    HW2 5940   3.793   3.706   2.293 -0.1769  0.5040 -0.4699
 1603SOL     OW 5941   5.331   7.504   3.448 -0.1115 -0.2658  0.4134
 1603SOL    HW1 5942   5.371   7.562   3.514  1.0247 -1.4126  0.7564
 1603SOL    HW2 5943   5.270   7.450   3.498  0.3684 -0.7826  0.4450
 1604SOL     OW 5944   5.538   4.173   5.227  0.1292  0.2398 -0.4099
 1604SOL    HW1 5945   5.552   4.188   5.133 -0.4236  0.9354 -0.3940
 1604SOL    HW2 5946   5.584   4.245   5.270 -0.4185  0.4692 -0.2001
 1605SOL     OW 5947   6.699   8.334   2.443  0.1098 -0.1456 -0.1692
 1605SOL    HW1 5948   6.605   8.318   2.440  0.1058 -0.0605 -0.5857
 1605SOL    HW2 5949   6.731   8.281   2.517 -0.3028  0.0475  0.1509
 1606SOL     OW 5950   0.358   6.435   7.739  0.1197 -0.3084 -0.4114
 1606SOL    HW1 5951   0.407   6.388   7.672  0.1473 -0.9700  0.0679
 1606SOL    HW2 5952   0.403   6.414   7.821 -0.5245 -0.3311 -0.0588
 1607SOL     OW 5953   6.786   5.410   7.912 -0.1960  0.1364  0.0626
 1607SOL    HW1 5954   6.781   5.370   7.999  0.1450 -2.8102 -1.1599
 1607SOL    HW2 5955   6.754   5.341   7.852  1.9005  1.1377 -2.3784
 1608SOL     OW 5956   0.631   4.107   0.648 -0.1993  0.0059 -0.4699
 1608SOL    HW1 5957   0.685   4.059   0.710 -1.8684 -0.6450  0.5226
 1608SOL    HW2 5958   0.680   4.101   0.565  0.6615 -1.5660  0.1105
 1609SOL     OW 5959   6.469   5.353   0.730 -0.1923  0.4594 -0.0681
 1609SOL    HW1 5960   6.424   5.347   0.814 -2.6632  1.3187 -1.2363
 1609SOL    HW2 5961   6.437   5.278   0.680  2.1065 -0.6823  0.0849
 1610SOL     OW 5962   2.322   3.286   3.092  0.3574  0.2122 -0.2914
 1610SOL    HW1 5963   2.289   3.211   3.141  1.5144  0.1137  0.3803
 1610SOL    HW2 5964   2.407   3.305   3.131  0.2128  1.7112 -0.6292
 1611SOL     OW 5965   1.990   1.194   0.310  0.0898 -0.5842 -0.8665
 1611SOL    HW1 5966   1.898   1.169   0.316 -0.3350  0.8534 -0.9452
 1611SOL    HW2 5967   2.006   1.247   0.388  0.3651  0.5848 -1.6907
 1612SOL     OW 5968   0.701   1.339   0.021 -0.2354  0.8005  0.4851
 1612SOL    HW1 5969   0.623   1.286   0.040  1.1272 -2.0452 -1.2619
 1612SOL    HW2 5970   0.747   1.290  -0.047  2.7412  2.7302  0.9499
 1613SOL     OW 5971   3.334   6.058   1.517  0.7939 -0.0308  0.6198
 1613SOL    HW1 5972   3.268   6.127   1.516  1.3176  0.4811  0.8303
 1613SOL    HW2 5973   3.297   5.989   1.461  0.4961  0.6321 -0.0245
 1614SOL     OW 5974   4.005   1.172   5.005 -0.0336  0.3364  0.4930
 1614SOL    HW1 5975   4.098   1.192   5.008  0.3163 -1.0749 -0.4388
 1614SOL    HW2 5976   3.982   1.151   5.095  0.6427  0.2254  0.6420
 1615SOL     OW 5977   8.045   3.984   7.807 -0.0398  0.4687  0.4112
 1615SOL    HW1 5978   8.052   4.053   7.874 -0.1185 -0.5181  1.4560
 1615SOL    HW2 5979   8.082   4.024   7.728  3.9682  0.3515  2.0108
 1616SOL     OW 5980   5.186   3.613   5.585  0.0790  0.0088  0.4683
 1616SOL    HW1 5981   5.096   3.590   5.562 -0.2354  0.2284  1.4256
 1616SOL    HW2 5982   5.229   3.630   5.501 -0.9914  0.6993  0.0381
 1617SOL     OW 5983   2.892   3.009   0.475  0.4386  0.4016 -0.2748
 1617SOL    HW1 5984   2.884   3.072   0.547 -0.9725 -0.6431  0.5423
 1617SOL    HW2 5985   2.986   3.000   0.461  0.7522  0.5867  1.5119
 1618SOL     OW 5986   5.052   6.351   1.758 -0.1247 -0.3841  0.1176
 1618SOL    HW1 5987   5.141   6.378   1.734 -0.2069 -0.5722 -0.3927
 1618SOL    HW2 5988   5.065   6.297   1.837  0.2685 -0.8592 -0.2614
 1619SOL     OW 5989   3.360   4.362   2.899  0.3158  0.3160  0.7976
 1619SOL    HW1 5990   3.323   4.335   2.983 -2.9004  3.3354  0.5813
 1619SOL    HW2 5991   3.453   4.339   2.905 -0.2008 -1.5473  4.2289
 1620SOL     OW 5992   8.298   0.761   2.353  0.2595 -0.3750  0.6902
 1620SOL    HW1 5993   8.223   0.789   2.302  0.0072  1.5572  1.9956
 1620SOL    HW2 5994   8.273   0.676   2.389  0.2480 -1.5385 -1.8767
 1621SOL     OW 5995   1.633   6.443   3.175 -0.2194 -0.2633  0.0506
 1621SOL    HW1 5996   1.659   6.352   3.191 -0.6718 -0.2868  0.7078
 1621SOL    HW2 5997   1.562   6.437   3.111  1.8995 -0.1426 -2.4368
 1622SOL     OW 5998   3.882   6.980   0.485  0.6136  0.3581 -0.9261
 1622SOL    HW1 5999   3.938   7.057   0.472 -0.4022  0.8514 -2.8704
 1622SOL    HW2 6000   3.811   7.012   0.542  1.7731 -0.0290  0.8041
 1623SOL     OW 6001   3.600   6.656   3.406  0.2289  0.5699  1.0255
 1623SOL    HW1 6002   3.623   6.625   3.319  0.4090  1.4931  0.7345
 1623SOL    HW2 6003   3.508   6.633   3.416  0.4339 -0.3142  0.9419
 1624SOL     OW 6004   4.927   8.442   5.715 -0.0835  0.7479 -0.9310
 1624SOL    HW1 6005   4.936   8.347   5.723  1.3161  0.9381  0.3135
 1624SOL    HW2 6006   4.885   8.469   5.797  0.6724  1.3069 -0.7134
 1625SOL     OW 6007   5.398   5.830   2.983  0.0627 -0.3666  0.6318
 1625SOL    HW1 6008   5.342   5.759   3.014  1.1328 -0.5962  2.1837
 1625SOL    HW2 6009   5.474   5.785   2.944 -0.2438 -0.0652 -0.3254
 1626SOL     OW 6010   8.842   8.146   4.209 -0.1323 -0.6170  0.4533
 1626SOL    HW1 6011   8.784   8.219   4.227 -0.9384 -1.1595  0.1211
 1626SOL    HW2 6012   8.810   8.075   4.264 -0.4880 -1.2519 -0.5416
 1627SOL     OW 6013   4.575   5.142   1.025 -0.3989  0.6457 -0.1799
 1627SOL    HW1 6014   4.658   5.164   0.983 -1.4856  1.3668 -2.0781
 1627SOL    HW2 6015   4.548   5.223   1.068 -0.3326  0.5361  0.0693
 1628SOL     OW 6016   4.276   8.836   4.188  0.0692 -0.3602 -0.3260
 1628SOL    HW1 6017   4.295   8.899   4.118  1.5113 -0.8548 -0.4016
 1628SOL    HW2 6018   4.360   8.820   4.230 -0.6551 -0.6089  1.0910
 1629SOL     OW 6019   8.675   0.680   1.593  0.2834 -0.0669 -0.4766
 1629SOL    HW1 6020   8.599   0.721   1.551 -0.3917 -1.3478 -0.5538
 1629SOL    HW2 6021   8.657   0.687   1.687  1.7449  2.7074 -0.2918
 1630SOL     OW 6022   0.720   7.902   8.380  0.4211  0.2606  0.3415
 1630SOL    HW1 6023   0.723   7.967   8.450  0.6562  1.2276 -0.5503
 1630SOL    HW2 6024   0.713   7.953   8.299  1.7299 -0.7622 -0.4585
 1631SOL     OW 6025   6.755   7.564   3.612  0.1955  0.4139 -0.1253
 1631SOL    HW1 6026   6.670   7.541   3.575 -0.1391  1.6593 -0.1956
 1631SOL    HW2 6027   6.810   7.584   3.536  0.3952  0.1244 -0.0586
 1632SOL     OW 6028   0.440   3.931   0.625 -0.5490  0.3404  0.3022
 1632SOL    HW1 6029   0.388   3.966   0.553  1.3274 -0.2528 -1.4136
 1632SOL    HW2 6030   0.527   3.969   0.613  0.1278 -0.7249  1.5630
 1633SOL     OW 6031   8.111   7.999   2.557  0.4022  0.1885 -0.0107
 1633SOL    HW1 6032   8.111   8.030   2.647  0.9972  0.9405 -0.2585
 1633SOL    HW2 6033   8.027   7.954   2.546 -0.2935  1.3326  0.4862
 1634SOL     OW 6034   6.601   1.292   6.581 -0.9303  0.2829 -0.3282
 1634SOL    HW1 6035   6.529   1.343   6.619 -1.0464  0.3199 -0.5974
 1634SOL    HW2 6036   6.664   1.284   6.652 -0.3956  1.7541 -0.5985
 1635SOL     OW 6037   6.225   3.061   0.348  0.0018 -0.0718 -0.1310
 1635SOL    HW1 6038   6.221   3.102   0.435  1.9536 -0.8319  0.3658
 1635SOL    HW2 6039   6.221   3.135   0.287  0.2989  0.6213  0.6606
 1636SOL     OW 6040   4.611   0.668   4.472  0.4484 -0.2480  0.0717
 1636SOL    HW1 6041   4.564   0.691   4.392  1.9767 -3.7156 -2.0466
 1636SOL    HW2 6042   4.681   0.610   4.443  3.0722  0.7712  3.6262
 1637SOL     OW 6043   8.478   4.992   0.245  0.2029  0.3944  0.1386
 1637SOL    HW1 6044   8.452   4.901   0.233 -0.4723  0.7783 -1.5599
 1637SOL    HW2 6045   8.427   5.022   0.321 -2.8524  0.5218 -1.8137
 1638SOL     OW 6046   7.487   1.267   2.073 -0.0485  0.8354  0.0407
 1638SOL    HW1 6047   7.580   1.251   2.092 -0.1546 -0.3190 -0.3193
 1638SOL    HW2 6048   7.441   1.197   2.118 -0.7553  1.4138  0.2281
 1639SOL     OW 6049   0.281   1.963   7.950  0.1834 -0.4891  0.1287
 1639SOL    HW1 6050   0.269   2.054   7.976 -0.9202 -0.7464  0.5842
 1639SOL    HW2 6051   0.251   1.960   7.859 -0.0783 -0.4575  0.2134
 1640SOL     OW 6052   0.098   5.128   1.463  0.1753  0.1496  0.5341
 1640SOL    HW1 6053   0.056   5.138   1.549 -0.1270 -0.7541  0.5061
 1640SOL    HW2 6054   0.183   5.088   1.482  0.3913  0.5637  0.4593
 1641SOL     OW 6055   8.743   8.706   1.244  0.2373 -0.2101 -0.1201
 1641SOL    HW1 6056   8.750   8.658   1.327  1.6056  0.6948  0.3033
 1641SOL    HW2 6057   8.816   8.674   1.191 -0.3287 -0.4095 -0.8018
 1642SOL     OW 6058   3.807   6.386   4.880  0.1202 -0.2080  0.0413
 1642SOL    HW1 6059   3.729   6.421   4.922 -0.7483 -0.2158 -1.4954
 1642SOL    HW2 6060   3.868   6.460   4.875 -0.7911  0.5014 -1.0490
 1643SOL     OW 6061   3.898   3.016   6.892  0.1777 -0.2848  0.3110
 1643SOL    HW1 6062   3.943   2.981   6.969  0.4565 -1.0798 -0.2065
 1643SOL    HW2 6063   3.809   3.033   6.922  0.5650  0.4412  1.0985
 1644SOL     OW 6064   6.366   7.992   8.936 -0.0292  0.4295 -0.4130
 1644SOL    HW1 6065   6.351   7.910   8.983 -0.4676  0.2584 -0.8337
 1644SOL    HW2 6066   6.319   8.058   8.987 -0.4566  0.2546 -0.5699
 1645SOL     OW 6067   5.177   2.030   2.279 -0.4329  0.5627 -0.7030
 1645SOL    HW1 6068   5.156   2.043   2.372 -1.8843  0.5264 -0.9953
 1645SOL    HW2 6069   5.094   2.044   2.234  0.0115 -0.5068 -1.9108
 1646SOL     OW 6070   2.315   8.598   4.070 -0.3849  0.1735  0.2568
 1646SOL    HW1 6071   2.273   8.518   4.100  1.0676 -0.2345  1.2778
 1646SOL    HW2 6072   2.247   8.644   4.021 -1.1049 -1.9160 -0.8160
 1647SOL     OW 6073   6.906   2.167   7.597 -0.2452  0.1268 -0.0208
 1647SOL    HW1 6074   6.963   2.223   7.544 -0.5129  0.7908  0.3762
 1647SOL    HW2 6075   6.893   2.088   7.544  3.4359 -1.4252  1.0212
 1648SOL     OW 6076   0.243   4.992   5.661  0.0631 -0.2328  0.7736
 1648SOL    HW1 6077   0.249   4.951   5.575  3.0871  0.6356  0.4453
 1648SOL    HW2 6078   0.270   4.924   5.722 -1.6832 -0.7238  1.0512
 1649SOL     OW 6079   3.712   6.994   0.031 -0.4081 -0.2321 -0.1229
 1649SOL    HW1 6080   3.708   6.925   0.098  0.9426 -0.6906 -0.4812
 1649SOL    HW2 6081   3.748   6.950  -0.046  0.0489  0.7820 -0.5033
 1650SOL     OW 6082   1.621   2.464   2.376  0.3043 -0.5377 -0.3828
 1650SOL    HW1 6083   1.698   2.442   2.428 -0.9095 -2.9836  0.5804
 1650SOL    HW2 6084   1.565   2.386   2.383 -1.8631  0.7892 -1.7600
 1651SOL     OW 6085   1.938   9.094   6.890 -0.1861 -0.0332 -0.3888
 1651SOL    HW1 6086   2.012   9.037   6.870  1.1957  1.6884 -0.4139
 1651SOL    HW2 6087   1.917   9.137   6.807 -1.1547 -0.3955 -0.3495
 1652SOL     OW 6088   3.287   8.727   3.394  0.7928 -0.8023 -0.3397
 1652SOL    HW1 6089   3.214   8.700   3.450  0.2849  0.0425 -0.5749
 1652SOL    HW2 6090   3.261   8.701   3.306 -0.1701  1.2693 -0.7238
 1653SOL     OW 6091   7.787   4.885   2.424  0.1625  0.4390  0.5212
 1653SOL    HW1 6092   7.775   4.825   2.498  0.6160  0.9549  1.0237
 1653SOL    HW2 6093   7.822   4.965   2.464 -0.7360  1.1546 -0.0966
 1654SOL     OW 6094   0.741   3.075   0.799  0.2517 -0.0578 -0.6084
 1654SOL    HW1 6095   0.771   3.118   0.719  1.5239  0.1677 -0.0350
 1654SOL    HW2 6096   0.779   3.127   0.870 -0.2353 -0.6914  0.1349
 1655SOL     OW 6097   0.904   5.026   0.155  0.3135 -0.2464  0.1572
 1655SOL    HW1 6098   0.851   5.018   0.234 -0.8192  3.0590 -0.1093
 1655SOL    HW2 6099   0.992   5.002   0.183 -0.6409 -2.4663  1.4929
 1656SOL     OW 6100   5.870   1.532   4.617 -0.0889 -0.3806 -0.0324
 1656SOL    HW1 6101   5.895   1.617   4.653 -0.0940 -0.7317  0.8478
 1656SOL    HW2 6102   5.865   1.545   4.523 -0.5182  0.6982  0.1367
 1657SOL     OW 6103   2.048   2.399   4.312 -0.2256 -0.3555 -0.2848
 1657SOL    HW1 6104   2.004   2.470   4.265  0.7203 -0.1990 -0.9527
 1657SOL    HW2 6105   2.060   2.433   4.401 -0.4409  0.0275 -0.3999
 1658SOL     OW 6106   1.058   4.467   0.259  0.1345  0.2466 -0.2387
 1658SOL    HW1 6107   0.978   4.438   0.301  0.4855  0.4927  0.6227
 1658SOL    HW2 6108   1.033   4.483   0.168 -0.7813  0.3003  0.0123
 1659SOL     OW 6109   0.068   1.809   2.518 -0.0395 -0.3536 -0.1960
 1659SOL    HW1 6110   0.021   1.886   2.486  0.3441 -0.5639 -1.3296
 1659SOL    HW2 6111   0.002   1.739   2.517  0.2914 -0.6746 -1.8911
 1660SOL     OW 6112   1.651   3.919   8.630  0.4309  0.6292  0.6848
 1660SOL    HW1 6113   1.610   3.835   8.652 -1.0064  1.1615  0.1997
 1660SOL    HW2 6114   1.735   3.896   8.590  0.0023 -0.5893  0.4506
 1661SOL     OW 6115   7.322   1.909   4.396 -0.0190 -0.5894  0.1572
 1661SOL    HW1 6116   7.255   1.954   4.448  0.2105  0.7085 -0.6216
 1661SOL    HW2 6117   7.395   1.896   4.457 -0.2923 -0.3772  0.5355
 1662SOL     OW 6118   4.739   6.698   4.870 -0.1736 -0.0030 -0.3671
 1662SOL    HW1 6119   4.760   6.722   4.780  1.2390 -1.0869 -0.3582
 1662SOL    HW2 6120   4.706   6.608   4.865  0.1280 -0.1535  0.2204
 1663SOL     OW 6121   8.827   6.114   0.201  0.1755  0.5755  0.3340
 1663SOL    HW1 6122   8.921   6.122   0.214 -0.1086  3.0864  1.3923
 1663SOL    HW2 6123   8.811   6.020   0.193  2.9022  0.1516 -1.1784
 1664SOL     OW 6124   8.472   4.345   6.218 -0.6707  0.2928 -0.4275
 1664SOL    HW1 6125   8.478   4.311   6.129 -0.6981 -0.3723 -0.1775
 1664SOL    HW2 6126   8.515   4.280   6.272  2.3132  2.2084 -0.2885
 1665SOL     OW 6127   2.584   7.805   3.791  0.0521 -0.6084 -0.5053
 1665SOL    HW1 6128   2.505   7.779   3.743 -0.2656  0.1387 -0.3941
 1665SOL    HW2 6129   2.651   7.744   3.760 -0.1213 -0.1109 -1.9618
 1666SOL     OW 6130   0.125   2.901   6.324 -0.7165 -0.0579 -1.0768
 1666SOL    HW1 6131   0.040   2.918   6.365 -1.3493  0.8484 -2.6509
 1666SOL    HW2 6132   0.170   2.985   6.330  0.7067 -0.9033  1.0439
 1667SOL     OW 6133   6.248   5.263   6.133  0.6574 -0.6534  0.6430
 1667SOL    HW1 6134   6.234   5.195   6.067  0.2595  0.8025 -0.8466
 1667SOL    HW2 6135   6.174   5.254   6.194 -0.1800 -0.6627 -0.3509
 1668SOL     OW 6136   3.061   3.426   7.686 -0.3162  0.6391  0.0948
 1668SOL    HW1 6137   2.976   3.384   7.696 -0.3693  0.8652  0.6590
 1668SOL    HW2 6138   3.093   3.436   7.776  0.4159  0.3306 -0.1324
 1669SOL     OW 6139   8.192   3.035   8.947  0.4358  0.0013 -0.3767
 1669SOL    HW1 6140   8.211   3.128   8.935 -0.3987  0.3878  1.0764
 1669SOL    HW2 6141   8.234   2.992   8.872  0.1414  1.6162 -1.5213
 1670SOL     OW 6142   8.244   4.350   6.872  0.3283 -0.0567 -0.0614
 1670SOL    HW1 6143   8.254   4.301   6.954  0.3077 -0.9893 -0.5994
 1670SOL    HW2 6144   8.287   4.434   6.888 -1.9432  0.8662  1.8130
 1671SOL     OW 6145   1.977   0.558   7.478 -0.0592  0.1300  0.2401
 1671SOL    HW1 6146   2.046   0.493   7.461  0.2691  0.4273  0.4331
 1671SOL    HW2 6147   1.982   0.618   7.404  0.2980  0.5024  0.5629
 1672SOL     OW 6148   0.706   8.139   2.746 -0.2237 -0.3041  0.6081
 1672SOL    HW1 6149   0.751   8.181   2.673  0.1488  1.1153  1.6217
 1672SOL    HW2 6150   0.776   8.101   2.799 -0.4320 -0.6083  0.6700
 1673SOL     OW 6151   6.821   5.594   2.167  0.3342  0.1024  0.1035
 1673SOL    HW1 6152   6.860   5.518   2.210  1.1271  0.4513  0.0329
 1673SOL    HW2 6153   6.785   5.560   2.085  2.2883  0.0690 -0.8117
 1674SOL     OW 6154   7.628   4.088   3.554  0.2644 -0.2423  0.1820
 1674SOL    HW1 6155   7.652   4.108   3.463  0.7212 -0.0367  0.3457
 1674SOL    HW2 6156   7.698   4.127   3.606  0.2540 -0.7652  0.5996
 1675SOL     OW 6157   3.469   2.646   7.717 -0.0201  0.3613  0.7314
 1675SOL    HW1 6158   3.424   2.598   7.787  1.7824 -0.9403  1.0691
 1675SOL    HW2 6159   3.454   2.594   7.638 -1.4486  1.4527  0.2355
 1676SOL     OW 6160   4.397   3.353   2.794 -0.4253 -0.3972 -0.3012
 1676SOL    HW1 6161   4.461   3.285   2.772 -0.5339 -1.0729  1.3092
 1676SOL    HW2 6162   4.358   3.378   2.711 -0.4823 -2.4093 -0.9223
 1677SOL     OW 6163   2.205   3.494   2.346  0.8036 -0.1065  0.8039
 1677SOL    HW1 6164   2.298   3.478   2.360  0.9939 -1.5882 -1.5733
 1677SOL    HW2 6165   2.165   3.408   2.350  0.1248  0.0270 -1.6380
 1678SOL     OW 6166   4.863   6.179   3.051 -0.7482  0.4813 -0.2247
 1678SOL    HW1 6167   4.931   6.179   2.983 -0.7091  0.6879 -0.1848
 1678SOL    HW2 6168   4.837   6.271   3.059 -1.3317  0.3481 -0.5407
 1679SOL     OW 6169   5.623   2.406   5.290 -0.3583  0.6025 -0.1044
 1679SOL    HW1 6170   5.681   2.331   5.307  1.0193  2.3611  4.4765
 1679SOL    HW2 6171   5.535   2.372   5.304 -0.1269 -0.9478 -2.0263
 1680SOL     OW 6172   4.669   3.422   7.937 -0.3728 -0.0619  0.0583
 1680SOL    HW1 6173   4.738   3.364   7.906 -0.3105 -0.6457  1.2350
 1680SOL    HW2 6174   4.589   3.370   7.929 -0.7335  0.6590 -1.4309
 1681SOL     OW 6175   6.882   2.794   2.072  0.1277  0.0755 -0.1514
 1681SOL    HW1 6176   6.841   2.863   2.124 -1.8870 -1.0510 -0.1146
 1681SOL    HW2 6177   6.857   2.713   2.117  0.8995 -0.7664 -1.1936
 1682SOL     OW 6178   5.707   1.223   4.777 -0.6748 -0.3630  0.2085
 1682SOL    HW1 6179   5.800   1.232   4.757 -0.7148 -0.1779  0.1011
 1682SOL    HW2 6180   5.674   1.313   4.778 -1.2479 -0.5209 -1.6014
 1683SOL     OW 6181   4.538   7.810   5.023 -0.6173  0.5702  0.3604
 1683SOL    HW1 6182   4.569   7.754   4.952 -0.0892  0.0716  0.9719
 1683SOL    HW2 6183   4.580   7.775   5.101  0.8047  2.6177  0.5943
 1684SOL     OW 6184   6.830   6.213   3.063 -0.9546 -0.2465 -0.5142
 1684SOL    HW1 6185   6.844   6.133   3.013 -0.4887  0.8005 -2.1254
 1684SOL    HW2 6186   6.917   6.241   3.090 -1.1430 -0.4284  0.3308
 1685SOL     OW 6187   0.851   7.110   1.582  0.4767  0.2020 -0.7867
 1685SOL    HW1 6188   0.880   7.129   1.492 -0.0314 -1.7859 -1.4150
 1685SOL    HW2 6189   0.899   7.031   1.607 -1.2376 -0.7378 -0.2797
 1686SOL     OW 6190   5.973   1.480   7.675 -0.0554  0.2481  0.4963
 1686SOL    HW1 6191   6.059   1.439   7.687 -0.2707 -0.5110 -0.4276
 1686SOL    HW2 6192   5.988   1.572   7.697  1.2555  0.3374 -0.6023
 1687SOL     OW 6193   4.425   5.862   3.672 -0.0704  0.4263  0.4825
 1687SOL    HW1 6194   4.354   5.926   3.662 -0.6502 -0.5019 -2.1202
 1687SOL    HW2 6195   4.504   5.911   3.649 -0.2717  0.6805  0.3261
 1688SOL     OW 6196   2.415   0.896   0.380  0.4441  0.3306 -0.3289
 1688SOL    HW1 6197   2.341   0.938   0.336 -0.2760  0.1643  0.6847
 1688SOL    HW2 6198   2.459   0.846   0.311 -0.3265  0.5125 -0.9674
 1689SOL     OW 6199   2.931   0.988   0.696 -0.5490  0.4260  0.4887
 1689SOL    HW1 6200   2.920   0.894   0.711 -1.1314  0.5390  0.7673
 1689SOL    HW2 6201   2.946   1.025   0.783  2.1112  0.3028  0.1909
 1690SOL     OW 6202   0.773   9.030   3.113  0.0069  0.4051 -0.4999
 1690SOL    HW1 6203   0.746   9.041   3.205  3.4573  1.9326  0.5056
 1690SOL    HW2 6204   0.725   9.098   3.066  0.1618  1.3910  0.7002
 1691SOL     OW 6205   3.127   5.542   6.595 -0.0352 -0.3815 -0.1188
 1691SOL    HW1 6206   3.180   5.609   6.551  0.2708 -0.2266  0.4659
 1691SOL    HW2 6207   3.055   5.591   6.635 -0.6187 -0.5921 -0.9005
 1692SOL     OW 6208   4.477   2.662   2.498 -0.3603  0.0666  0.0889
 1692SOL    HW1 6209   4.394   2.618   2.480 -0.3787  0.3797 -0.6375
 1692SOL    HW2 6210   4.511   2.685   2.412  1.4200 -1.7222  0.2410
 1693SOL     OW 6211   1.343   0.102   2.002  0.3316 -0.2084  0.1862
 1693SOL    HW1 6212   1.375   0.033   1.945 -1.1575 -1.0799  0.3458
 1693SOL    HW2 6213   1.315   0.172   1.943  1.1700 -0.0339 -0.0098
 1694SOL     OW 6214   5.323   8.580   5.190 -1.1636  0.4311  0.0065
 1694SOL    HW1 6215   5.406   8.621   5.165  1.2267 -1.9245  3.1761
 1694SOL    HW2 6216   5.305   8.519   5.118  1.2014 -0.6387  0.2142
 1695SOL     OW 6217   0.462   3.133   8.605  0.0050 -0.0434 -0.2285
 1695SOL    HW1 6218   0.409   3.135   8.685 -0.0061  0.1510 -0.2397
 1695SOL    HW2 6219   0.417   3.070   8.549 -0.9702  1.0481 -0.7435
 1696SOL     OW 6220   5.371   6.822   8.666 -0.2508 -0.2228  0.1393
 1696SOL    HW1 6221   5.398   6.735   8.696 -2.2105 -1.0780 -0.4152
 1696SOL    HW2 6222   5.279   6.812   8.643 -0.0751  1.5662 -1.6250
 1697SOL     OW 6223   4.318   1.230   1.726  0.1235  0.2184 -0.0772
 1697SOL    HW1 6224   4.306   1.275   1.642 -0.7561  1.1322  0.5076
 1697SOL    HW2 6225   4.410   1.202   1.725  0.2561  0.6255 -1.1414
 1698SOL     OW 6226   6.902   7.290   0.018  0.2816  0.3781 -0.2593
 1698SOL    HW1 6227   6.952   7.221  -0.026  0.9959 -0.2978  1.5356
 1698SOL    HW2 6228   6.967   7.356   0.042  0.1719  0.0177  1.1100
 1699SOL     OW 6229   5.774   5.964   6.921 -0.2638 -0.3043  0.1831
 1699SOL    HW1 6230   5.694   5.922   6.891 -0.1496  0.2998 -1.0392
 1699SOL    HW2 6231   5.779   6.045   6.871  1.6912 -0.8610 -0.6354
 1700SOL     OW 6232   0.603   4.822   1.440  0.4445  0.1254 -0.8843
 1700SOL    HW1 6233   0.570   4.855   1.356  1.5512  1.0368 -0.9946
 1700SOL    HW2 6234   0.524   4.806   1.492 -0.2122  2.1982 -1.1342
 1701SOL     OW 6235   3.035   3.229   4.125 -0.7582 -0.1240  0.6695
 1701SOL    HW1 6236   3.111   3.283   4.141 -0.6612  0.3591 -1.1659
 1701SOL    HW2 6237   3.004   3.203   4.212  1.2595 -0.0297  1.4561
 1702SOL     OW 6238   6.319   0.595   7.947  0.2018 -0.0157 -0.2779
 1702SOL    HW1 6239   6.342   0.523   7.888 -0.7618 -1.3877  0.9522
 1702SOL    HW2 6240   6.386   0.592   8.016  1.9670  2.2611 -1.7434
 1703SOL     OW 6241   8.995   5.692   6.223  0.4219 -0.2182  0.2489
 1703SOL    HW1 6242   9.071   5.728   6.269 -0.7683  1.8004  0.7317
 1703SOL    HW2 6243   8.921   5.742   6.256 -1.1482 -2.0777 -0.2637
 1704SOL     OW 6244   5.178   0.052   2.120 -0.1475  0.0652 -0.1862
 1704SOL    HW1 6245   5.200   0.059   2.213 -2.1958  1.3154  0.2703
 1704SOL    HW2 6246   5.166   0.143   2.092  0.3535 -0.3072 -1.6790
 1705SOL     OW 6247   5.727   5.445   3.845  0.0035 -0.3481 -0.4186
 1705SOL    HW1 6248   5.727   5.499   3.766 -0.9489 -1.1555 -1.0048
 1705SOL    HW2 6249   5.741   5.506   3.916 -1.1157  0.7019 -1.0594
 1706SOL     OW 6250   6.509   8.561   7.097 -0.0454 -1.0559  0.0786
 1706SOL    HW1 6251   6.414   8.567   7.093 -0.2807  1.8847  4.1943
 1706SOL    HW2 6252   6.539   8.651   7.086  1.8923 -1.3081  2.4750
 1707SOL     OW 6253   7.442   5.937   1.040  0.1502 -0.5728  0.3861
 1707SOL    HW1 6254   7.367   5.877   1.033  0.5129 -0.9012 -1.2797
 1707SOL    HW2 6255   7.444   5.963   1.132 -2.1101 -0.4118  0.4548
 1708SOL     OW 6256   2.457   5.250   6.752 -0.0258 -0.1589 -0.5593
 1708SOL    HW1 6257   2.466   5.303   6.673  1.9032  0.3199 -0.0754
 1708SOL    HW2 6258   2.363   5.235   6.760 -0.4338  1.3263 -1.9240
 1709SOL     OW 6259   6.183   6.517   4.719  0.0914  0.8167 -0.0319
 1709SOL    HW1 6260   6.092   6.544   4.734  0.3012  0.4741  2.2577
 1709SOL    HW2 6261   6.235   6.582   4.767  0.9269 -0.1642  0.4343
 1710SOL     OW 6262   7.492   0.275   8.906  0.6472 -0.4566  0.1058
 1710SOL    HW1 6263   7.571   0.329   8.910  1.0167 -0.9468 -0.5159
 1710SOL    HW2 6264   7.420   0.338   8.903  1.1323  0.0676 -2.1945
 1711SOL     OW 6265   6.118   4.729   3.859 -0.3519  0.2174  0.0492
 1711SOL    HW1 6266   6.101   4.756   3.769 -1.4715  1.9255  0.7238
 1711SOL    HW2 6267   6.213   4.718   3.863 -0.0504  2.0423 -0.8583
 1712SOL     OW 6268   1.110   3.136   3.807  0.1821 -0.3169 -0.4348
 1712SOL    HW1 6269   1.182   3.146   3.745  0.4208  0.6513 -0.0189
 1712SOL    HW2 6270   1.033   3.123   3.752  0.7296 -1.9093 -0.8760
 1713SOL     OW 6271   6.840   8.374   5.259 -0.2367  0.3164 -0.1625
 1713SOL    HW1 6272   6.918   8.427   5.276 -0.2450  0.5135 -0.7291
 1713SOL    HW2 6273   6.855   8.333   5.174 -0.5710  0.0265 -0.0870
 1714SOL     OW 6274   0.829   8.649   7.419  0.5516  0.0807 -0.2080
 1714SOL    HW1 6275   0.892   8.658   7.347  0.6147 -1.1959 -0.3199
 1714SOL    HW2 6276   0.785   8.566   7.402 -0.0478  0.1978  0.7537
 1715SOL     OW 6277   2.399   6.031   2.730  0.0452 -0.3916 -0.0459
 1715SOL    HW1 6278   2.333   5.967   2.704 -0.5844  0.1319  0.2237
 1715SOL    HW2 6279   2.349   6.102   2.771  0.7788  0.0010  0.1983
 1716SOL     OW 6280   4.191   6.587   2.970 -0.7109  0.4060  0.7221
 1716SOL    HW1 6281   4.185   6.502   2.926 -0.8079  0.7951 -0.0247
 1716SOL    HW2 6282   4.208   6.565   3.061 -0.2214 -0.4092  0.4452
 1717SOL     OW 6283   5.670   7.858   0.592 -0.0332  0.0461  0.2565
 1717SOL    HW1 6284   5.652   7.915   0.518 -2.1699  2.2480  2.2875
 1717SOL    HW2 6285   5.587   7.854   0.641  0.6524 -3.0807  1.4210
 1718SOL     OW 6286   5.042   7.538   0.509  0.6457 -0.5083  0.1021
 1718SOL    HW1 6287   5.083   7.600   0.448 -0.2483 -0.7520 -0.7744
 1718SOL    HW2 6288   5.115   7.485   0.542  1.4932  1.2463  1.1933
 1719SOL     OW 6289   2.875   7.135   4.868 -0.4134 -0.3274  0.2793
 1719SOL    HW1 6290   2.871   7.074   4.794 -0.7831 -1.7558  1.4392
 1719SOL    HW2 6291   2.784   7.163   4.881 -0.7498 -1.9480  1.6703
 1720SOL     OW 6292   5.195   3.575   2.052 -0.4303 -0.4535 -0.2450
 1720SOL    HW1 6293   5.191   3.624   1.969 -0.0774  1.1526  0.6415
 1720SOL    HW2 6294   5.277   3.526   2.046  0.6643  1.2414 -0.0661
 1721SOL     OW 6295   4.966   8.550   0.312  0.2784 -0.6816  0.2692
 1721SOL    HW1 6296   4.977   8.534   0.406  0.3857  2.5331  0.9133
 1721SOL    HW2 6297   4.872   8.555   0.300  0.2709  1.1358  0.7381
 1722SOL     OW 6298   4.526   0.974   6.382 -0.2784 -0.0062  0.0450
 1722SOL    HW1 6299   4.524   1.067   6.361  0.0856  0.2214  0.9470
 1722SOL    HW2 6300   4.441   0.956   6.422 -0.3052 -0.0322 -0.0239
 1723SOL     OW 6301   3.772   5.496   1.832 -0.2874  0.0615  0.1581
 1723SOL    HW1 6302   3.769   5.401   1.845  2.6039 -0.0668  0.6258
 1723SOL    HW2 6303   3.735   5.509   1.745 -1.1779 -1.4297  0.2830
 1724SOL     OW 6304   9.015   7.253   5.396  0.0409  0.5063 -0.7034
 1724SOL    HW1 6305   9.001   7.161   5.372 -1.7174  0.5047  0.1999
 1724SOL    HW2 6306   9.102   7.253   5.436  0.0153 -0.8000 -0.5873
 1725SOL     OW 6307   8.267   0.048   6.088  0.7036  0.2504  0.0504
 1725SOL    HW1 6308   8.194   0.111   6.090 -0.8601 -1.4044  2.9756
 1725SOL    HW2 6309   8.342   0.098   6.121  0.2093  1.3014 -0.3615
 1726SOL     OW 6310   0.741   6.181   0.337 -0.0295 -0.2271  0.5024
 1726SOL    HW1 6311   0.814   6.168   0.397 -0.6762 -0.2243  1.3033
 1726SOL    HW2 6312   0.706   6.267   0.360  0.1593  0.0877 -0.3612
 1727SOL     OW 6313   5.088   8.375   3.231 -0.3772  0.6219  0.0194
 1727SOL    HW1 6314   5.160   8.436   3.212  1.7687 -1.6984  0.1645
 1727SOL    HW2 6315   5.085   8.317   3.154 -1.8139  0.3724  0.2343
 1728SOL     OW 6316   7.045   4.894   3.488 -0.0581  0.1945  0.3043
 1728SOL    HW1 6317   7.061   4.820   3.547 -0.5902  0.4853  0.8299
 1728SOL    HW2 6318   7.129   4.940   3.484  0.0424  0.0483  0.6664
 1729SOL     OW 6319   4.887   3.065   1.340 -0.0732  0.2336 -0.1040
 1729SOL    HW1 6320   4.930   2.997   1.287  0.5195  0.5355 -0.0231
 1729SOL    HW2 6321   4.946   3.078   1.414  0.0758  1.2007 -0.3856
 1730SOL     OW 6322   8.548   1.850   7.303 -0.9093 -0.1915  0.6600
 1730SOL    HW1 6323   8.533   1.942   7.283 -0.7731 -0.2390  0.3323
 1730SOL    HW2 6324   8.547   1.806   7.217 -1.4620 -0.5656  0.8511
 1731SOL     OW 6325   2.009   8.910   1.880  0.1427 -0.2102 -0.1269
 1731SOL    HW1 6326   1.958   8.952   1.810  0.0029 -2.3248 -1.3765
 1731SOL    HW2 6327   2.023   8.821   1.849  0.9605 -0.9306  2.1302
 1732SOL     OW 6328   4.468   3.387   3.496  0.2351  0.4795  0.1536
 1732SOL    HW1 6329   4.513   3.397   3.412  0.4061  1.5296  0.3634
 1732SOL    HW2 6330   4.381   3.354   3.474  0.1897  0.9984 -0.4554
 1733SOL     OW 6331   7.089   7.917   7.162 -0.4124 -0.1942 -0.4369
 1733SOL    HW1 6332   7.137   7.866   7.227 -0.4263 -0.6389 -0.7748
 1733SOL    HW2 6333   6.997   7.898   7.180 -0.4738  0.5449  0.1163
 1734SOL     OW 6334   3.692   6.708   5.257  0.4020  0.5853  0.1130
 1734SOL    HW1 6335   3.782   6.740   5.268  0.0283  1.2944  1.1902
 1734SOL    HW2 6336   3.639   6.763   5.314 -1.0968  1.7723 -2.2619
 1735SOL     OW 6337   8.672   4.397   0.823 -0.1782  0.3951  0.2772
 1735SOL    HW1 6338   8.744   4.435   0.873 -1.7438 -1.7466  4.6180
 1735SOL    HW2 6339   8.715   4.346   0.754  2.6926 -1.8569  3.4149
 1736SOL     OW 6340   4.490   6.412   6.513  0.6937 -0.7277 -0.3004
 1736SOL    HW1 6341   4.456   6.387   6.427  0.3992  0.5976 -0.5891
 1736SOL    HW2 6342   4.542   6.491   6.496 -0.4571  0.3439  0.9171
 1737SOL     OW 6343   1.882   5.872   2.118  0.1138 -0.3025 -0.0388
 1737SOL    HW1 6344   1.968   5.846   2.151  1.2258  0.4417 -2.1047
 1737SOL    HW2 6345   1.885   5.968   2.118 -0.2345 -0.2749 -1.2035
 1738SOL     OW 6346   0.687   8.521   5.220  0.4991  0.1359 -0.6601
 1738SOL    HW1 6347   0.745   8.588   5.184 -0.0052  0.1878 -1.4141
 1738SOL    HW2 6348   0.652   8.560   5.300  0.6168  0.5662 -0.8121
 1739SOL     OW 6349   0.453   3.540   0.858  0.1550  0.2555 -0.3654
 1739SOL    HW1 6350   0.533   3.490   0.873  1.0480  0.8528 -2.6516
 1739SOL    HW2 6351   0.438   3.532   0.763 -3.3119 -0.9964  0.1293
 1740SOL     OW 6352   1.085   2.868   7.975  0.3851  0.0365 -0.2550
 1740SOL    HW1 6353   0.996   2.861   8.010  0.6748  1.5690  0.9016
 1740SOL    HW2 6354   1.127   2.785   7.998 -1.0967 -1.2698 -1.9890
 1741SOL     OW 6355   2.352   7.204   6.572  0.0439 -0.0637 -0.2932
 1741SOL    HW1 6356   2.269   7.208   6.620  0.2937  0.9977  0.0726
 1741SOL    HW2 6357   2.355   7.114   6.538  0.0842 -1.0308  2.0415
 1742SOL     OW 6358   6.879   1.565   6.728 -0.3111  0.2357 -0.2167
 1742SOL    HW1 6359   6.857   1.645   6.775 -1.2854 -1.4530  2.4092
 1742SOL    HW2 6360   6.975   1.561   6.731 -0.2512  1.2991 -0.4166
 1743SOL     OW 6361   4.561   4.048   2.764  0.7507  0.0453  0.4631
 1743SOL    HW1 6362   4.498   3.993   2.810 -0.2249  0.9394  0.2381
 1743SOL    HW2 6363   4.563   4.013   2.675  0.1267  0.3485  0.3191
 1744SOL     OW 6364   3.868   4.984   6.276  0.2432 -0.5121  0.3286
 1744SOL    HW1 6365   3.794   4.924   6.274  0.2804 -0.5807  0.9366
 1744SOL    HW2 6366   3.926   4.952   6.207  0.2448 -1.1535  0.6183
 1745SOL     OW 6367   8.386   8.301   6.628  0.1292  0.5803 -0.0015
 1745SOL    HW1 6368   8.341   8.243   6.689 -0.0521 -0.4858 -1.1261
 1745SOL    HW2 6369   8.476   8.306   6.661  0.1359 -0.3165  0.1169
 1746SOL     OW 6370   3.827   7.957   2.941 -0.0750  0.3784 -0.0857
 1746SOL    HW1 6371   3.911   7.921   2.968 -0.0428 -0.1236 -0.8229
 1746SOL    HW2 6372   3.791   7.892   2.881 -0.7211  0.8634 -0.2379
 1747SOL     OW 6373   2.917   0.575   5.045 -0.0939 -0.2841  0.9957
 1747SOL    HW1 6374   2.983   0.630   5.088 -0.5548  0.2783  1.0034
 1747SOL    HW2 6375   2.895   0.509   5.110  1.6069 -1.4675  0.4394
 1748SOL     OW 6376   4.861   7.007   1.081  0.0424  0.3876  0.3221
 1748SOL    HW1 6377   4.898   7.040   1.163 -0.3610  0.6089  0.4155
 1748SOL    HW2 6378   4.828   6.920   1.103  1.7996 -0.4449 -0.1046
 1749SOL     OW 6379   4.600   4.832   3.359 -0.8263  0.7450 -0.5472
 1749SOL    HW1 6380   4.505   4.821   3.356 -0.8029 -2.5114  3.1831
 1749SOL    HW2 6381   4.632   4.786   3.282 -2.2055 -0.2933 -0.5434
 1750SOL     OW 6382   6.003   0.409   2.613  0.6049 -0.5624 -0.0648
 1750SOL    HW1 6383   6.037   0.462   2.685 -1.6040  2.1499 -0.8724
 1750SOL    HW2 6384   6.069   0.417   2.544  1.2610 -0.6073  0.5444
 1751SOL     OW 6385   1.977   0.110   8.087 -0.1815 -0.0220  0.4019
 1751SOL    HW1 6386   1.927   0.059   8.151 -0.5103  0.7519  0.7775
 1751SOL    HW2 6387   1.981   0.054   8.009  1.3370 -1.5448  1.4965
 1752SOL     OW 6388   2.248   6.368   7.554  0.2784 -0.3141  0.0709
 1752SOL    HW1 6389   2.236   6.298   7.489  2.0670  0.8748 -1.6805
 1752SOL    HW2 6390   2.172   6.424   7.542  0.9963  0.3491 -1.6953
 1753SOL     OW 6391   1.834   1.039   2.054 -0.3432  0.6067 -0.3806
 1753SOL    HW1 6392   1.780   1.090   2.115 -0.1161 -1.0713  1.3305
 1753SOL    HW2 6393   1.774   0.973   2.018 -0.1246  0.6378 -0.8068
 1754SOL     OW 6394   3.406   2.611   1.724  0.1194 -0.3303  0.3864
 1754SOL    HW1 6395   3.376   2.528   1.686 -2.0134  1.1631 -1.4804
 1754SOL    HW2 6396   3.479   2.638   1.668 -0.3818 -0.1054 -0.1770
 1755SOL     OW 6397   6.813   4.846   5.166  1.1801  0.3685  0.4633
 1755SOL    HW1 6398   6.907   4.834   5.180  1.0448 -2.3509 -0.4768
 1755SOL    HW2 6399   6.800   4.827   5.073 -0.6589 -2.4421  1.1905
 1756SOL     OW 6400   4.814   5.112   0.149  0.0131 -0.0632  0.3911
 1756SOL    HW1 6401   4.816   5.144   0.059 -3.4869 -0.6250 -0.0171
 1756SOL    HW2 6402   4.821   5.017   0.140  0.2042 -0.0837  0.7559
 1757SOL     OW 6403   6.854   4.117   1.485  0.0744  0.3446  0.0114
 1757SOL    HW1 6404   6.901   4.065   1.550  1.0580  1.3338  0.1125
 1757SOL    HW2 6405   6.788   4.165   1.535 -0.5733 -0.4804 -0.0291
 1758SOL     OW 6406   6.844   6.518   2.693  0.0138  0.2282 -0.5429
 1758SOL    HW1 6407   6.904   6.516   2.767 -1.0594 -0.8597  0.3460
 1758SOL    HW2 6408   6.898   6.543   2.619  1.5547 -0.6619  0.2239
 1759SOL     OW 6409   4.132   4.735   1.389 -0.1058 -0.1261  0.3462
 1759SOL    HW1 6410   4.124   4.830   1.376 -0.8817 -0.0440  1.3106
 1759SOL    HW2 6411   4.202   4.726   1.454 -0.2892 -0.1877  0.5369
 1760SOL     OW 6412   5.155   7.095   7.905 -0.1628 -0.4000  0.0587
 1760SOL    HW1 6413   5.139   7.012   7.860 -0.2482  0.1401 -0.9371
 1760SOL    HW2 6414   5.240   7.085   7.946 -0.6791 -1.3958  0.9312
 1761SOL     OW 6415   8.733   5.877   0.742 -0.5211  0.4669 -0.0673
 1761SOL    HW1 6416   8.726   5.864   0.836 -0.1713 -0.1328 -0.1165
 1761SOL    HW2 6417   8.708   5.968   0.728  1.0001  1.0412  0.7943
 1762SOL     OW 6418   2.357   8.746   7.519  0.5049 -0.4861  0.5855
 1762SOL    HW1 6419   2.423   8.813   7.532  1.0532 -0.9348  0.1893
 1762SOL    HW2 6420   2.285   8.771   7.577  0.7908  0.3088  0.6094
 1763SOL     OW 6421   3.640   4.451   7.185  0.0179  0.2430  0.3611
 1763SOL    HW1 6422   3.632   4.359   7.160 -1.2935  0.5344 -0.3722
 1763SOL    HW2 6423   3.586   4.460   7.263 -0.0958  0.4563  0.2583
 1764SOL     OW 6424   0.635   8.188   7.393  0.1128 -0.3378  0.5722
 1764SOL    HW1 6425   0.695   8.135   7.340  0.2451 -1.3546  1.7029
 1764SOL    HW2 6426   0.645   8.276   7.358  1.5383 -0.6522  0.0921
 1765SOL     OW 6427   3.481   2.557   6.664 -0.4902  0.4686 -0.3203
 1765SOL    HW1 6428   3.465   2.553   6.759 -0.1589 -0.2541 -0.2903
 1765SOL    HW2 6429   3.566   2.599   6.656  0.8543 -2.0229 -0.1336
 1766SOL     OW 6430   0.095   5.435   7.809 -0.4515 -0.8557  0.0968
 1766SOL    HW1 6431   0.028   5.410   7.873 -0.5015 -3.0228 -0.7151
 1766SOL    HW2 6432   0.054   5.418   7.724  0.1722  0.4774 -0.4997
 1767SOL     OW 6433   7.325   0.006   5.108 -0.1454  0.0484  0.0235
 1767SOL    HW1 6434   7.256   0.073   5.113 -1.4231 -1.2711  2.7765
 1767SOL    HW2 6435   7.404   0.051   5.137 -0.0772  1.2638 -1.8913
 1768SOL     OW 6436   7.977   7.875   7.126 -0.4750  0.5177 -0.4423
 1768SOL    HW1 6437   8.010   7.904   7.211  1.3791 -0.1058 -0.9146
 1768SOL    HW2 6438   8.055   7.852   7.076 -1.6394 -1.8610 -1.3155
 1769SOL     OW 6439   4.670   2.292   2.211  0.1405  0.3085  0.1976
 1769SOL    HW1 6440   4.675   2.370   2.155 -1.4254  2.0457  2.3088
 1769SOL    HW2 6441   4.659   2.220   2.150 -1.3147  2.0654 -1.7734
 1770SOL     OW 6442   0.391   2.769   8.334  0.0913  0.6011 -0.0126
 1770SOL    HW1 6443   0.314   2.720   8.303  0.8326  0.0799 -1.0823
 1770SOL    HW2 6444   0.355   2.851   8.368 -0.8816  0.7105 -1.2421
 1771SOL     OW 6445   3.509   2.020   0.895  0.5371 -0.2103 -0.4813
 1771SOL    HW1 6446   3.560   2.026   0.814 -0.6011 -0.4949 -1.2504
 1771SOL    HW2 6447   3.554   2.079   0.956  1.3367  0.1256 -1.3644
 1772SOL     OW 6448   2.363   4.685   0.096 -0.1420  0.3551 -0.0420
 1772SOL    HW1 6449   2.404   4.604   0.126 -0.4010  0.9999  2.2363
 1772SOL    HW2 6450   2.437   4.741   0.069  0.0598 -0.4213 -1.1761
 1773SOL     OW 6451   3.577   6.891   5.405 -0.7148 -0.1906 -0.0331
 1773SOL    HW1 6452   3.649   6.942   5.443 -0.7787 -0.1062 -0.0248
 1773SOL    HW2 6453   3.510   6.956   5.384 -0.8781 -0.2932  0.1635
 1774SOL     OW 6454   3.494   8.198   2.053 -0.0721 -0.3322 -0.1877
 1774SOL    HW1 6455   3.460   8.111   2.073  0.4860 -0.5131  0.0017
 1774SOL    HW2 6456   3.416   8.252   2.040 -0.4355 -1.2049 -1.8786
 1775SOL     OW 6457   2.372   1.531   8.973  0.2397 -0.6704 -0.1806
 1775SOL    HW1 6458   2.349   1.615   8.934  1.6618  0.1962  0.7369
 1775SOL    HW2 6459   2.456   1.547   9.016 -1.3463 -1.3894  3.5703
 1776SOL     OW 6460   1.561   7.978   2.772  0.2610  0.2735 -0.3074
 1776SOL    HW1 6461   1.522   7.920   2.838  0.3479  0.8156  0.2368
 1776SOL    HW2 6462   1.578   7.922   2.697 -0.4500 -0.2227 -0.1056
 1777SOL     OW 6463   2.617   7.732   4.061  0.3104  0.6765 -0.1364
 1777SOL    HW1 6464   2.557   7.665   4.095  1.3762 -0.1594  0.1500
 1777SOL    HW2 6465   2.596   7.737   3.968  0.7714 -0.6760 -0.3356
 1778SOL     OW 6466   8.348   8.400   3.635  0.0058  0.1623  0.2484
 1778SOL    HW1 6467   8.269   8.454   3.640  0.7098  1.2019  0.3531
 1778SOL    HW2 6468   8.327   8.332   3.571 -0.4710  1.2947 -0.8204
 1779SOL     OW 6469   2.390   0.283   7.383  0.3961  0.0510 -0.3312
 1779SOL    HW1 6470   2.481   0.272   7.411  0.6109  1.3980 -0.4112
 1779SOL    HW2 6471   2.390   0.254   7.291  0.6100 -0.5016 -0.1579
 1780SOL     OW 6472   6.171   0.981   2.092 -0.6626 -0.2037  0.5646
 1780SOL    HW1 6473   6.206   1.031   2.165  0.5961 -0.5446  0.2052
 1780SOL    HW2 6474   6.157   0.893   2.127  1.5903 -0.8450 -0.0206
 1781SOL     OW 6475   7.954   0.371   4.693  0.3159  0.0392  0.3867
 1781SOL    HW1 6476   7.879   0.312   4.697  0.2205  0.0980 -0.3147
 1781SOL    HW2 6477   7.957   0.413   4.778 -1.3305  1.1088 -0.0523
 1782SOL     OW 6478   3.670   0.938   2.123  0.3623  0.7179  0.2188
 1782SOL    HW1 6479   3.588   0.960   2.081 -0.8375  0.0087  2.0629
 1782SOL    HW2 6480   3.737   0.964   2.060 -1.3030 -1.0700 -2.4839
 1783SOL     OW 6481   3.991   7.814   1.852  0.2323 -0.8496 -0.3234
 1783SOL    HW1 6482   4.036   7.776   1.777  2.5524 -0.0607  0.5809
 1783SOL    HW2 6483   3.993   7.745   1.919 -2.6775 -1.9110 -1.1695
 1784SOL     OW 6484   3.252   4.305   8.323  0.2083 -0.1475  0.2561
 1784SOL    HW1 6485   3.306   4.351   8.387  0.1069  1.0857 -0.5200
 1784SOL    HW2 6486   3.312   4.244   8.280  0.5133 -0.2286  0.7957
 1785SOL     OW 6487   1.970   4.576   8.475  0.6017  0.2744 -0.2093
 1785SOL    HW1 6488   2.029   4.584   8.550 -0.4544 -0.9548  0.7769
 1785SOL    HW2 6489   1.882   4.578   8.512  0.0535 -2.4803 -1.1310
 1786SOL     OW 6490   2.044   6.397   5.207 -0.1907  0.3060  0.0194
 1786SOL    HW1 6491   2.055   6.306   5.236  0.1950 -0.0656 -1.2143
 1786SOL    HW2 6492   1.955   6.400   5.172  0.0970  0.1410 -0.7607
 1787SOL     OW 6493   8.550   6.361   2.105 -0.0129 -0.1939 -0.3318
 1787SOL    HW1 6494   8.510   6.379   2.191 -0.3960  1.1000 -0.7640
 1787SOL    HW2 6495   8.636   6.403   2.109 -0.8247  1.6682 -1.2649
 1788SOL     OW 6496   2.270   5.171   8.218 -0.0562  0.1801  0.3735
 1788SOL    HW1 6497   2.295   5.166   8.126  1.0822  1.0992  0.6163
 1788SOL    HW2 6498   2.286   5.082   8.252 -0.3803 -0.1309 -0.2821
 1789SOL     OW 6499   6.505   3.519   7.808  0.1537 -0.3392  0.3260
 1789SOL    HW1 6500   6.571   3.461   7.769 -0.5796  0.4549 -2.2972
 1789SOL    HW2 6501   6.535   3.607   7.786 -2.8958  0.0385 -3.2565
 1790SOL     OW 6502   7.232   6.476   3.772 -0.7710 -0.1237 -0.0689
 1790SOL    HW1 6503   7.263   6.387   3.789  0.5540  0.0816 -1.1470
 1790SOL    HW2 6504   7.160   6.490   3.833  0.5156 -1.1040  1.7415
 1791SOL     OW 6505   5.382   3.031   6.912 -0.2841  0.5400  0.5686
 1791SOL    HW1 6506   5.400   2.944   6.877 -1.7757 -0.0300  1.0993
 1791SOL    HW2 6507   5.317   3.068   6.852  1.4358  1.9521 -0.5280
 1792SOL     OW 6508   6.265   5.776   7.731  0.3062 -0.0055  0.3125
 1792SOL    HW1 6509   6.295   5.776   7.821  0.4124  0.1220  0.2771
 1792SOL    HW2 6510   6.187   5.721   7.732  0.5116 -0.2987  0.4121
 1793SOL     OW 6511   3.969   5.147   3.901 -0.3579  0.6673 -0.6234
 1793SOL    HW1 6512   3.977   5.164   3.807 -2.0079 -0.9143 -1.1006
 1793SOL    HW2 6513   3.881   5.111   3.912  0.5073 -1.1442  1.1962
 1794SOL     OW 6514   3.028   4.535   4.170  0.0916  0.0905  0.4359
 1794SOL    HW1 6515   3.002   4.453   4.212 -2.2305  0.3962 -0.2650
 1794SOL    HW2 6516   3.072   4.508   4.090  0.1662 -0.4706  0.6617
 1795SOL     OW 6517   8.679   2.032   5.377 -0.0077 -0.0683  0.0110
 1795SOL    HW1 6518   8.621   1.960   5.354 -0.8225  0.4377  0.4110
 1795SOL    HW2 6519   8.628   2.111   5.357  0.2901  0.3848  0.9680
 1796SOL     OW 6520   6.719   5.916   3.189  0.3960 -0.2021 -0.6144
 1796SOL    HW1 6521   6.800   5.952   3.223  0.7755 -0.7806 -0.8800
 1796SOL    HW2 6522   6.743   5.879   3.104 -0.1461 -0.3643 -0.7026
 1797SOL     OW 6523   3.475   8.825   3.194  0.3399  0.3654 -0.2403
 1797SOL    HW1 6524   3.401   8.797   3.248  0.0301 -0.1567 -0.9317
 1797SOL    HW2 6525   3.460   8.918   3.180  1.5478  1.0625  2.3509
 1798SOL     OW 6526   4.194   5.409   8.816 -0.4048  0.1624 -0.0094
 1798SOL    HW1 6527   4.224   5.333   8.766 -0.0153 -0.2417  0.8195
 1798SOL    HW2 6528   4.117   5.439   8.769  0.2271  0.0968 -1.1338
 1799SOL     OW 6529   2.334   4.110   4.217  0.1083 -0.2214 -0.0495
 1799SOL    HW1 6530   2.339   4.084   4.309  0.3103 -0.2767 -0.0757
 1799SOL    HW2 6531   2.264   4.056   4.181 -1.0591  0.8893  0.4349
 1800SOL     OW 6532   7.692   0.429   3.430 -0.4225 -0.2145 -0.3899
 1800SOL    HW1 6533   7.642   0.424   3.511 -0.3736 -2.2359 -0.4484
 1800SOL    HW2 6534   7.628   0.415   3.361 -0.0822 -0.9894 -0.5580
 1801SOL     OW 6535   1.742   3.562   3.094  0.1640 -0.5705  0.2033
 1801SOL    HW1 6536   1.648   3.549   3.107 -0.3379  0.0020 -2.4502
 1801SOL    HW2 6537   1.751   3.654   3.073  1.2222 -0.8041 -0.4145
 1802SOL     OW 6538   8.997   8.522   4.778 -0.4253  0.1398 -0.5575
 1802SOL    HW1 6539   9.021   8.472   4.700  0.5842  0.4229 -0.4442
 1802SOL    HW2 6540   9.077   8.526   4.830 -0.8660  0.6653  0.1044
 1803SOL     OW 6541   4.825   2.511   0.380  0.2123 -0.2062  0.1691
 1803SOL    HW1 6542   4.819   2.606   0.383  0.1931 -0.2162  0.6046
 1803SOL    HW2 6543   4.912   2.493   0.344  0.1047 -0.0260 -0.1793
 1804SOL     OW 6544   0.630   8.391   1.038 -0.0937  0.0516  0.1463
 1804SOL    HW1 6545   0.619   8.363   1.129 -0.0450  0.4865  0.2863
 1804SOL    HW2 6546   0.680   8.472   1.043  2.2644 -1.2723 -0.4192
 1805SOL     OW 6547   7.077   0.871   0.928  0.7391 -0.7698  0.1808
 1805SOL    HW1 6548   7.156   0.818   0.937  0.0823 -1.5320  1.7479
 1805SOL    HW2 6549   7.020   0.819   0.871  1.2418 -0.3296 -0.7528
 1806SOL     OW 6550   2.160   1.383   5.626  0.0704 -0.2883  0.6378
 1806SOL    HW1 6551   2.137   1.429   5.707  0.0476  0.3386  0.2891
 1806SOL    HW2 6552   2.193   1.452   5.568  2.1290 -1.0353  0.8388
 1807SOL     OW 6553   4.472   3.531   6.878  0.2275 -0.4290 -0.2459
 1807SOL    HW1 6554   4.396   3.518   6.934  0.0531  0.1410 -0.3352
 1807SOL    HW2 6555   4.456   3.475   6.802 -0.7203  0.5960 -0.8403
 1808SOL     OW 6556   0.235   4.228   8.168  0.7899  0.6231  0.0996
 1808SOL    HW1 6557   0.305   4.293   8.173  1.5274 -0.1899  0.8414
 1808SOL    HW2 6558   0.213   4.224   8.075  2.0801  0.5602 -0.2307
 1809SOL     OW 6559   6.858   0.014   6.968  0.2167 -0.1404 -0.2868
 1809SOL    HW1 6560   6.942  -0.027   6.947  0.5665  0.5728 -0.3110
 1809SOL    HW2 6561   6.834   0.062   6.889  0.6426  1.0612  0.2747
 1810SOL     OW 6562   1.901   1.621   3.190 -0.1801 -0.6223 -0.1034
 1810SOL    HW1 6563   1.922   1.710   3.160  1.4119 -0.3927  1.5650
 1810SOL    HW2 6564   1.915   1.623   3.284 -1.1719 -2.3898  0.1280
 1811SOL     OW 6565   6.725   3.577   5.952 -0.0317 -0.3695 -0.0657
 1811SOL    HW1 6566   6.711   3.551   6.043 -0.9545 -1.1489 -0.4181
 1811SOL    HW2 6567   6.808   3.536   5.929  1.1053  1.2638  0.9306
 1812SOL     OW 6568   2.545   8.490   1.251  0.4035  0.4673 -0.3100
 1812SOL    HW1 6569   2.555   8.397   1.228  0.3821  0.5293 -0.5731
 1812SOL    HW2 6570   2.610   8.535   1.196  0.6864  0.5667  0.1040
 1813SOL     OW 6571   4.660   1.117   3.228 -0.1122  0.5224  0.4237
 1813SOL    HW1 6572   4.581   1.064   3.233  1.1223 -1.6257 -0.9405
 1813SOL    HW2 6573   4.707   1.081   3.152  2.6758  0.9448  1.8371
 1814SOL     OW 6574   7.560   5.097   6.197 -0.2261  0.8311 -0.2663
 1814SOL    HW1 6575   7.637   5.095   6.140 -0.5476 -0.9406 -0.6951
 1814SOL    HW2 6576   7.594   5.078   6.284 -0.0809  0.7727 -0.3351
 1815SOL     OW 6577   2.075   5.127   3.125 -0.2856  0.3502  0.0248
 1815SOL    HW1 6578   2.042   5.044   3.093 -0.6421  1.0333 -1.4386
 1815SOL    HW2 6579   2.048   5.130   3.217 -0.4456 -1.0307  0.0414
 1816SOL     OW 6580   2.196   6.672   2.442 -0.0599 -0.8730 -0.4032
 1816SOL    HW1 6581   2.105   6.687   2.417 -0.4463 -0.5560  1.0695
 1816SOL    HW2 6582   2.215   6.583   2.411 -1.2716 -1.3994  0.2894
 1817SOL     OW 6583   5.181   5.360   7.427 -0.1323  0.3355 -0.0182
 1817SOL    HW1 6584   5.220   5.274   7.439  1.1722  1.1146  1.7251
 1817SOL    HW2 6585   5.255   5.418   7.405 -1.0248  0.9774 -1.4802
 1818SOL     OW 6586   2.387   4.451   2.237  0.0644 -0.4803 -0.5536
 1818SOL    HW1 6587   2.353   4.489   2.318 -2.8198 -0.3668 -1.7048
 1818SOL    HW2 6588   2.405   4.359   2.259 -0.8239 -0.4929  0.1752
 1819SOL     OW 6589   5.965   7.184   8.109  0.0693  0.0996 -0.1499
 1819SOL    HW1 6590   5.915   7.104   8.093 -1.9530  1.5279 -1.3293
 1819SOL    HW2 6591   5.955   7.235   8.029  2.6148  0.9246 -0.0238
 1820SOL     OW 6592   2.265   3.219   7.608  0.2681  0.3284  0.1655
 1820SOL    HW1 6593   2.274   3.307   7.571  0.2833 -0.1909 -1.1222
 1820SOL    HW2 6594   2.227   3.167   7.537  0.3841 -0.7338  0.8592
 1821SOL     OW 6595   7.928   8.068   3.238 -0.8037  0.2367  0.7341
 1821SOL    HW1 6596   7.882   8.147   3.267 -0.4946 -0.4800  3.4341
 1821SOL    HW2 6597   7.861   8.017   3.192 -0.9335  2.1449 -1.3155
 1822SOL     OW 6598   7.221   6.971   1.172 -0.1942  0.2660  0.1417
 1822SOL    HW1 6599   7.145   6.955   1.228  0.5068 -0.7095  0.8590
 1822SOL    HW2 6600   7.185   6.977   1.084 -0.9260 -2.2291  0.1976
 1823SOL     OW 6601   7.577   3.533   0.820 -0.1488 -0.7982 -0.2322
 1823SOL    HW1 6602   7.494   3.568   0.785 -0.4965 -2.2630 -0.9189
 1823SOL    HW2 6603   7.619   3.609   0.860 -0.4656  0.6321 -2.4432
 1824SOL     OW 6604   3.117   3.831   0.733  0.0823  0.2591 -0.8226
 1824SOL    HW1 6605   3.099   3.737   0.740 -0.5432  0.4657  0.5590
 1824SOL    HW2 6606   3.076   3.870   0.810  2.3825  1.3789 -0.0545
 1825SOL     OW 6607   1.079   6.591   4.525 -0.3436  0.6252  0.3980
 1825SOL    HW1 6608   1.125   6.662   4.479 -0.4090  0.2320 -0.2962
 1825SOL    HW2 6609   1.023   6.636   4.588  0.0068  1.1674  0.3378
 1826SOL     OW 6610   4.765   2.571   5.790 -0.1969 -0.5196  0.3993
 1826SOL    HW1 6611   4.827   2.608   5.728 -1.8759 -0.1550 -1.1202
 1826SOL    HW2 6612   4.757   2.638   5.859  1.4439 -0.8025  0.9179
 1827SOL     OW 6613   6.628   7.109   2.137  0.1921 -0.2455  0.1421
 1827SOL    HW1 6614   6.604   7.150   2.221  0.6050 -2.7023  1.5414
 1827SOL    HW2 6615   6.553   7.054   2.115  0.5367 -0.4421 -0.5490
 1828SOL     OW 6616   2.225   3.989   4.792  0.6524 -0.5661  0.2014
 1828SOL    HW1 6617   2.305   4.031   4.826  0.5725 -1.4703  1.5916
 1828SOL    HW2 6618   2.155   4.050   4.814  0.8099 -0.3307  0.0591
 1829SOL     OW 6619   3.038   8.792   5.905 -0.1407 -0.1017 -0.2224
 1829SOL    HW1 6620   3.036   8.885   5.929 -1.4225 -0.8642  3.3491
 1829SOL    HW2 6621   3.126   8.763   5.928 -0.4766 -0.2021  1.0458
 1830SOL     OW 6622   6.531   6.636   3.564 -0.4926  0.6772 -0.1036
 1830SOL    HW1 6623   6.471   6.632   3.639 -1.1828  0.9905 -0.6190
 1830SOL    HW2 6624   6.615   6.660   3.602 -0.2928 -1.3245  0.8419
 1831SOL     OW 6625   0.141   1.102   7.371 -0.4541  0.2413 -0.7079
 1831SOL    HW1 6626   0.216   1.070   7.321  0.3564 -0.6263  0.9990
 1831SOL    HW2 6627   0.169   1.187   7.405  0.2223 -0.5866  0.8691
 1832SOL     OW 6628   3.288   4.409   8.874  0.1364  0.0926 -0.2285
 1832SOL    HW1 6629   3.238   4.442   8.949 -0.0604  0.3259 -0.4617
 1832SOL    HW2 6630   3.364   4.468   8.869 -0.7550  1.1949 -1.2960
 1833SOL     OW 6631   5.917   3.767   8.282 -0.1544  0.1376  0.1051
 1833SOL    HW1 6632   5.955   3.719   8.208  0.7256  0.6700  0.2008
 1833SOL    HW2 6633   5.876   3.699   8.336  0.7353 -0.4733  0.0359
 1834SOL     OW 6634   3.894   8.884   2.255 -0.7917  0.4337  0.4498
 1834SOL    HW1 6635   3.900   8.905   2.349  0.1508  1.2462  0.2301
 1834SOL    HW2 6636   3.972   8.830   2.239 -0.4693  1.0243 -0.0285
 1835SOL     OW 6637   5.801   0.223   5.488 -0.2084  0.5999 -0.1198
 1835SOL    HW1 6638   5.897   0.232   5.491  0.3805 -3.5891 -0.7826
 1835SOL    HW2 6639   5.780   0.168   5.563 -1.4643 -1.8129 -2.0990
 1836SOL     OW 6640   6.494   1.865   7.283 -0.4668  0.4678 -0.0418
 1836SOL    HW1 6641   6.588   1.882   7.277 -0.4864  0.5701 -0.0521
 1836SOL    HW2 6642   6.461   1.928   7.347 -0.4652  0.1799  0.2505
 1837SOL     OW 6643   6.126   8.228   4.752  0.4018 -0.4651 -0.3115
 1837SOL    HW1 6644   6.133   8.255   4.661  0.2191  1.1740  0.1134
 1837SOL    HW2 6645   6.209   8.256   4.792  0.1119 -0.3229  0.2042
 1838SOL     OW 6646   0.129   3.165   7.614 -0.2298 -0.1599 -0.4357
 1838SOL    HW1 6647   0.139   3.073   7.639 -2.9240 -0.6833 -1.0171
 1838SOL    HW2 6648   0.035   3.177   7.604  0.1593  2.3099 -1.8164
 1839SOL     OW 6649   4.107   3.673   2.488 -0.4297  0.1590 -0.0083
 1839SOL    HW1 6650   4.035   3.695   2.429  0.0353 -0.3104 -0.7598
 1839SOL    HW2 6651   4.184   3.665   2.432  0.1316  0.2300  0.7267
 1840SOL     OW 6652   8.826   3.853   2.953  0.0728 -0.0838  0.6492
 1840SOL    HW1 6653   8.880   3.854   2.874 -0.9875 -3.1351 -0.2528
 1840SOL    HW2 6654   8.749   3.906   2.930 -0.1744 -0.8529 -0.3421
 1841SOL     OW 6655   4.283   2.460   3.536  0.3182 -0.0003 -0.0513
 1841SOL    HW1 6656   4.268   2.370   3.508 -0.6993  0.3880 -0.8121
 1841SOL    HW2 6657   4.197   2.501   3.531  0.6998  0.9203  0.6532
 1842SOL     OW 6658   4.768   7.248   8.713  0.6090  0.1542 -0.4090
 1842SOL    HW1 6659   4.795   7.170   8.664  0.7487  0.2833 -0.5395
 1842SOL    HW2 6660   4.802   7.234   8.801  0.0832 -0.2253 -0.2605
 1843SOL     OW 6661   7.857   7.352   7.224  0.0178 -0.2126 -0.3059
 1843SOL    HW1 6662   7.947   7.324   7.241 -0.8218 -1.9871  1.6246
 1843SOL    HW2 6663   7.858   7.446   7.240  1.7078 -0.0154 -1.2926
 1844SOL     OW 6664   0.473   9.079   0.366 -0.2489  0.0780 -0.1048
 1844SOL    HW1 6665   0.428   9.144   0.419  0.0864  0.5792 -0.4178
 1844SOL    HW2 6666   0.524   9.131   0.303  1.8063 -0.3968  1.0506
 1845SOL     OW 6667   2.345   1.397   1.338 -0.0781  0.0100  0.3549
 1845SOL    HW1 6668   2.437   1.419   1.321 -0.2453  0.8347  0.4383
 1845SOL    HW2 6669   2.319   1.343   1.263  0.2753  0.3767 -0.0420
 1846SOL     OW 6670   3.501   3.843   6.375 -0.0440 -0.5320 -0.5211
 1846SOL    HW1 6671   3.569   3.871   6.314  1.9737 -0.3277  1.6741
 1846SOL    HW2 6672   3.530   3.756   6.405 -0.8731 -0.5459  0.2797
 1847SOL     OW 6673   5.115   6.417   2.812  0.0061 -0.3277 -0.0795
 1847SOL    HW1 6674   5.088   6.326   2.807  0.7257 -0.5762  0.3145
 1847SOL    HW2 6675   5.069   6.451   2.889 -0.5961 -0.2356 -0.4770
 1848SOL     OW 6676   5.126   2.027   3.948  0.0402 -0.0724  0.3920
 1848SOL    HW1 6677   5.053   2.006   3.889 -0.2429 -0.3139  0.8138
 1848SOL    HW2 6678   5.202   2.035   3.891 -0.1341 -0.7770  0.0449
 1849SOL     OW 6679   1.694   1.336   7.795 -0.2890  0.3169  0.2445
 1849SOL    HW1 6680   1.680   1.379   7.710  3.0225  0.7910 -0.2133
 1849SOL    HW2 6681   1.774   1.376   7.829 -0.0497 -1.7440  2.3619
 1850SOL     OW 6682   0.467   2.611   8.627  0.3877 -0.1913  0.0319
 1850SOL    HW1 6683   0.414   2.690   8.624 -0.7431 -0.9516 -1.0578
 1850SOL    HW2 6684   0.424   2.551   8.566  0.2749 -2.2440  2.0184
 1851SOL     OW 6685   3.335   6.896   2.415 -0.2932 -0.2381 -0.2871
 1851SOL    HW1 6686   3.303   6.945   2.339  1.5710  0.7653 -0.4860
 1851SOL    HW2 6687   3.405   6.841   2.380 -0.3930 -0.8531  0.4594
 1852SOL     OW 6688   1.437   8.366   8.937 -0.1458  0.1569  0.2275
 1852SOL    HW1 6689   1.521   8.380   8.980  0.5464 -1.1552 -0.6005
 1852SOL    HW2 6690   1.404   8.454   8.918  1.2002  0.6980  0.2772
 1853SOL     OW 6691   8.396   1.776   8.256  0.2005  0.4908  0.4519
 1853SOL    HW1 6692   8.478   1.746   8.293  0.8762  1.0263 -0.5655
 1853SOL    HW2 6693   8.384   1.724   8.177 -0.5514  0.2821  0.6877
 1854SOL     OW 6694   7.282   4.895   7.037  0.0504  0.2487  0.2712
 1854SOL    HW1 6695   7.234   4.954   7.094 -1.7408  1.3324 -2.1777
 1854SOL    HW2 6696   7.327   4.835   7.097 -2.1209  0.9173  2.7703
 1855SOL     OW 6697   7.526   7.707   6.623  0.3521  0.8157 -0.1499
 1855SOL    HW1 6698   7.538   7.726   6.530 -0.0247  0.6069 -0.2434
 1855SOL    HW2 6699   7.500   7.790   6.661 -0.3717  0.7127 -0.3939
 1856SOL     OW 6700   3.708   3.983   6.241  0.4659 -0.1278  0.5849
 1856SOL    HW1 6701   3.759   4.001   6.162  0.1606  2.4070  0.8851
 1856SOL    HW2 6702   3.769   3.997   6.313 -0.0024  0.5562  0.8654
 1857SOL     OW 6703   1.328   8.667   8.595  0.1397  0.2742 -0.5065
 1857SOL    HW1 6704   1.331   8.575   8.569  1.4319 -1.0282  3.4699
 1857SOL    HW2 6705   1.416   8.700   8.578  0.1057  0.3476 -0.5443
 1858SOL     OW 6706   6.858   0.750   9.018 -0.3203 -0.0897  0.5200
 1858SOL    HW1 6707   6.885   0.734   9.108 -0.0640 -1.6945  0.1861
 1858SOL    HW2 6708   6.936   0.727   8.966  0.0543  2.2206 -0.0644
 1859SOL     OW 6709   2.987   2.604   2.848  0.2184 -0.3657 -0.4153
 1859SOL    HW1 6710   2.896   2.628   2.831 -0.8351 -3.6495 -0.1680
 1859SOL    HW2 6711   2.984   2.509   2.865  3.7043 -0.6155 -0.4574
 1860SOL     OW 6712   3.259   1.595   3.220 -0.0900 -0.2301 -0.3087
 1860SOL    HW1 6713   3.244   1.654   3.293 -0.3051 -0.3384 -0.2652
 1860SOL    HW2 6714   3.249   1.650   3.142 -1.4684 -0.4480 -0.3128
 1861SOL     OW 6715   4.393   5.179   2.831 -0.3470  0.0885 -0.3627
 1861SOL    HW1 6716   4.440   5.260   2.812 -2.5993  1.3989 -0.7055
 1861SOL    HW2 6717   4.408   5.123   2.755  1.3344  0.0865 -0.0644
 1862SOL     OW 6718   0.337   9.029   4.631 -0.4042 -0.2217  0.5274
 1862SOL    HW1 6719   0.372   9.046   4.544 -1.3863  0.5006  0.2585
 1862SOL    HW2 6720   0.281   9.104   4.650 -1.7208 -1.2679  0.9651
 1863SOL     OW 6721   2.930   8.745   9.032 -0.1866  0.1686  0.1834
 1863SOL    HW1 6722   3.024   8.747   9.016 -0.1121  1.4651  0.6649
 1863SOL    HW2 6723   2.922   8.751   9.127 -0.7711  2.1569  0.0387
 1864SOL     OW 6724   6.586   9.016   2.360  0.3623  0.1658  0.4391
 1864SOL    HW1 6725   6.647   9.048   2.294  0.3756 -2.4391 -0.9400
 1864SOL    HW2 6726   6.626   9.040   2.444  1.8930  0.8621 -0.4555
 1865SOL     OW 6727   4.315   7.491   5.653  0.3817 -0.1254 -0.3242
 1865SOL    HW1 6728   4.339   7.533   5.570  1.7083 -0.8893 -0.3383
 1865SOL    HW2 6729   4.333   7.558   5.719 -1.1278  0.6608 -0.6571
 1866SOL     OW 6730   8.312   4.713   9.022 -0.1443  0.0090  0.0036
 1866SOL    HW1 6731   8.287   4.703   8.929 -0.9375  1.4359  0.0341
 1866SOL    HW2 6732   8.403   4.683   9.026 -0.1955 -0.3681 -1.1689
 1867SOL     OW 6733   9.093   3.531   5.111 -0.3652  0.7724 -0.3481
 1867SOL    HW1 6734   9.046   3.607   5.077  0.5219  1.0551 -0.9902
 1867SOL    HW2 6735   9.149   3.503   5.038 -0.4285 -0.2865 -0.0046
 1868SOL     OW 6736   6.036   5.483   2.108 -0.1612  0.0469  0.0959
 1868SOL    HW1 6737   6.118   5.460   2.066 -0.2345  1.7068 -1.0823
 1868SOL    HW2 6738   5.970   5.430   2.063  0.0492  0.0826 -0.2582
 1869SOL     OW 6739   8.369   8.913   5.259 -0.4332  0.4592 -0.0437
 1869SOL    HW1 6740   8.365   8.819   5.278 -1.1029  0.2814 -0.9577
 1869SOL    HW2 6741   8.331   8.920   5.171 -1.4795  1.7117  0.4772
 1870SOL     OW 6742   7.541   7.534   0.250 -0.6478  0.0158 -0.2052
 1870SOL    HW1 6743   7.459   7.576   0.277 -0.9019 -0.3966 -0.3338
 1870SOL    HW2 6744   7.517   7.481   0.174 -0.6926 -1.6490  0.9074
 1871SOL     OW 6745   5.123   0.865   7.338  0.0214 -0.0448 -0.3140
 1871SOL    HW1 6746   5.036   0.860   7.298 -0.4014  0.1667  0.5636
 1871SOL    HW2 6747   5.143   0.776   7.365  0.6724 -0.3544 -1.7121
 1872SOL     OW 6748   7.444   0.903   0.239  1.0880  0.2788  0.1043
 1872SOL    HW1 6749   7.466   0.950   0.158  1.7184  0.2435  0.2476
 1872SOL    HW2 6750   7.349   0.893   0.236  0.3907  4.4757  1.5849
 1873SOL     OW 6751   3.757   2.513   2.731 -0.1587 -0.3639  0.5492
 1873SOL    HW1 6752   3.668   2.481   2.716 -0.3901  0.7739 -0.6244
 1873SOL    HW2 6753   3.754   2.606   2.709  1.9666 -0.8671 -2.4148
 1874SOL     OW 6754   5.736   1.164   1.442  1.1184 -0.6461 -0.6172
 1874SOL    HW1 6755   5.753   1.232   1.376 -0.5737 -0.2363 -0.6877
 1874SOL    HW2 6756   5.704   1.089   1.392  0.7930 -0.6879 -0.3491
 1875SOL     OW 6757   1.183   6.283   0.852  0.2365 -0.6475  0.4206
 1875SOL    HW1 6758   1.255   6.297   0.913  0.2464  0.0192  0.2560
 1875SOL    HW2 6759   1.109   6.329   0.891  0.6490  1.1713 -0.8505
 1876SOL     OW 6760   3.510   1.368   8.556 -0.0468  0.5770 -0.3849
 1876SOL    HW1 6761   3.593   1.344   8.596 -0.4676 -0.8124 -0.2938
 1876SOL    HW2 6762   3.533   1.390   8.465  0.3643 -0.3589 -0.5224
 1877SOL     OW 6763   1.723   8.787   5.943 -0.1189 -0.0129 -1.0333
 1877SOL    HW1 6764   1.773   8.861   5.910 -0.1822  0.4634 -0.0946
 1877SOL    HW2 6765   1.763   8.767   6.028  0.5071 -1.6598 -1.6739
 1878SOL     OW 6766   5.481   8.134   3.553  0.1295  0.0151  0.0296
 1878SOL    HW1 6767   5.458   8.221   3.519 -0.6924 -0.1585  0.1052
 1878SOL    HW2 6768   5.479   8.144   3.648  1.6323  0.3015  0.0439
 1879SOL     OW 6769   9.054   1.970   4.652  0.1881  0.0389 -0.5022
 1879SOL    HW1 6770   9.032   1.892   4.703  1.2917 -0.7053 -1.1190
 1879SOL    HW2 6771   8.969   2.004   4.623 -0.2835 -1.4291 -0.9409
 1880SOL     OW 6772   3.917   3.509   8.598 -0.8138 -0.0783  0.5970
 1880SOL    HW1 6773   3.824   3.531   8.600 -1.1557 -0.9655 -2.0004
 1880SOL    HW2 6774   3.962   3.593   8.602 -1.8182  0.5446 -0.5506
 1881SOL     OW 6775   1.379   7.805   7.442  0.1508  0.3028  0.5465
 1881SOL    HW1 6776   1.320   7.745   7.490 -0.2132 -0.2099 -0.5013
 1881SOL    HW2 6777   1.374   7.775   7.351  1.7307  0.5158  0.3634
 1882SOL     OW 6778   5.074   0.924   8.918  0.3464  0.3134  0.8406
 1882SOL    HW1 6779   4.999   0.883   8.961 -0.9670  0.2254 -1.3956
 1882SOL    HW2 6780   5.116   0.852   8.870  1.1851  0.5915  1.1445
 1883SOL     OW 6781   8.727   3.445   8.507  0.1682  0.7472  0.0961
 1883SOL    HW1 6782   8.665   3.380   8.541  0.4624  1.4453  2.0969
 1883SOL    HW2 6783   8.672   3.518   8.479 -0.0862  0.1166 -1.1158
 1884SOL     OW 6784   1.129   0.194   9.064 -0.5640 -0.6992 -0.1683
 1884SOL    HW1 6785   1.145   0.180   9.157  0.6647 -2.0670 -0.5450
 1884SOL    HW2 6786   1.207   0.158   9.020 -1.4521 -0.8002 -1.7601
 1885SOL     OW 6787   3.788   1.329   7.200  0.4361 -0.4947 -0.3417
 1885SOL    HW1 6788   3.861   1.286   7.156  0.9031 -1.0889  0.9656
 1885SOL    HW2 6789   3.732   1.360   7.129  1.4572 -0.8970 -1.3492
 1886SOL     OW 6790   1.764   1.644   4.075  0.5568  0.0701 -0.3698
 1886SOL    HW1 6791   1.845   1.693   4.058  0.4079  0.2107 -0.6873
 1886SOL    HW2 6792   1.773   1.613   4.165  0.4538  1.0548 -0.0037
 1887SOL     OW 6793   7.495   0.505   0.759 -0.0862 -0.0303 -0.2658
 1887SOL    HW1 6794   7.581   0.546   0.750  0.3278 -0.8180 -0.0062
 1887SOL    HW2 6795   7.468   0.486   0.669  0.3455 -0.4413 -0.3123
 1888SOL     OW 6796   8.444   3.685   2.766  0.1148  0.7981  0.1715
 1888SOL    HW1 6797   8.399   3.733   2.836 -1.3235  1.0123 -0.8613
 1888SOL    HW2 6798   8.484   3.611   2.811 -2.0528  0.0713  1.0614
 1889SOL     OW 6799   8.440   1.262   4.515 -0.2869 -0.1621  0.4944
 1889SOL    HW1 6800   8.431   1.339   4.571 -1.3027  0.9117 -1.0398
 1889SOL    HW2 6801   8.361   1.211   4.530 -0.3022 -0.1566  0.4323
 1890SOL     OW 6802   3.078   5.124   5.264 -0.2136  0.0139 -0.2218
 1890SOL    HW1 6803   3.113   5.175   5.192 -1.2469 -1.6694 -2.0032
 1890SOL    HW2 6804   3.056   5.040   5.226 -1.4403 -0.7236  1.9240
 1891SOL     OW 6805   2.188   2.059   1.152  0.1169 -0.0587  1.0520
 1891SOL    HW1 6806   2.244   2.135   1.144  0.1678 -0.3254 -3.0383
 1891SOL    HW2 6807   2.188   2.019   1.065 -5.1077 -0.9853  1.1259
 1892SOL     OW 6808   8.740   8.106   8.592  0.0130  0.0556  0.2369
 1892SOL    HW1 6809   8.712   8.160   8.518 -0.7617  0.6948  0.9830
 1892SOL    HW2 6810   8.737   8.165   8.667  0.0712 -0.7808  0.9077
 1893SOL     OW 6811   7.932   1.342   8.596 -0.2062 -0.6823  0.1145
 1893SOL    HW1 6812   8.004   1.300   8.548 -0.2708 -0.9960  0.2904
 1893SOL    HW2 6813   7.895   1.404   8.533  0.3491 -0.3734  0.0918
 1894SOL     OW 6814   7.644   6.829   8.780  0.3655  0.1822  0.6471
 1894SOL    HW1 6815   7.588   6.843   8.703 -2.4218 -1.6742  2.1806
 1894SOL    HW2 6816   7.664   6.917   8.811  2.4222  1.0556 -2.6241
 1895SOL     OW 6817   6.311   0.623   2.605  0.5214  0.5773  0.5995
 1895SOL    HW1 6818   6.342   0.674   2.679  0.6636 -0.6373  1.4057
 1895SOL    HW2 6819   6.348   0.536   2.618 -0.3550  0.0392 -0.2974
 1896SOL     OW 6820   7.153   4.550   4.641  0.3874 -0.6348  0.1528
 1896SOL    HW1 6821   7.139   4.603   4.720  2.5044 -1.1947  0.9795
 1896SOL    HW2 6822   7.185   4.613   4.576  2.0227 -0.6997  0.8526
 1897SOL     OW 6823   5.842   7.567   0.404  0.5297 -0.0995  0.1456
 1897SOL    HW1 6824   5.869   7.543   0.315 -2.1298 -3.0111 -0.0506
 1897SOL    HW2 6825   5.754   7.602   0.393 -0.5016 -2.0101  1.6660
 1898SOL     OW 6826   8.045   8.644   8.502 -0.1462  0.1291  0.2065
 1898SOL    HW1 6827   8.039   8.551   8.478 -0.9937  0.2671 -0.1264
 1898SOL    HW2 6828   8.137   8.655   8.528 -0.0650 -0.8328  0.3897
 1899SOL     OW 6829   6.743   2.351   1.948 -0.1355  0.4453 -0.0154
 1899SOL    HW1 6830   6.741   2.441   1.915  0.4652  0.0932 -1.0618
 1899SOL    HW2 6831   6.826   2.345   1.996 -0.1869  0.4518  0.0747
 1900SOL     OW 6832   0.533   4.757   2.296 -0.6531 -0.0959  0.4192
 1900SOL    HW1 6833   0.514   4.706   2.374  0.3370 -0.6599  0.2988
 1900SOL    HW2 6834   0.526   4.848   2.325 -0.3343 -0.2991  1.1507
 1901SOL     OW 6835   6.435   6.547   4.865  0.7319 -0.5826 -0.4666
 1901SOL    HW1 6836   6.490   6.486   4.914  1.7996  1.1174  0.5719
 1901SOL    HW2 6837   6.476   6.632   4.880 -0.2978  0.3156 -2.4189
 1902SOL     OW 6838   5.002   5.642   4.085  0.1737  0.0721  0.2042
 1902SOL    HW1 6839   5.067   5.712   4.091  0.3002 -0.1489  2.0850
 1902SOL    HW2 6840   4.992   5.626   3.991  2.8389  0.1131 -0.1582
 1903SOL     OW 6841   5.549   1.652   7.925 -0.3914 -0.1304  0.3882
 1903SOL    HW1 6842   5.581   1.676   8.012 -1.6869 -0.8127  1.0893
 1903SOL    HW2 6843   5.616   1.591   7.892  2.2528  3.1636 -0.8858
 1904SOL     OW 6844   0.066   2.243   8.943 -0.4377 -0.0309  0.2885
 1904SOL    HW1 6845   0.154   2.257   8.977  0.0115 -0.2738 -0.7305
 1904SOL    HW2 6846   0.028   2.176   9.000  0.3201 -0.4736  0.2936
 1905SOL     OW 6847   7.597   1.819   2.116 -0.0647 -0.4093 -0.4347
 1905SOL    HW1 6848   7.669   1.783   2.065 -0.7502 -3.0783  0.3360
 1905SOL    HW2 6849   7.560   1.744   2.163 -0.7717  1.5464  2.4154
 1906SOL     OW 6850   5.579   2.424   3.599  0.0297  0.0115  0.3021
 1906SOL    HW1 6851   5.550   2.345   3.554 -1.0432  1.3264 -1.4127
 1906SOL    HW2 6852   5.553   2.410   3.690  1.7029 -2.4486  0.5197
 1907SOL     OW 6853   2.041   6.309   7.800  0.2091  0.4162  0.2839
 1907SOL    HW1 6854   2.020   6.356   7.719 -1.1514 -1.4237 -0.4963
 1907SOL    HW2 6855   2.043   6.217   7.774  0.5566 -0.1442  2.1886
 1908SOL     OW 6856   0.794   6.290   6.867  0.3139  0.2119 -0.0603
 1908SOL    HW1 6857   0.780   6.217   6.806  1.4388  0.1068 -0.2245
 1908SOL    HW2 6858   0.783   6.369   6.813 -1.0138  0.1815  0.1424
 1909SOL     OW 6859   2.296   3.165   3.490  0.5803  0.1650  0.5124
 1909SOL    HW1 6860   2.284   3.260   3.492 -0.4559  0.0676 -0.2360
 1909SOL    HW2 6861   2.389   3.152   3.510  1.3470  1.4743 -1.8150
 1910SOL     OW 6862   6.421   6.814   3.213  0.3013  0.3910 -0.2858
 1910SOL    HW1 6863   6.392   6.723   3.209  0.3777  0.2662  1.4624
 1910SOL    HW2 6864   6.340   6.864   3.227  0.5171  0.3478  1.2294
 1911SOL     OW 6865   5.788   6.416   4.590 -0.1001  0.4717  0.1539
 1911SOL    HW1 6866   5.810   6.509   4.584  1.0724  0.2114  0.0930
 1911SOL    HW2 6867   5.782   6.387   4.499  0.5205  0.2861  0.1649
 1912SOL     OW 6868   4.655   2.109   1.989  0.0865 -0.3214 -0.0372
 1912SOL    HW1 6869   4.696   2.144   1.909 -0.2562 -0.5220 -0.3036
 1912SOL    HW2 6870   4.562   2.108   1.970 -0.0538  0.2288  0.6111
 1913SOL     OW 6871   3.311   3.098   8.703 -0.1676  0.0364  0.0383
 1913SOL    HW1 6872   3.368   3.153   8.757 -0.2705 -0.3590  0.5648
 1913SOL    HW2 6873   3.304   3.016   8.752 -1.1630  0.0730 -0.0252
 1914SOL     OW 6874   7.117   8.669   8.305 -0.5884 -0.2769 -0.0037
 1914SOL    HW1 6875   7.051   8.599   8.310 -1.0769  0.1785 -0.0516
 1914SOL    HW2 6876   7.148   8.679   8.395 -1.2942  0.1827  0.1924
 1915SOL     OW 6877   6.771   7.999   2.844  0.2212  0.3355 -0.5941
 1915SOL    HW1 6878   6.751   8.090   2.822 -1.5218 -0.2750 -1.7208
 1915SOL    HW2 6879   6.757   7.951   2.763 -0.0951 -1.1142  0.2831
 1916SOL     OW 6880   1.865   7.093   8.575 -0.8087 -0.1993 -0.1949
 1916SOL    HW1 6881   1.953   7.089   8.538 -0.6435 -2.1987  0.3026
 1916SOL    HW2 6882   1.868   7.168   8.635  1.0139 -1.1083  0.9343
 1917SOL     OW 6883   4.115   0.268   2.925 -0.8108  0.2318 -0.4310
 1917SOL    HW1 6884   4.148   0.179   2.936 -0.1776  0.6662  1.5708
 1917SOL    HW2 6885   4.020   0.260   2.928 -0.7379 -0.2353  1.2793
 1918SOL     OW 6886   1.888   3.697   7.670  0.3634 -0.2049  0.8691
 1918SOL    HW1 6887   1.802   3.700   7.629 -0.2632  0.2813  2.1824
 1918SOL    HW2 6888   1.923   3.786   7.660  0.0566  0.0149  1.6776
 1919SOL     OW 6889   6.719   8.490   6.688  0.0266  0.0687 -0.3235
 1919SOL    HW1 6890   6.680   8.554   6.629 -0.3270  1.0181  0.8816
 1919SOL    HW2 6891   6.802   8.529   6.714  0.7100 -0.8616 -1.0429
 1920SOL     OW 6892   2.605   5.678   7.160 -0.1944 -0.2183 -0.0521
 1920SOL    HW1 6893   2.547   5.755   7.158 -0.1919 -0.2006  0.3971
 1920SOL    HW2 6894   2.656   5.689   7.241 -1.0094 -1.2811  0.6376
 1921SOL     OW 6895   7.563   0.283   5.613  0.4040  0.0995 -0.2114
 1921SOL    HW1 6896   7.474   0.286   5.648  0.7258  1.2665  0.5647
 1921SOL    HW2 6897   7.580   0.373   5.583  0.4601 -0.6567 -2.6175
 1922SOL     OW 6898   2.168   7.376   7.873 -0.1292  0.2086  0.1851
 1922SOL    HW1 6899   2.114   7.453   7.891 -1.5047 -0.8406  0.7731
 1922SOL    HW2 6900   2.254   7.399   7.907  0.2291  2.4513 -1.9865
 1923SOL     OW 6901   8.621   7.865   6.034  1.0199  0.1271  0.4835
 1923SOL    HW1 6902   8.635   7.826   5.948 -0.0817  1.2364 -0.2397
 1923SOL    HW2 6903   8.530   7.844   6.056  0.3218  2.2753 -0.0126
 1924SOL     OW 6904   8.849   0.524   7.266  0.3664 -0.0660  0.9545
 1924SOL    HW1 6905   8.820   0.487   7.350  3.5822 -0.0492  2.2333
 1924SOL    HW2 6906   8.832   0.618   7.274 -0.8157 -0.2566  0.8742
 1925SOL     OW 6907   8.510   3.410   2.067  0.5458 -0.9949  0.3583
 1925SOL    HW1 6908   8.452   3.433   1.994  1.1783  0.2368  0.2297
 1925SOL    HW2 6909   8.516   3.490   2.119  1.8406 -1.2184  0.5679
 1926SOL     OW 6910   2.145   5.445   1.011  0.0387  0.3169  0.8374
 1926SOL    HW1 6911   2.131   5.356   1.041  1.6317 -0.5469 -0.7639
 1926SOL    HW2 6912   2.234   5.467   1.041  0.9042  0.1355 -1.3964
 1927SOL     OW 6913   4.311   5.325   4.299 -0.4895  0.2462 -0.3510
 1927SOL    HW1 6914   4.306   5.230   4.301  0.1063  0.2117 -0.2930
 1927SOL    HW2 6915   4.294   5.351   4.390 -1.7238  0.2619 -0.5740
 1928SOL     OW 6916   5.884   0.290   0.404 -0.5462 -0.3479 -0.0232
 1928SOL    HW1 6917   5.801   0.308   0.360 -0.7179 -0.5610  0.2132
 1928SOL    HW2 6918   5.923   0.377   0.416 -1.0830 -0.1803  0.5495
 1929SOL     OW 6919   1.882   6.709   0.097 -0.4098 -0.6764 -0.2058
 1929SOL    HW1 6920   1.953   6.705   0.033 -0.9571 -1.6897 -0.7797
 1929SOL    HW2 6921   1.860   6.802   0.103 -0.6527 -0.5969 -1.8464
 1930SOL     OW 6922   2.569   7.993   2.514 -0.4705  0.0406 -0.1577
 1930SOL    HW1 6923   2.531   8.071   2.473  0.4736  0.9925  0.6975
 1930SOL    HW2 6924   2.652   8.024   2.551 -1.3076 -0.6945  2.5752
 1931SOL     OW 6925   1.725   3.496   8.163 -0.1667  0.6699  0.1647
 1931SOL    HW1 6926   1.698   3.514   8.073 -0.5215 -0.0661  0.1086
 1931SOL    HW2 6927   1.717   3.579   8.209 -0.4903  0.9338 -0.3661
 1932SOL     OW 6928   2.035   1.412   6.398 -0.4999 -1.0342  0.1468
 1932SOL    HW1 6929   2.121   1.425   6.437 -0.1876  0.7080 -1.0213
 1932SOL    HW2 6930   2.014   1.495   6.357 -1.9089 -2.0015 -1.2147
 1933SOL     OW 6931   3.548   3.731   4.123  0.0426 -0.2209  0.7491
 1933SOL    HW1 6932   3.578   3.822   4.130  0.1214 -0.3429  2.4634
 1933SOL    HW2 6933   3.603   3.692   4.055 -1.9251  1.7123 -2.2305
 1934SOL     OW 6934   5.523   7.604   3.243  0.2044  0.3167 -0.0360
 1934SOL    HW1 6935   5.480   7.577   3.325  1.1293 -0.1495  0.3091
 1934SOL    HW2 6936   5.594   7.662   3.271  1.6947 -1.2841 -0.3233
 1935SOL     OW 6937   8.388   3.533   1.257 -0.3874  0.0639 -0.2347
 1935SOL    HW1 6938   8.325   3.497   1.319 -0.6466 -0.2101 -0.6523
 1935SOL    HW2 6939   8.470   3.538   1.306 -0.9169  1.2246  0.5832
 1936SOL     OW 6940   4.794   7.569   2.302 -0.2814 -0.0812 -0.1618
 1936SOL    HW1 6941   4.799   7.663   2.315 -3.8482  0.1115  0.9920
 1936SOL    HW2 6942   4.737   7.558   2.226 -0.0018 -1.3399 -0.2188
 1937SOL     OW 6943   3.899   6.749   7.280 -0.8191  0.2872  0.2565
 1937SOL    HW1 6944   3.960   6.758   7.353  1.3766  0.4387 -1.4631
 1937SOL    HW2 6945   3.853   6.832   7.276  0.8800  1.2627 -0.0186
 1938SOL     OW 6946   1.015   6.448   1.792 -0.3272  0.0006  0.4403
 1938SOL    HW1 6947   1.026   6.543   1.793 -0.0898  0.0646 -2.0425
 1938SOL    HW2 6948   1.101   6.413   1.814 -0.1565  0.3658  0.3476
 1939SOL     OW 6949   9.036   3.732   8.446 -1.2106 -0.5626  0.1498
 1939SOL    HW1 6950   9.029   3.658   8.506  0.1748 -0.6071  0.2809
 1939SOL    HW2 6951   9.086   3.698   8.372 -0.2762  0.3142  0.3623
 1940SOL     OW 6952   3.825   5.766   2.207  0.6554 -0.1277  0.5596
 1940SOL    HW1 6953   3.864   5.853   2.207 -0.0672  0.2353 -1.1699
 1940SOL    HW2 6954   3.834   5.736   2.116 -0.8574 -1.0485  0.6852
 1941SOL     OW 6955   6.927   1.763   6.925  0.1014  0.2238 -0.3156
 1941SOL    HW1 6956   6.924   1.856   6.946 -0.2598  0.4961 -1.5285
 1941SOL    HW2 6957   7.014   1.735   6.955  0.4181  1.0625 -0.4245
 1942SOL     OW 6958   8.991   6.503   2.714 -0.0320 -0.0134  0.0856
 1942SOL    HW1 6959   8.936   6.535   2.642 -0.8425 -0.6977  0.3754
 1942SOL    HW2 6960   8.933   6.445   2.764  1.1737 -1.3778 -0.0313
 1943SOL     OW 6961   8.904   0.862   3.052  0.1172  0.4898 -1.0027
 1943SOL    HW1 6962   8.990   0.904   3.055 -0.1794  1.0623  0.3382
 1943SOL    HW2 6963   8.841   0.935   3.050 -0.4080  0.1831  1.4234
 1944SOL     OW 6964   4.437   8.679   4.563  0.4887  0.4939  0.3252
 1944SOL    HW1 6965   4.418   8.719   4.647  2.2812  0.3259  0.8522
 1944SOL    HW2 6966   4.396   8.592   4.567  0.8676  0.3503  1.1685
 1945SOL     OW 6967   0.341   4.142   3.940 -0.2646 -0.2697  0.2802
 1945SOL    HW1 6968   0.322   4.113   3.850 -0.0026 -0.6453  0.3447
 1945SOL    HW2 6969   0.315   4.234   3.941 -2.5118 -0.8585  0.4978
 1946SOL     OW 6970   7.822   1.102   8.205 -0.4116  0.2116 -0.4644
 1946SOL    HW1 6971   7.907   1.105   8.249 -0.1735  0.1097 -0.9086
 1946SOL    HW2 6972   7.839   1.135   8.117 -0.9292  0.6253 -0.4130
 1947SOL     OW 6973   8.618   2.084   2.927  0.0749  0.0303 -0.5518
 1947SOL    HW1 6974   8.678   2.124   2.864  0.8433 -0.1002  0.0940
 1947SOL    HW2 6975   8.532   2.118   2.902  0.7162  2.2892  0.1241
 1948SOL     OW 6976   6.461   3.487   8.656 -0.0427 -0.3086 -0.1780
 1948SOL    HW1 6977   6.425   3.552   8.595 -1.0540 -0.3464  0.3450
 1948SOL    HW2 6978   6.553   3.510   8.665 -0.6183  1.8638  0.9496
 1949SOL     OW 6979   0.110   3.784   0.552 -0.1802 -0.2652 -0.0374
 1949SOL    HW1 6980   0.180   3.842   0.523 -0.5200 -0.6540 -1.6998
 1949SOL    HW2 6981   0.089   3.815   0.640 -0.5409  2.3099 -0.9579
 1950SOL     OW 6982   7.375   7.833   0.425 -0.3313  0.6624 -0.0405
 1950SOL    HW1 6983   7.314   7.885   0.476 -0.0787  0.1288  0.8240
 1950SOL    HW2 6984   7.439   7.896   0.391 -0.6170  1.0423  0.1378
 1951SOL     OW 6985   0.880   0.482   8.353  0.2637  0.7925 -0.2750
 1951SOL    HW1 6986   0.969   0.498   8.323  1.8588 -1.1947  2.8728
 1951SOL    HW2 6987   0.862   0.392   8.328 -0.5594  0.9224 -0.1704
 1952SOL     OW 6988   8.310   3.820   1.544  0.1854  1.0452  0.1355
 1952SOL    HW1 6989   8.383   3.872   1.579  0.4940  1.2645 -0.8006
 1952SOL    HW2 6990   8.308   3.742   1.600  0.4771  1.5071  0.8113
 1953SOL     OW 6991   0.989   4.847   1.878 -0.5926  0.0131  0.0163
 1953SOL    HW1 6992   1.016   4.760   1.907  0.7476  0.5311  0.4035
 1953SOL    HW2 6993   0.937   4.832   1.799 -1.5764 -1.2158  0.8540
 1954SOL     OW 6994   7.952   5.992   5.689  0.0711  0.3025  0.0578
 1954SOL    HW1 6995   7.894   5.925   5.726  1.1849 -0.2057  0.9231
 1954SOL    HW2 6996   7.913   6.013   5.604 -2.3319  1.2191  1.2923
 1955SOL     OW 6997   5.479   0.779   8.646  0.1679 -0.4916 -0.2551
 1955SOL    HW1 6998   5.474   0.874   8.657  0.4532 -0.5092  0.0633
 1955SOL    HW2 6999   5.568   0.757   8.676  0.2427 -0.8076 -0.7091
 1956SOL     OW 7000   7.595   8.025   1.189  0.2328 -0.0139 -0.3080
 1956SOL    HW1 7001   7.660   8.094   1.175 -0.4245  0.6164 -0.3389
 1956SOL    HW2 7002   7.589   8.018   1.285 -0.1643  0.4385 -0.2929
 1957SOL     OW 7003   8.949   0.557   2.113 -0.4070 -0.1872 -0.4825
 1957SOL    HW1 7004   8.924   0.577   2.022 -2.9830 -0.9028 -0.0044
 1957SOL    HW2 7005   8.942   0.462   2.120  0.6275 -0.2267  0.2761
 1958SOL     OW 7006   4.708   6.416   4.811 -0.0500 -0.1555  0.0831
 1958SOL    HW1 7007   4.752   6.412   4.727 -1.6237  0.6110 -0.8268
 1958SOL    HW2 7008   4.646   6.344   4.810  1.1133 -1.2338  1.3559
 1959SOL     OW 7009   3.057   8.773   6.203  0.5689 -0.3683  0.6270
 1959SOL    HW1 7010   3.028   8.862   6.182 -0.6809 -0.9040 -0.0076
 1959SOL    HW2 7011   3.113   8.748   6.129 -0.2805 -0.6412  0.0671
 1960SOL     OW 7012   4.052   4.498   2.931  0.1183 -0.0342  0.0457
 1960SOL    HW1 7013   4.129   4.532   2.976 -0.8561  1.0789  0.9659
 1960SOL    HW2 7014   4.035   4.561   2.861 -0.6928  0.4415  0.6605
 1961SOL     OW 7015   7.248   4.806   2.740 -0.0222  0.3094 -0.1234
 1961SOL    HW1 7016   7.265   4.859   2.817 -1.3798 -0.7942  0.9807
 1961SOL    HW2 7017   7.333   4.767   2.718  0.2469  0.1034  1.2304
 1962SOL     OW 7018   6.005   8.953   6.174  0.4541 -0.3404 -0.3542
 1962SOL    HW1 7019   5.942   8.977   6.241 -0.7660 -2.4776 -0.6812
 1962SOL    HW2 7020   6.084   8.929   6.223  0.2851  0.1593  0.1776
 1963SOL     OW 7021   4.502   2.817   5.714 -0.5331  0.2115  0.7965
 1963SOL    HW1 7022   4.595   2.795   5.706 -0.9153 -1.9727  1.8011
 1963SOL    HW2 7023   4.456   2.737   5.688 -2.3075  2.2068 -3.0171
 1964SOL     OW 7024   6.914   4.033   5.676 -0.0296 -0.3341  0.0056
 1964SOL    HW1 7025   6.851   4.015   5.607 -0.8560  0.1356  0.6185
 1964SOL    HW2 7026   6.921   3.950   5.724  2.5375 -1.5188 -2.1212
 1965SOL     OW 7027   5.980   7.602   0.832  0.0231 -0.2159  0.1961
 1965SOL    HW1 7028   5.952   7.650   0.753 -1.0295  0.0272  0.6959
 1965SOL    HW2 7029   5.919   7.528   0.837 -0.5947  0.3444  1.3334
 1966SOL     OW 7030   5.049   6.860   4.562 -0.2420  0.0241 -0.1806
 1966SOL    HW1 7031   5.107   6.925   4.522 -1.0277  1.2019  0.5329
 1966SOL    HW2 7032   5.086   6.776   4.536  1.8319  0.7314  0.2843
 1967SOL     OW 7033   4.702   1.819   9.116 -0.3993 -0.2188 -0.0652
 1967SOL    HW1 7034   4.642   1.893   9.106 -1.9379 -1.3690  0.1437
 1967SOL    HW2 7035   4.696   1.773   9.033  2.7224  1.3268 -1.2908
 1968SOL     OW 7036   0.572   7.216   8.938  0.5637  0.1747 -0.1596
 1968SOL    HW1 7037   0.622   7.295   8.958  0.3027  0.4570 -0.5821
 1968SOL    HW2 7038   0.546   7.228   8.846  0.5456 -0.4155 -0.2324
 1969SOL     OW 7039   4.652   7.320   1.166 -0.1801  0.3626  0.0758
 1969SOL    HW1 7040   4.625   7.409   1.188  0.6957  0.7589 -0.3672
 1969SOL    HW2 7041   4.707   7.331   1.088  1.1716 -0.3779  0.8859
 1970SOL     OW 7042   4.709   3.468   6.285  0.0885  0.4772 -0.3755
 1970SOL    HW1 7043   4.764   3.450   6.209  1.6099  1.7078  0.3742
 1970SOL    HW2 7044   4.768   3.461   6.360 -0.7972  1.6741  0.4770
 1971SOL     OW 7045   0.797   7.127   0.870 -0.0056 -0.9948  0.1874
 1971SOL    HW1 7046   0.776   7.213   0.907 -0.7738 -0.8696 -0.4911
 1971SOL    HW2 7047   0.880   7.140   0.824  0.3597 -0.8600  0.8766
 1972SOL     OW 7048   6.843   6.004   8.484 -0.0370 -0.2583 -0.3704
 1972SOL    HW1 7049   6.799   5.999   8.569 -2.0824 -1.5261 -1.4159
 1972SOL    HW2 7050   6.917   5.944   8.491 -1.7275 -2.4607 -0.2331
 1973SOL     OW 7051   5.772   3.072   4.923 -0.0958 -0.7462  0.0515
 1973SOL    HW1 7052   5.722   3.000   4.885 -0.5846  0.2436 -1.2304
 1973SOL    HW2 7053   5.711   3.116   4.982  0.4155 -1.7781  1.3984
 1974SOL     OW 7054   2.304   2.289   7.355 -0.2954  0.0127  0.0648
 1974SOL    HW1 7055   2.361   2.365   7.344 -0.4749  0.2132  0.5113
 1974SOL    HW2 7056   2.237   2.300   7.289 -1.9012  1.7024  1.8553
 1975SOL     OW 7057   0.612   3.395   2.725 -0.5297  0.1571  0.0729
 1975SOL    HW1 7058   0.590   3.314   2.771  2.4889 -1.1948 -0.6089
 1975SOL    HW2 7059   0.623   3.460   2.795  1.2605 -1.1717  1.1232
 1976SOL     OW 7060   8.711   1.411   8.231 -0.6543 -0.1738  0.2458
 1976SOL    HW1 7061   8.712   1.413   8.135  1.2756 -0.3498  0.2336
 1976SOL    HW2 7062   8.795   1.371   8.256 -0.9401  0.2316  2.0211
 1977SOL     OW 7063   0.142   7.506   5.031 -0.2219  0.1308 -0.0476
 1977SOL    HW1 7064   0.047   7.517   5.031 -0.0293  2.8336  1.9520
 1977SOL    HW2 7065   0.174   7.576   4.975  0.6341 -0.5601 -0.4394
 1978SOL     OW 7066   6.492   8.433   4.336 -0.0329  0.4450  0.1013
 1978SOL    HW1 7067   6.431   8.407   4.405  0.9853 -1.0632  0.4831
 1978SOL    HW2 7068   6.450   8.405   4.255  0.3291 -1.0272  0.3973
 1979SOL     OW 7069   2.552   1.591   6.439 -0.0900 -0.2256 -0.3080
 1979SOL    HW1 7070   2.534   1.638   6.358 -0.5273 -1.7208 -1.1267
 1979SOL    HW2 7071   2.647   1.592   6.447 -0.1036  1.1295 -0.0674
 1980SOL     OW 7072   1.067   2.653   2.667  0.4348 -0.0217  0.4034
 1980SOL    HW1 7073   1.012   2.687   2.596  0.0813 -0.6126  0.3905
 1980SOL    HW2 7074   1.147   2.704   2.661 -0.1810  0.9908  0.5501
 1981SOL     OW 7075   2.861   7.022   7.487 -0.0685  0.0196  0.2245
 1981SOL    HW1 7076   2.798   6.962   7.448  0.2775 -0.2204  0.0319
 1981SOL    HW2 7077   2.825   7.109   7.470  0.0505 -0.0832 -0.5775
 1982SOL     OW 7078   5.800   2.916   6.346  0.0622  0.2198  0.0173
 1982SOL    HW1 7079   5.731   2.959   6.295 -0.6070  1.0521  1.5726
 1982SOL    HW2 7080   5.848   2.988   6.387  1.6520 -0.3706 -0.7405
 1983SOL     OW 7081   3.794   6.694   7.840 -0.3464 -0.5889 -0.0960
 1983SOL    HW1 7082   3.874   6.739   7.813  0.0697  0.7637  2.9009
 1983SOL    HW2 7083   3.749   6.757   7.896 -2.1181 -2.3065  0.5334
 1984SOL     OW 7084   7.244   1.013   8.760 -0.0252  0.3968 -0.4404
 1984SOL    HW1 7085   7.263   0.932   8.714 -0.4091 -0.2977  0.5923
 1984SOL    HW2 7086   7.149   1.018   8.763 -0.0673 -0.5608  1.8849
 1985SOL     OW 7087   0.510   3.061   2.681  0.7659  0.1655  0.1091
 1985SOL    HW1 7088   0.538   2.987   2.626  0.8121 -0.5393  1.0585
 1985SOL    HW2 7089   0.528   3.138   2.628  1.9998 -0.4279 -0.3757
 1986SOL     OW 7090   0.120   3.430   3.681 -0.2954 -0.9843 -0.2348
 1986SOL    HW1 7091   0.047   3.378   3.648 -0.3488 -1.4665  0.6108
 1986SOL    HW2 7092   0.084   3.518   3.693 -0.6502 -1.1474 -0.1158
 1987SOL     OW 7093   5.705   4.539   3.088 -0.1477 -0.4709 -0.2590
 1987SOL    HW1 7094   5.655   4.469   3.130  0.6812 -0.5752  0.5781
 1987SOL    HW2 7095   5.639   4.603   3.063 -0.8081 -1.0556 -0.0720
 1988SOL     OW 7096   6.479   1.213   7.251 -0.4571 -0.0351 -0.3790
 1988SOL    HW1 7097   6.504   1.201   7.159 -1.2380 -0.0087 -0.5993
 1988SOL    HW2 7098   6.385   1.199   7.252 -0.2511 -1.5188  0.6809
 1989SOL     OW 7099   4.913   6.944   0.032 -0.4659 -0.3103  0.4761
 1989SOL    HW1 7100   5.002   6.975   0.050  0.0143 -2.6054  2.6327
 1989SOL    HW2 7101   4.925   6.872  -0.030 -0.9375 -0.0656  0.0947
 1990SOL     OW 7102   4.696   8.675   6.068  0.2689 -0.5475 -0.3404
 1990SOL    HW1 7103   4.606   8.698   6.042  0.2690  1.0317  0.8677
 1990SOL    HW2 7104   4.717   8.739   6.136  1.4510 -2.4122  1.1252
 1991SOL     OW 7105   2.909   2.064   5.626 -0.0273 -0.1502 -0.0440
 1991SOL    HW1 7106   2.977   2.000   5.644  0.2256  0.5749  1.9227
 1991SOL    HW2 7107   2.836   2.038   5.683 -1.4995 -0.9726 -2.1841
 1992SOL     OW 7108   2.456   1.593   5.762  0.3505  0.3368 -0.5539
 1992SOL    HW1 7109   2.460   1.652   5.837 -2.7056  0.2786 -0.2043
 1992SOL    HW2 7110   2.518   1.523   5.782  0.5750  1.0183  1.2704
 1993SOL     OW 7111   3.815   6.715   6.569 -0.0610  0.4132 -0.1475
 1993SOL    HW1 7112   3.722   6.703   6.553 -0.2734 -0.0511  1.3000
 1993SOL    HW2 7113   3.848   6.628   6.589  0.0947  0.9022  2.0577
 1994SOL     OW 7114   7.701   3.065   0.810  0.1303 -0.3245 -0.5690
 1994SOL    HW1 7115   7.720   3.047   0.902  1.0486  0.4809 -0.5822
 1994SOL    HW2 7116   7.729   3.156   0.797 -0.8170 -0.1332 -1.4296
 1995SOL     OW 7117   1.353   2.479   0.726  0.6040  0.2522 -0.6436
 1995SOL    HW1 7118   1.448   2.486   0.719  0.4962  0.7677 -1.8483
 1995SOL    HW2 7119   1.333   2.391   0.694  0.5730  0.6648 -1.8128
 1996SOL     OW 7120   7.306   3.367   3.935 -0.0844 -0.3944 -0.1091
 1996SOL    HW1 7121   7.343   3.424   4.003  1.8851 -1.0600 -0.5644
 1996SOL    HW2 7122   7.283   3.427   3.864 -0.0531  0.0633  0.2598
 1997SOL     OW 7123   4.895   1.208   3.395  0.3619 -0.1065  0.1638
 1997SOL    HW1 7124   4.833   1.148   3.354 -0.9398  1.1915  0.1566
 1997SOL    HW2 7125   4.868   1.295   3.365  1.1071  0.6410  1.5450
 1998SOL     OW 7126   7.440   3.012   4.240 -0.1424  0.0252 -0.4424
 1998SOL    HW1 7127   7.445   3.103   4.269 -2.0632 -0.1620  0.6498
 1998SOL    HW2 7128   7.398   2.966   4.312 -2.2379 -1.0832 -2.2496
 1999SOL     OW 7129   1.252   5.743   6.507  0.4233 -0.0220 -0.2077
 1999SOL    HW1 7130   1.258   5.656   6.468  3.6791  0.6115 -1.3594
 1999SOL    HW2 7131   1.260   5.803   6.434  1.5157  1.2225  0.8871
 2000SOL     OW 7132   7.084   4.486   3.480 -0.4215  0.3726  0.5613
 2000SOL    HW1 7133   7.171   4.446   3.484 -1.0188 -0.9405  1.0125
 2000SOL    HW2 7134   7.046   4.455   3.398 -2.0280 -2.5623  2.2641
 2001SOL     OW 7135   0.660   5.713   5.107  0.1196  0.1943 -0.7018
 2001SOL    HW1 7136   0.696   5.663   5.034 -1.0577  1.3344 -2.1124
 2001SOL    HW2 7137   0.705   5.797   5.104 -1.0002  0.7967 -1.0627
 2002SOL     OW 7138   1.163   0.679   4.754  0.6442  0.0790 -0.4984
 2002SOL    HW1 7139   1.224   0.662   4.826 -1.4719 -1.7394  0.9924
 2002SOL    HW2 7140   1.112   0.754   4.784 -0.3614 -0.7932  0.0706
 2003SOL     OW 7141   8.195   8.362   7.306  0.5163  0.1702 -0.1972
 2003SOL    HW1 7142   8.185   8.375   7.400  0.0348  0.5750 -0.3010
 2003SOL    HW2 7143   8.260   8.292   7.299  1.7981  1.2459  0.3979
 2004SOL     OW 7144   8.147   2.075   4.433  0.3579 -0.1786  0.0835
 2004SOL    HW1 7145   8.100   2.126   4.499 -0.9678 -3.0669  1.5443
 2004SOL    HW2 7146   8.239   2.094   4.449 -0.0261  0.5577  1.5922
 2005SOL     OW 7147   4.312   8.436   5.961 -0.0229 -0.1526 -0.1483
 2005SOL    HW1 7148   4.399   8.421   5.926  0.0204 -1.7453  0.5381
 2005SOL    HW2 7149   4.256   8.373   5.915 -0.6238  0.1645  0.1258
 2006SOL     OW 7150   8.755   7.141   4.978  0.5591 -0.0117  0.1558
 2006SOL    HW1 7151   8.799   7.179   4.902  0.7250  0.8969  0.6858
 2006SOL    HW2 7152   8.713   7.216   5.021  1.0526 -0.3804  1.3299
 2007SOL     OW 7153   2.021   5.014   0.067 -0.3383  0.1484  0.2425
 2007SOL    HW1 7154   1.959   4.964   0.015  1.2830 -1.0658 -0.6159
 2007SOL    HW2 7155   1.989   5.105   0.062 -1.2484 -0.2218 -1.3218
 2008SOL     OW 7156   5.947   3.069   2.989  0.5988 -0.3915 -0.3783
 2008SOL    HW1 7157   5.893   3.140   3.022 -0.3251 -1.5331  0.6536
 2008SOL    HW2 7158   5.888   3.016   2.936  0.8060 -1.3549  0.3233
 2009SOL     OW 7159   7.008   3.627   4.412  0.4767  0.5214  0.5016
 2009SOL    HW1 7160   6.940   3.618   4.479  1.0408 -0.3806  0.9757
 2009SOL    HW2 7161   7.065   3.697   4.444  0.4597  0.4390  0.7120
 2010SOL     OW 7162   2.874   8.210   8.673  0.1050  0.3168  0.2375
 2010SOL    HW1 7163   2.853   8.205   8.766  3.4073 -1.2406  1.0292
 2010SOL    HW2 7164   2.955   8.261   8.669  0.2453  0.0276 -1.7562
 2011SOL     OW 7165   5.453   4.191   8.414  0.1502 -0.1891  0.0036
 2011SOL    HW1 7166   5.526   4.147   8.369  0.4767  0.3390  0.0126
 2011SOL    HW2 7167   5.375   4.156   8.372  0.4587  0.7848 -1.4394
 2012SOL     OW 7168   0.392   6.050   3.288 -0.0352 -0.0710 -0.8757
 2012SOL    HW1 7169   0.374   6.047   3.194  0.2691  1.7528 -1.0314
 2012SOL    HW2 7170   0.485   6.030   3.296 -0.0287 -0.0810 -0.9781
 2013SOL     OW 7171   1.489   9.104   8.608 -0.7551 -0.5584  0.1301
 2013SOL    HW1 7172   1.480   9.031   8.669 -0.0989 -1.1295 -0.4406
 2013SOL    HW2 7173   1.583   9.124   8.608 -0.6429 -1.0026 -1.1771
 2014SOL     OW 7174   6.053   0.212   6.893  0.8015 -0.0404  0.0834
 2014SOL    HW1 7175   6.038   0.237   6.984  0.8822  0.7604 -0.1176
 2014SOL    HW2 7176   5.973   0.165   6.868  0.7813 -0.2710  0.5629
 2015SOL     OW 7177   5.954   0.468   4.865 -0.1833 -0.1458 -0.1745
 2015SOL    HW1 7178   5.892   0.513   4.923 -0.2640 -1.5046  0.8406
 2015SOL    HW2 7179   5.962   0.380   4.902  1.3368 -0.4177 -1.0667
 2016SOL     OW 7180   3.150   0.679   6.701 -0.0951  0.2555 -0.0775
 2016SOL    HW1 7181   3.090   0.740   6.660 -1.2577 -0.6567  0.2046
 2016SOL    HW2 7182   3.140   0.695   6.795 -0.7232 -0.6293  0.0173
 2017SOL     OW 7183   1.431   5.884   3.719  0.1782 -0.1796 -0.4508
 2017SOL    HW1 7184   1.473   5.886   3.633  1.8365  0.9719  0.3376
 2017SOL    HW2 7185   1.338   5.888   3.700  0.5340  1.1853 -2.1833
 2018SOL     OW 7186   6.356   7.093   4.627  0.4391 -0.3476 -0.1278
 2018SOL    HW1 7187   6.368   6.999   4.629  2.9501 -0.2438 -3.1276
 2018SOL    HW2 7188   6.439   7.129   4.658 -0.9097  1.0197  2.2549
 2019SOL     OW 7189   0.929   7.846   2.179  0.0811 -0.7640 -0.0032
 2019SOL    HW1 7190   1.010   7.894   2.162 -0.9235  1.9510  2.0436
 2019SOL    HW2 7191   0.932   7.824   2.272 -1.4538 -0.6929  0.1001
 2020SOL     OW 7192   6.159   4.789   5.278  0.1875 -0.0593 -0.5851
 2020SOL    HW1 7193   6.149   4.694   5.280  1.5181 -0.2116  1.1752
 2020SOL    HW2 7194   6.209   4.806   5.198  0.8899 -0.9705 -0.3542
 2021SOL     OW 7195   6.635   6.764   1.037 -0.1090  0.1721 -0.3053
 2021SOL    HW1 7196   6.694   6.765   1.112  1.0365  1.3011 -1.1737
 2021SOL    HW2 7197   6.688   6.794   0.964 -1.4325 -0.0302 -1.4063
 2022SOL     OW 7198   2.415   1.468   4.263  0.6495 -0.4185 -0.1101
 2022SOL    HW1 7199   2.461   1.427   4.337  1.0258 -2.2580 -1.2821
 2022SOL    HW2 7200   2.322   1.447   4.279  0.6095  0.1112  0.3750
 2023SOL     OW 7201   8.564   8.602   4.173 -0.0857 -0.0376 -0.2938
 2023SOL    HW1 7202   8.590   8.677   4.227  1.1917 -0.8391  0.2513
 2023SOL    HW2 7203   8.576   8.633   4.083  5.1933 -0.9237 -0.2239
 2024SOL     OW 7204   8.191   2.023   5.854  0.1169  0.1108 -0.6407
 2024SOL    HW1 7205   8.110   2.044   5.901 -0.3839 -2.3713 -0.2614
 2024SOL    HW2 7206   8.251   1.992   5.922  1.2918  1.5391 -0.9767
 2025SOL     OW 7207   7.868   8.229   3.666  0.4887 -0.0021  0.4643
 2025SOL    HW1 7208   7.790   8.263   3.711 -0.6150  0.3660 -1.5748
 2025SOL    HW2 7209   7.902   8.305   3.618  0.2799 -0.8347 -1.0644
 2026SOL     OW 7210   4.249   7.692   4.322 -0.1265  0.2673 -0.3114
 2026SOL    HW1 7211   4.160   7.722   4.340  0.0309  0.2936  0.4717
 2026SOL    HW2 7212   4.243   7.647   4.237 -1.1530 -0.8461  0.3120
 2027SOL     OW 7213   8.107   8.439   7.549 -0.2459  0.2953 -0.4414
 2027SOL    HW1 7214   8.077   8.519   7.506  0.6007  0.9432  0.1480
 2027SOL    HW2 7215   8.146   8.469   7.631 -0.0650 -0.7425 -0.1321
 2028SOL     OW 7216   6.370   3.903   7.565 -0.0647  0.0046 -0.0182
 2028SOL    HW1 7217   6.369   3.868   7.476 -0.9459 -0.6038  0.2140
 2028SOL    HW2 7218   6.315   3.982   7.561  0.5175  0.4015 -0.1758
 2029SOL     OW 7219   5.437   4.304   4.206  0.3974 -0.0125 -0.4043
 2029SOL    HW1 7220   5.511   4.289   4.147  0.4921  1.6528 -0.7374
 2029SOL    HW2 7221   5.387   4.374   4.165 -0.8257 -0.4207  0.3369
 2030SOL     OW 7222   0.595   4.350   4.412  0.1951  0.1919  0.2436
 2030SOL    HW1 7223   0.515   4.301   4.432 -0.2963  1.1686  0.7413
 2030SOL    HW2 7224   0.647   4.289   4.360 -1.3416 -0.0928 -1.0536
 2031SOL     OW 7225   4.953   5.511   1.587 -0.0958 -0.3165 -0.0156
 2031SOL    HW1 7226   4.882   5.570   1.563 -1.2284 -1.2581  0.9056
 2031SOL    HW2 7227   4.992   5.551   1.664 -0.4594 -0.4422  0.2378
 2032SOL     OW 7228   1.643   5.980   2.950  0.3641 -0.0949  0.1673
 2032SOL    HW1 7229   1.710   5.978   3.019  0.6105 -1.1793 -0.0832
 2032SOL    HW2 7230   1.693   5.992   2.870  0.2977 -1.1791 -0.0501
 2033SOL     OW 7231   6.960   8.874   0.241  0.4043  0.4691 -0.1906
 2033SOL    HW1 7232   6.889   8.870   0.178  0.5788 -2.9072 -0.3547
 2033SOL    HW2 7233   6.919   8.856   0.326  0.6251  1.8077  0.2172
 2034SOL     OW 7234   6.929   1.673   0.617 -0.1156 -0.3274  0.2778
 2034SOL    HW1 7235   6.984   1.662   0.539  0.7725  0.7161  0.7223
 2034SOL    HW2 7236   6.939   1.591   0.666  2.7276  0.5429  1.3464
 2035SOL     OW 7237   7.001   5.425   5.644  0.7436 -0.0713  0.0676
 2035SOL    HW1 7238   6.920   5.465   5.613  0.9803  1.8293  1.6889
 2035SOL    HW2 7239   7.045   5.495   5.692  2.6409 -1.4901  0.4914
 2036SOL     OW 7240   8.983   2.922   6.434  0.2286 -0.6225  0.1715
 2036SOL    HW1 7241   8.908   2.865   6.449 -0.1626 -0.5325 -1.3713
 2036SOL    HW2 7242   8.945   3.009   6.424  0.4139 -0.7187 -1.5957
 2037SOL     OW 7243   3.810   3.541   8.243 -0.4306  0.3101 -0.0121
 2037SOL    HW1 7244   3.756   3.464   8.262 -0.3336  0.1726 -0.2864
 2037SOL    HW2 7245   3.897   3.519   8.278 -0.1998 -0.0254 -0.7954
 2038SOL     OW 7246   2.564   3.132   5.085 -0.1129 -0.1295  0.0044
 2038SOL    HW1 7247   2.577   3.222   5.056  0.2710  0.0278  0.6557
 2038SOL    HW2 7248   2.631   3.081   5.038  0.0304  0.0077  0.0615
 2039SOL     OW 7249   8.885   8.500   4.212  0.1977 -0.3241  0.6436
 2039SOL    HW1 7250   8.853   8.527   4.298 -1.4455  1.7210 -0.5406
 2039SOL    HW2 7251   8.813   8.516   4.152  1.9085  0.1161 -1.4428
 2040SOL     OW 7252   5.741   2.332   4.709  0.3612 -0.7310 -0.8491
 2040SOL    HW1 7253   5.732   2.238   4.692  0.9265 -0.6282 -1.7646
 2040SOL    HW2 7254   5.798   2.337   4.786  0.0781 -1.1394 -0.6051
 2041SOL     OW 7255   7.848   8.953   6.187 -0.0512  0.3621  0.1768
 2041SOL    HW1 7256   7.776   8.959   6.249  0.2882  0.6063  0.5549
 2041SOL    HW2 7257   7.848   9.037   6.141 -0.0696  0.3239  0.1063
 2042SOL     OW 7258   8.619   7.718   2.830 -0.1707 -0.0074 -0.2989
 2042SOL    HW1 7259   8.664   7.651   2.882  0.7091  0.2058 -0.7754
 2042SOL    HW2 7260   8.572   7.669   2.763 -0.0685 -0.1823 -0.2433
 2043SOL     OW 7261   2.599   8.403   4.439 -0.0916 -0.1860 -0.0760
 2043SOL    HW1 7262   2.539   8.354   4.495  1.0879  0.8796  2.2706
 2043SOL    HW2 7263   2.580   8.495   4.458  1.8471  0.1816  0.3519
 2044SOL     OW 7264   6.009   0.174   2.148  0.0799 -0.1937  0.2816
 2044SOL    HW1 7265   5.941   0.136   2.204 -1.0941  1.6242  0.1591
 2044SOL    HW2 7266   5.973   0.168   2.060  0.4664 -0.0015  0.1104
 2045SOL     OW 7267   7.288   2.830   0.015 -0.0129  0.0440  0.0527
 2045SOL    HW1 7268   7.204   2.875   0.018  0.4172  1.2403 -2.5665
 2045SOL    HW2 7269   7.291   2.790  -0.072  0.1852 -4.1548  1.7721
 2046SOL     OW 7270   0.328   3.230   3.592  0.0507  0.0451  0.2886
 2046SOL    HW1 7271   0.246   3.280   3.581 -0.4472 -0.1536  2.6046
 2046SOL    HW2 7272   0.396   3.297   3.595 -0.2390  0.3475  0.2531
 2047SOL     OW 7273   1.841   2.519   1.883 -0.1393  0.0238 -0.7528
 2047SOL    HW1 7274   1.795   2.469   1.950  0.0054 -0.4894 -1.0374
 2047SOL    HW2 7275   1.771   2.555   1.829 -0.2333 -0.0904 -0.7089
 2048SOL     OW 7276   0.173   5.011   2.649 -0.4264 -0.1600 -0.5244
 2048SOL    HW1 7277   0.179   5.073   2.721 -0.8241 -1.0759  0.3205
 2048SOL    HW2 7278   0.173   4.925   2.691 -0.9856 -0.7068 -1.5894
 2049SOL     OW 7279   8.497   2.609   3.848  0.3079 -0.5660  0.8029
 2049SOL    HW1 7280   8.418   2.631   3.799  0.5329 -1.3626  0.0718
 2049SOL    HW2 7281   8.477   2.636   3.938  0.2951  1.9232  0.1239
 2050SOL     OW 7282   0.750   6.033   2.769  0.1578 -0.3259 -0.2892
 2050SOL    HW1 7283   0.769   5.948   2.807  1.5859  0.0641 -0.0712
 2050SOL    HW2 7284   0.822   6.089   2.799 -0.7955  0.9792 -0.3564
 2051SOL     OW 7285   8.569   6.254   0.587  0.2743  0.0889 -0.1496
 2051SOL    HW1 7286   8.612   6.223   0.667 -0.1431 -0.4500 -0.1308
 2051SOL    HW2 7287   8.606   6.342   0.573  1.0105 -0.1633  0.1362
 2052SOL     OW 7288   0.796   5.830   0.213 -0.3962 -0.5124  0.2160
 2052SOL    HW1 7289   0.836   5.898   0.158 -2.4194  1.1887  0.7448
 2052SOL    HW2 7290   0.871   5.787   0.255  1.0730 -0.2071 -1.8952
 2053SOL     OW 7291   0.367   7.484   8.773  0.0837  0.4687  0.3718
 2053SOL    HW1 7292   0.457   7.503   8.800  0.4942  0.5277 -0.9552
 2053SOL    HW2 7293   0.313   7.540   8.829  0.8645  0.4869  1.1371
 2054SOL     OW 7294   8.012   8.903   2.559 -0.1388  0.6723 -0.9937
 2054SOL    HW1 7295   8.067   8.939   2.490  1.2976 -1.5681 -1.1053
 2054SOL    HW2 7296   7.930   8.880   2.515  0.2518  0.5420 -1.6732
 2055SOL     OW 7297   6.042   2.225   6.784 -0.2661  0.7358 -0.1437
 2055SOL    HW1 7298   5.988   2.177   6.846  0.3479 -0.1009 -0.2415
 2055SOL    HW2 7299   6.020   2.187   6.699  0.5181  0.3294 -0.1764
 2056SOL     OW 7300   0.274   0.859   4.550 -0.0892  0.0198  0.2348
 2056SOL    HW1 7301   0.325   0.809   4.487  0.1197  1.5384 -0.8481
 2056SOL    HW2 7302   0.197   0.888   4.502 -1.0374 -0.5979  1.3102
 2057SOL     OW 7303   4.841   8.102   0.811  0.0578  0.1570 -0.1090
 2057SOL    HW1 7304   4.882   8.131   0.729 -1.7176  0.9283 -0.7709
 2057SOL    HW2 7305   4.879   8.158   0.878  1.2650 -0.2345 -0.4415
 2058SOL     OW 7306   1.664   3.269   0.009 -0.2904  0.4392  0.2092
 2058SOL    HW1 7307   1.708   3.275   0.093  0.7532 -0.7775 -0.2154
 2058SOL    HW2 7308   1.690   3.348  -0.038  0.4506  0.3334  0.4324
 2059SOL     OW 7309   1.467   0.586   8.111 -0.2183  0.5399 -0.3752
 2059SOL    HW1 7310   1.441   0.547   8.194  1.5894 -0.2758 -0.1547
 2059SOL    HW2 7311   1.384   0.605   8.067 -1.2299  1.6281  1.8585
 2060SOL     OW 7312   5.386   0.102   6.670  0.4788 -0.1362 -0.1130
 2060SOL    HW1 7313   5.392   0.008   6.658 -0.3434 -0.0786 -1.1693
 2060SOL    HW2 7314   5.335   0.114   6.750  0.0643 -0.5990 -0.3050
 2061SOL     OW 7315   6.204   0.248   1.574  0.0184  0.0010  0.3260
 2061SOL    HW1 7316   6.192   0.249   1.669  0.8786  0.9194  0.4347
 2061SOL    HW2 7317   6.279   0.191   1.559  0.5228  0.6642  0.2869
 2062SOL     OW 7318   1.610   7.396   1.840 -0.0572 -0.2284 -0.2944
 2062SOL    HW1 7319   1.660   7.315   1.838  3.9111  1.9202 -3.7854
 2062SOL    HW2 7320   1.535   7.380   1.782  0.4583 -1.4875 -0.6374
 2063SOL     OW 7321   2.051   0.063   6.495  0.5022  0.0139  0.0269
 2063SOL    HW1 7322   2.117   0.001   6.523  0.1973  0.3447  1.5476
 2063SOL    HW2 7323   2.002   0.085   6.575 -2.2484 -1.1412 -1.2055
 2064SOL     OW 7324   8.288   3.757   0.606 -0.1190 -0.1409 -0.0733
 2064SOL    HW1 7325   8.289   3.790   0.695  1.0065 -0.3101 -0.0062
 2064SOL    HW2 7326   8.358   3.805   0.562 -1.9867  1.4887 -1.4733
 2065SOL     OW 7327   3.807   9.081   1.190  0.2193 -0.2612  0.3069
 2065SOL    HW1 7328   3.846   9.168   1.191 -0.4192  0.0518 -0.7069
 2065SOL    HW2 7329   3.809   9.055   1.098  1.2721 -1.7372  0.7197
 2066SOL     OW 7330   4.657   5.956   2.699 -0.0538 -0.0391 -0.0471
 2066SOL    HW1 7331   4.616   6.004   2.771 -0.5719 -1.6474  0.7844
 2066SOL    HW2 7332   4.615   5.870   2.701  2.4245 -1.3285 -0.0106
 2067SOL     OW 7333   3.144   0.813   2.868  0.3197  0.0852 -0.0935
 2067SOL    HW1 7334   3.144   0.741   2.931  1.6766  0.9433  0.9555
 2067SOL    HW2 7335   3.218   0.795   2.811  1.0752  0.9409  0.5788
 2068SOL     OW 7336   6.826   0.437   4.126  0.3290  0.0765 -0.2715
 2068SOL    HW1 7337   6.813   0.493   4.049  0.2887 -1.5417 -1.5110
 2068SOL    HW2 7338   6.890   0.484   4.179 -1.0328  2.1306 -0.3491
 2069SOL     OW 7339   2.345   3.447   0.411 -0.2759 -0.4155  0.9019
 2069SOL    HW1 7340   2.417   3.453   0.474  0.3850  0.9180  0.0631
 2069SOL    HW2 7341   2.359   3.365   0.365  0.9182 -0.0305  0.5340
 2070SOL     OW 7342   4.591   7.316   5.606  0.0589  0.4825  0.2909
 2070SOL    HW1 7343   4.656   7.367   5.557  0.1013  0.3404  0.1939
 2070SOL    HW2 7344   4.588   7.356   5.692 -0.3559  1.0267  0.0252
 2071SOL     OW 7345   7.705   3.947   8.177  0.0042  0.0783  0.1526
 2071SOL    HW1 7346   7.627   3.972   8.128 -0.4655 -0.8552  0.4093
 2071SOL    HW2 7347   7.751   4.030   8.192 -0.6129  0.5583 -0.5421
 2072SOL     OW 7348   8.279   0.501   2.464 -0.2173  0.0995  0.0856
 2072SOL    HW1 7349   8.326   0.500   2.547  0.0945  2.2621 -0.0144
 2072SOL    HW2 7350   8.301   0.417   2.423 -0.6877 -1.1698  2.3140
 2073SOL     OW 7351   2.111   6.060   0.493  0.0887 -0.1163  0.6084
 2073SOL    HW1 7352   2.133   5.989   0.554 -0.7671  0.3239  1.4561
 2073SOL    HW2 7353   2.049   6.115   0.541 -0.7064  0.1853 -0.7051
 2074SOL     OW 7354   5.508   8.420   6.802 -0.4910  0.5486  0.0740
 2074SOL    HW1 7355   5.554   8.478   6.863 -1.0906  1.1455 -0.0346
 2074SOL    HW2 7356   5.521   8.333   6.839  1.7088  0.5328 -0.5598
 2075SOL     OW 7357   6.758   2.927   4.969 -0.3350 -0.1109  0.0497
 2075SOL    HW1 7358   6.779   2.916   5.061 -0.0816 -2.4151 -0.2237
 2075SOL    HW2 7359   6.838   2.963   4.931  0.0018 -0.3318  0.5373
 2076SOL     OW 7360   8.077   6.116   6.388 -0.2853 -0.3775  0.4222
 2076SOL    HW1 7361   8.146   6.168   6.346 -0.3978  0.0725  0.7886
 2076SOL    HW2 7362   8.038   6.066   6.316 -0.9716  0.9407 -0.1542
 2077SOL     OW 7363   2.983   8.773   5.580 -0.3338 -0.2807  0.2493
 2077SOL    HW1 7364   2.955   8.815   5.499  0.9905  2.1368  0.9413
 2077SOL    HW2 7365   2.953   8.832   5.649 -0.7636 -1.8905  1.4954
 2078SOL     OW 7366   0.551   3.639   7.814 -0.0682  0.2537  0.5161
 2078SOL    HW1 7367   0.609   3.604   7.746 -1.2771 -0.9147  0.0489
 2078SOL    HW2 7368   0.527   3.562   7.866 -2.2013  0.4694 -0.0828
 2079SOL     OW 7369   6.785   1.008   5.041  0.3342 -0.0238 -0.1387
 2079SOL    HW1 7370   6.843   1.055   5.100  0.8618  1.0969 -1.4941
 2079SOL    HW2 7371   6.699   1.046   5.055  0.7010  1.1715 -1.0007
 2080SOL     OW 7372   8.088   3.312   7.783 -0.4237  0.0918  0.1137
 2080SOL    HW1 7373   8.091   3.365   7.703  0.5600  0.5422  0.4319
 2080SOL    HW2 7374   8.031   3.361   7.842  0.4695  0.8198  0.4028
 2081SOL     OW 7375   4.625   4.275   8.257 -0.4390  0.1631 -0.0308
 2081SOL    HW1 7376   4.671   4.217   8.197  0.5299  1.0612 -0.1991
 2081SOL    HW2 7377   4.551   4.224   8.290  0.3195 -1.1053 -0.2555
 2082SOL     OW 7378   0.088   1.024   7.621 -0.2638  0.2123  0.1138
 2082SOL    HW1 7379   0.173   0.990   7.647 -0.3860  1.0272  1.6840
 2082SOL    HW2 7380   0.092   1.028   7.525  1.1316 -0.5609  0.1166
 2083SOL     OW 7381   5.168   1.479   8.197  0.5384  0.5923 -0.8117
 2083SOL    HW1 7382   5.185   1.453   8.287  0.2048  0.1956 -0.8565
 2083SOL    HW2 7383   5.091   1.536   8.203 -0.9649 -1.3214 -1.0678
 2084SOL     OW 7384   8.311   4.130   5.657  0.3178  0.4632  0.0903
 2084SOL    HW1 7385   8.217   4.110   5.662  0.2014 -0.0764 -2.6370
 2084SOL    HW2 7386   8.353   4.051   5.691 -0.2539 -0.9987 -2.3673
 2085SOL     OW 7387   4.357   4.619   1.071  0.2336  0.0107 -0.0624
 2085SOL    HW1 7388   4.335   4.618   1.165 -3.0088 -0.9239 -0.6882
 2085SOL    HW2 7389   4.384   4.530   1.051  0.3332  0.0575 -0.1363
 2086SOL     OW 7390   4.010   8.927   2.772 -0.3573  0.5291 -0.5606
 2086SOL    HW1 7391   3.987   8.842   2.808 -1.3568  0.7694 -0.6160
 2086SOL    HW2 7392   3.927   8.973   2.763 -0.1140  0.6304 -2.7748
 2087SOL     OW 7393   8.239   7.064   7.313 -0.2780 -0.3350  0.3992
 2087SOL    HW1 7394   8.160   7.098   7.355 -0.0835 -1.3092  1.6086
 2087SOL    HW2 7395   8.206   7.018   7.236 -0.6375  1.4970 -0.5917
 2088SOL     OW 7396   4.577   2.733   7.934 -0.4786  0.1612  0.2944
 2088SOL    HW1 7397   4.532   2.779   7.863 -1.1004 -0.7283  0.0907
 2088SOL    HW2 7398   4.546   2.643   7.927  1.2446 -0.4630  0.2366
 2089SOL     OW 7399   2.875   5.422   5.579  0.4655  0.0785  0.5164
 2089SOL    HW1 7400   2.959   5.467   5.592  0.4400 -0.2265  1.8654
 2089SOL    HW2 7401   2.899   5.338   5.540  0.6460  0.5955 -0.5155
 2090SOL     OW 7402   1.147   2.493   7.865 -0.9913 -0.1880 -0.2686
 2090SOL    HW1 7403   1.167   2.544   7.944 -1.6554  1.7193 -1.2695
 2090SOL    HW2 7404   1.233   2.471   7.828 -0.6921 -0.1295  0.3780
 2091SOL     OW 7405   1.240   1.889   0.795 -0.0900  0.3551  0.2193
 2091SOL    HW1 7406   1.325   1.927   0.773  0.4112 -0.7997  0.0868
 2091SOL    HW2 7407   1.187   1.963   0.825  0.7007  1.2195 -0.4669
 2092SOL     OW 7408   3.133   8.401   4.219  0.1046 -0.1146 -0.2158
 2092SOL    HW1 7409   3.061   8.438   4.169  1.4063  2.1478 -0.5248
 2092SOL    HW2 7410   3.145   8.461   4.293  2.7567  0.6232 -1.1189
 2093SOL     OW 7411   1.623   1.139   2.902  0.0445 -0.3318  0.6285
 2093SOL    HW1 7412   1.663   1.058   2.871 -1.0299 -0.1867 -1.2538
 2093SOL    HW2 7413   1.533   1.115   2.923 -0.2685  0.3462  0.1085
 2094SOL     OW 7414   6.428   8.276   3.579 -0.0791  0.0891  0.2588
 2094SOL    HW1 7415   6.495   8.342   3.595  1.7735 -1.2402 -1.4920
 2094SOL    HW2 7416   6.442   8.249   3.488 -0.8425 -2.5984  0.8537
 2095SOL     OW 7417   8.611   8.848   1.434  0.3124 -0.3741  0.0825
 2095SOL    HW1 7418   8.527   8.864   1.391  0.3230 -0.5153  0.0085
 2095SOL    HW2 7419   8.667   8.814   1.365 -0.1861 -2.3147  0.5784
 2096SOL     OW 7420   0.281   8.173   6.087  0.4966  0.5724  0.1003
 2096SOL    HW1 7421   0.275   8.079   6.068 -3.6428  0.3523  1.3823
 2096SOL    HW2 7422   0.246   8.215   6.008  3.7946  1.3293 -1.1294
 2097SOL     OW 7423   2.355   2.522   4.690 -0.4552  0.0537  0.2021
 2097SOL    HW1 7424   2.365   2.615   4.668  1.3401 -0.5186 -1.6335
 2097SOL    HW2 7425   2.425   2.505   4.753 -3.1305  0.7194  3.7641
 2098SOL     OW 7426   3.824   8.688   4.085  0.3527  0.4981 -0.3283
 2098SOL    HW1 7427   3.848   8.679   4.177 -0.8726 -1.5646 -0.1466
 2098SOL    HW2 7428   3.907   8.691   4.038  0.9841  0.6778  0.7794
 2099SOL     OW 7429   3.390   2.306   5.002  0.0061 -0.3530  0.2471
 2099SOL    HW1 7430   3.352   2.281   4.918  1.4251 -0.6248 -0.3575
 2099SOL    HW2 7431   3.368   2.235   5.061 -2.3170  0.5451  0.5719
 2100SOL     OW 7432   0.524   7.729   5.385 -0.0085  0.2532 -0.0809
 2100SOL    HW1 7433   0.481   7.813   5.401  1.9273  1.2219  0.2651
 2100SOL    HW2 7434   0.545   7.696   5.472  1.7113  0.7732 -0.2708
 2101SOL     OW 7435   0.593   6.106   1.006 -0.0323 -0.0341  0.0159
 2101SOL    HW1 7436   0.619   6.079   0.918 -0.7045  1.0607 -0.5446
 2101SOL    HW2 7437   0.669   6.152   1.041 -0.9327  2.8360 -1.4731
 2102SOL     OW 7438   5.352   6.316   2.398  0.0701 -0.2951  0.2300
 2102SOL    HW1 7439   5.291   6.243   2.388  1.0881 -0.9756 -1.3265
 2102SOL    HW2 7440   5.433   6.285   2.359 -0.1658  2.5247 -2.9673
 2103SOL     OW 7441   1.211   3.103   4.448  0.4216 -0.3991 -0.1155
 2103SOL    HW1 7442   1.229   3.017   4.412 -1.4387 -0.7142 -0.3869
 2103SOL    HW2 7443   1.118   3.118   4.429  0.2264  0.8416  1.6205
 2104SOL     OW 7444   6.680   3.866   0.686  0.0262  0.4826  0.1830
 2104SOL    HW1 7445   6.707   3.925   0.757 -1.0220  1.9497 -0.5861
 2104SOL    HW2 7446   6.710   3.910   0.607  1.7494 -1.4508 -0.2976
 2105SOL     OW 7447   4.941   8.087   5.966 -0.3225 -0.6569  0.3725
 2105SOL    HW1 7448   5.001   8.119   6.033  0.2642  1.0850 -0.9204
 2105SOL    HW2 7449   4.854   8.094   6.006 -0.0055  0.5674  0.8940
 2106SOL     OW 7450   5.213   0.279   0.122 -0.0712 -0.2412  0.3356
 2106SOL    HW1 7451   5.242   0.261   0.033  0.1214 -0.4533  0.4414
 2106SOL    HW2 7452   5.187   0.371   0.120  0.6998 -0.0189  0.2594
 2107SOL     OW 7453   3.258   6.806   4.603  0.2331  0.6020 -0.2744
 2107SOL    HW1 7454   3.213   6.862   4.541  0.8885  2.5408  0.9210
 2107SOL    HW2 7455   3.207   6.812   4.683  1.0029  0.4851  0.2368
 2108SOL     OW 7456   5.842   2.660   3.073  0.2456  0.7919  0.5703
 2108SOL    HW1 7457   5.928   2.670   3.031 -1.2874  3.5896 -2.3377
 2108SOL    HW2 7458   5.840   2.728   3.140  0.0708  1.1729  0.1807
 2109SOL     OW 7459   1.307   7.307   8.338 -0.3944 -0.1352 -0.8453
 2109SOL    HW1 7460   1.227   7.265   8.370 -0.0720 -1.9347 -2.2144
 2109SOL    HW2 7461   1.367   7.234   8.323  1.9316  1.2513  1.1291
 2110SOL     OW 7462   6.427   8.696   3.428  0.2846 -0.3451 -0.2035
 2110SOL    HW1 7463   6.423   8.757   3.502 -1.6758  0.6141 -1.0338
 2110SOL    HW2 7464   6.485   8.738   3.365  1.7761 -1.0576  0.6422
 2111SOL     OW 7465   6.139   1.580   4.195 -0.0508  0.7250  0.3017
 2111SOL    HW1 7466   6.170   1.494   4.167 -2.7467 -0.0351 -0.6187
 2111SOL    HW2 7467   6.129   1.630   4.113  0.9814  1.7613  0.7815
 2112SOL     OW 7468   6.387   0.953   8.550 -0.7326 -0.3927 -0.5863
 2112SOL    HW1 7469   6.351   1.037   8.521 -3.4444 -0.6498  1.6258
 2112SOL    HW2 7470   6.476   0.974   8.578 -1.1878  1.6469 -0.5091
 2113SOL     OW 7471   7.132   2.945   1.058 -0.1845 -0.4935  0.2674
 2113SOL    HW1 7472   7.182   2.863   1.055 -2.9115 -2.3042  0.3095
 2113SOL    HW2 7473   7.085   2.941   1.142 -0.0782  1.3593  0.4650
 2114SOL     OW 7474   3.342   6.638   5.395 -0.3385 -0.2480  0.2780
 2114SOL    HW1 7475   3.361   6.666   5.306 -0.1996  0.9409  0.6672
 2114SOL    HW2 7476   3.246   6.638   5.400 -0.3892 -1.4316 -0.1904
 2115SOL     OW 7477   7.692   7.625   8.339  0.2173  0.4202 -0.6048
 2115SOL    HW1 7478   7.768   7.585   8.296 -0.4103 -0.0294 -1.3136
 2115SOL    HW2 7479   7.730   7.686   8.403  1.1755 -0.2967 -0.4722
 2116SOL     OW 7480   7.660   3.782   6.500  0.2879 -0.1813  0.4498
 2116SOL    HW1 7481   7.693   3.866   6.531 -1.6535  0.4548  0.9228
 2116SOL    HW2 7482   7.651   3.729   6.579 -1.3172  0.2241  0.5673
 2117SOL     OW 7483   0.983   7.102   3.149 -0.0849 -0.0083 -0.6706
 2117SOL    HW1 7484   0.938   7.088   3.232 -0.5181  0.7725 -0.7606
 2117SOL    HW2 7485   0.981   7.197   3.136  1.3531  0.0221 -0.8284
 2118SOL     OW 7486   0.055   0.265   8.030  0.5652  0.2080 -0.5200
 2118SOL    HW1 7487  -0.019   0.303   8.076  0.6434  2.3139 -1.9879
 2118SOL    HW2 7488   0.020   0.188   7.986 -0.3710  0.3063  0.0404
 2119SOL     OW 7489   3.820   3.384   0.399  0.3683 -0.4576  0.1089
 2119SOL    HW1 7490   3.766   3.462   0.383  0.2830 -0.7935 -1.3871
 2119SOL    HW2 7491   3.897   3.396   0.343  1.3139 -0.5378  1.3455
 2120SOL     OW 7492   8.089   5.308   6.249  0.0715 -0.2416 -0.1275
 2120SOL    HW1 7493   8.056   5.388   6.290 -0.5811 -0.4535 -0.2263
 2120SOL    HW2 7494   8.034   5.297   6.171  0.7367 -0.3102 -0.5900
 2121SOL     OW 7495   0.273   3.826   6.920 -0.4048  0.2672 -0.2341
 2121SOL    HW1 7496   0.321   3.906   6.944  0.8479 -0.9802  1.8024
 2121SOL    HW2 7497   0.281   3.770   6.998  0.5466 -2.6568 -2.2553
 2122SOL     OW 7498   5.735   0.345   1.937  0.2380 -0.0703 -0.2771
 2122SOL    HW1 7499   5.818   0.299   1.928  0.9169  0.2792  2.7929
 2122SOL    HW2 7500   5.747   0.427   1.890  0.6782 -1.0626 -1.9631
 2123SOL     OW 7501   4.224   0.580   1.540  0.4088 -0.7541 -0.6239
 2123SOL    HW1 7502   4.295   0.528   1.503 -0.3899 -1.9319 -0.5627
 2123SOL    HW2 7503   4.250   0.595   1.631  0.2961 -1.7266 -0.4245
 2124SOL     OW 7504   8.745   4.584   4.224 -0.4895  0.0403 -0.1830
 2124SOL    HW1 7505   8.678   4.572   4.157  0.2803 -0.4670 -0.8889
 2124SOL    HW2 7506   8.806   4.511   4.210 -0.4800 -0.2654  1.2788
 2125SOL     OW 7507   7.220   1.279   5.292 -0.2177  0.5573 -0.1408
 2125SOL    HW1 7508   7.280   1.259   5.364 -1.7116 -0.8311  0.8124
 2125SOL    HW2 7509   7.243   1.216   5.224  0.3537  0.9938 -0.3467
 2126SOL     OW 7510   1.310   3.888   1.807 -0.9008 -0.3562  0.6252
 2126SOL    HW1 7511   1.237   3.855   1.860 -0.6543 -0.0879  1.1371
 2126SOL    HW2 7512   1.316   3.981   1.830  0.8152 -0.7590  2.0502
 2127SOL     OW 7513   4.794   0.363   7.312 -0.2143 -0.2440 -0.0693
 2127SOL    HW1 7514   4.806   0.441   7.257 -1.3012  0.1305  0.2098
 2127SOL    HW2 7515   4.805   0.394   7.401  0.6825 -0.6864 -0.0128
 2128SOL     OW 7516   8.020   7.409   2.643  0.3316 -0.2192  0.6441
 2128SOL    HW1 7517   8.101   7.368   2.614  0.6419 -0.1806  1.4273
 2128SOL    HW2 7518   7.970   7.425   2.563 -0.1054 -2.7492  0.3251
 2129SOL     OW 7519   8.634   6.912   7.715 -0.6055  0.6595  0.3576
 2129SOL    HW1 7520   8.653   6.929   7.623  2.2116 -1.4152  0.4164
 2129SOL    HW2 7521   8.624   6.817   7.721 -0.0560  0.6679  2.2479
 2130SOL     OW 7522   3.744   4.895   4.415  0.2673  0.2395  0.2920
 2130SOL    HW1 7523   3.749   4.987   4.390 -0.1385  0.0126 -0.6919
 2130SOL    HW2 7524   3.798   4.888   4.494  1.6571  1.0052 -0.5460
 2131SOL     OW 7525   7.175   8.624   0.873  0.1838  0.3386  0.2828
 2131SOL    HW1 7526   7.192   8.648   0.782  0.0258  2.5181  0.7651
 2131SOL    HW2 7527   7.261   8.618   0.913  0.2222  0.3772  0.2061
 2132SOL     OW 7528   6.569   3.043   8.182 -0.3323  0.2571  0.2466
 2132SOL    HW1 7529   6.616   3.016   8.103  0.9590  1.9339  0.4025
 2132SOL    HW2 7530   6.531   2.961   8.216  0.7109 -0.8017 -1.0361
 2133SOL     OW 7531   8.295   6.335   4.818 -0.1281  0.3598  0.2089
 2133SOL    HW1 7532   8.267   6.345   4.727 -1.2512 -1.7182  0.2611
 2133SOL    HW2 7533   8.390   6.321   4.813 -0.3704 -1.2381 -0.8349
 2134SOL     OW 7534   3.471   8.415   2.855 -0.1751 -0.1885 -0.1781
 2134SOL    HW1 7535   3.435   8.417   2.767 -0.0367  0.4675 -0.2228
 2134SOL    HW2 7536   3.421   8.480   2.904  0.7590  0.5443 -0.1720
 2135SOL     OW 7537   1.113   0.155   0.919  0.1887 -0.6357 -0.0100
 2135SOL    HW1 7538   1.177   0.166   0.849 -0.4353  0.2672 -0.4713
 2135SOL    HW2 7539   1.163   0.123   0.993  0.9753 -0.9968 -0.6836
 2136SOL     OW 7540   6.635   6.630   6.320 -0.2936 -0.2480  0.3070
 2136SOL    HW1 7541   6.626   6.668   6.232 -0.5620 -0.2070  0.3503
 2136SOL    HW2 7542   6.648   6.537   6.305 -3.1203 -0.7314  0.2726
 2137SOL     OW 7543   2.264   7.764   6.695 -0.2681 -0.1456  0.0940
 2137SOL    HW1 7544   2.222   7.831   6.750  0.5816  1.0771 -0.6778
 2137SOL    HW2 7545   2.217   7.771   6.612 -2.5283 -2.9781  0.9889
 2138SOL     OW 7546   1.227   5.258   1.389  0.4519 -0.0533 -0.7098
 2138SOL    HW1 7547   1.320   5.272   1.376  1.0288 -1.2243  1.5102
 2138SOL    HW2 7548   1.197   5.214   1.309  1.4229  1.6486 -2.0647
 2139SOL     OW 7549   8.793   4.247   8.214 -0.2098 -0.3556 -0.3140
 2139SOL    HW1 7550   8.707   4.288   8.198 -0.2861 -0.3218  0.1645
 2139SOL    HW2 7551   8.808   4.260   8.308  1.0858  1.1122 -0.6947
 2140SOL     OW 7552   0.570   4.803   6.859  0.2353  0.4975  0.1761
 2140SOL    HW1 7553   0.642   4.745   6.834  1.5699  1.6961  1.0506
 2140SOL    HW2 7554   0.543   4.845   6.778  0.4111 -0.0923 -0.1893
 2141SOL     OW 7555   0.313   6.384   6.387  0.2189  0.6747  0.4339
 2141SOL    HW1 7556   0.232   6.374   6.437  1.0759 -2.2126  1.4228
 2141SOL    HW2 7557   0.283   6.400   6.297 -1.4163  0.7039  0.9412
 2142SOL     OW 7558   7.141   7.241   0.412  0.1896  0.0722 -0.5700
 2142SOL    HW1 7559   7.137   7.206   0.323 -1.1374  0.4702 -0.6885
 2142SOL    HW2 7560   7.061   7.209   0.454  0.4752  0.4314  0.2783
 2143SOL     OW 7561   3.834   3.713   0.918  0.4504  0.1859 -0.2879
 2143SOL    HW1 7562   3.740   3.721   0.937  0.1231  1.5252 -2.1768
 2143SOL    HW2 7563   3.840   3.639   0.858  0.5098  0.4314 -0.5896
 2144SOL     OW 7564   1.584   4.991   0.772 -0.5459 -0.3619  0.2266
 2144SOL    HW1 7565   1.670   4.991   0.815 -0.8449 -0.2257  0.8444
 2144SOL    HW2 7566   1.564   5.083   0.756 -0.3762 -0.4198 -0.3421
 2145SOL     OW 7567   0.702   2.754   4.010 -0.5195 -0.0532  0.1777
 2145SOL    HW1 7568   0.617   2.793   3.995  0.7563  2.3912 -1.3103
 2145SOL    HW2 7569   0.725   2.712   3.927  0.2549  0.4492  0.1265
 2146SOL     OW 7570   1.455   5.615   4.901  0.2576  0.5670 -0.1010
 2146SOL    HW1 7571   1.404   5.660   4.969 -1.3684 -2.4838  0.8822
 2146SOL    HW2 7572   1.544   5.610   4.937  0.0987  1.5375  0.4663
 2147SOL     OW 7573   5.806   2.489   8.230  0.8124 -0.1580  0.7576
 2147SOL    HW1 7574   5.764   2.418   8.183  0.5526  0.0549  0.6664
 2147SOL    HW2 7575   5.833   2.550   8.161  1.5834 -0.4569  0.7843
 2148SOL     OW 7576   7.025   2.867   5.781 -0.1470  0.1434 -0.1165
 2148SOL    HW1 7577   7.093   2.806   5.809 -0.8135 -0.2507  0.6954
 2148SOL    HW2 7578   7.039   2.878   5.687  0.9686 -0.0105  0.0255
 2149SOL     OW 7579   1.853   8.353   7.114  0.3690  0.2922  0.0401
 2149SOL    HW1 7580   1.916   8.407   7.162 -0.0379  0.4613  0.3979
 2149SOL    HW2 7581   1.889   8.264   7.118 -0.0633  0.1455  1.4160
 2150SOL     OW 7582   0.899   5.116   1.621  0.7843  0.4739 -0.0261
 2150SOL    HW1 7583   0.961   5.045   1.600  0.2512  0.3489 -1.2514
 2150SOL    HW2 7584   0.818   5.071   1.646  0.5883  0.6488 -0.3427
 2151SOL     OW 7585   8.529   0.832   8.142 -0.5395  0.3624 -0.1026
 2151SOL    HW1 7586   8.569   0.834   8.055  0.3311  0.8351  0.3097
 2151SOL    HW2 7587   8.572   0.759   8.187 -0.5247  0.5353  0.1630
 2152SOL     OW 7588   1.732   8.674   0.080 -0.0111  0.4577  0.1820
 2152SOL    HW1 7589   1.692   8.594   0.046 -0.1727  1.2620 -1.6566
 2152SOL    HW2 7590   1.815   8.646   0.118 -0.3921 -0.6750  0.2014
 2153SOL     OW 7591   3.060   0.891   1.178 -0.0220  0.4117 -0.2036
 2153SOL    HW1 7592   3.067   0.813   1.234  1.1497  0.0134 -0.8634
 2153SOL    HW2 7593   3.150   0.910   1.152 -0.5943 -0.0631 -2.8097
 2154SOL     OW 7594   6.365   0.449   0.954 -0.4173 -0.5377 -0.2824
 2154SOL    HW1 7595   6.438   0.491   1.000 -0.1603  0.2602 -1.3724
 2154SOL    HW2 7596   6.394   0.359   0.941  0.6829 -0.0628 -1.2899
 2155SOL     OW 7597   2.765   1.813   2.571 -0.1009  0.3251 -0.2725
 2155SOL    HW1 7598   2.705   1.829   2.498  1.1264 -0.0197 -1.4180
 2155SOL    HW2 7599   2.806   1.729   2.549  0.2847  0.2146  0.8327
 2156SOL     OW 7600   2.496   6.973   0.798  0.2823 -0.5344 -0.1314
 2156SOL    HW1 7601   2.495   6.906   0.866  0.9431  1.2031  1.6730
 2156SOL    HW2 7602   2.535   7.049   0.840 -1.5419  1.3936 -1.7261
 2157SOL     OW 7603   0.670   3.534   8.262 -0.1182  0.9380 -0.9122
 2157SOL    HW1 7604   0.622   3.617   8.263 -1.6217  0.0932 -0.4958
 2157SOL    HW2 7605   0.754   3.555   8.304 -1.7228  1.5584  2.2867
 2158SOL     OW 7606   3.150   1.507   7.535 -0.1095 -0.0980  0.2225
 2158SOL    HW1 7607   3.076   1.470   7.486 -0.8761 -1.7251  2.4062
 2158SOL    HW2 7608   3.225   1.453   7.509  0.1758  1.0038 -1.3569
 2159SOL     OW 7609   6.905   2.171   7.885 -0.2441  0.2091 -0.2167
 2159SOL    HW1 7610   6.877   2.181   7.794 -2.9767  0.6179  0.6009
 2159SOL    HW2 7611   6.956   2.250   7.904 -1.2578  1.0287 -0.8579
 2160SOL     OW 7612   2.933   4.540   6.442 -0.2471 -0.4402 -0.0255
 2160SOL    HW1 7613   3.017   4.560   6.401 -0.9515 -0.3258 -1.4651
 2160SOL    HW2 7614   2.884   4.622   6.435 -0.3348 -0.3662  1.2305
 2161SOL     OW 7615   3.735   0.883   0.930 -0.0414 -0.1394 -0.0271
 2161SOL    HW1 7616   3.678   0.860   0.857  1.4699 -0.6035 -1.1106
 2161SOL    HW2 7617   3.790   0.805   0.944  0.0099  0.1055  1.3059
 2162SOL     OW 7618   6.245   0.030   0.304  0.3882 -0.3623  0.4190
 2162SOL    HW1 7619   6.203   0.110   0.272  0.6821 -0.0446  0.8032
 2162SOL    HW2 7620   6.305   0.004   0.235  0.5174 -0.0722  0.4214
 2163SOL     OW 7621   3.300   4.836   9.047  0.2227 -0.4677 -0.1041
 2163SOL    HW1 7622   3.317   4.886   8.967  0.9239  0.7842  0.7868
 2163SOL    HW2 7623   3.224   4.782   9.025 -1.9954  2.5575 -0.5207
 2164SOL     OW 7624   0.026   3.788   1.406  0.0313 -0.3199  0.1922
 2164SOL    HW1 7625   0.044   3.829   1.491 -0.4761 -0.8203  0.5470
 2164SOL    HW2 7626  -0.068   3.773   1.406  0.0044 -0.1647 -0.5368
 2165SOL     OW 7627   4.623   5.882   2.393  0.6946  0.3186  0.4674
 2165SOL    HW1 7628   4.598   5.968   2.359  1.9952  1.0492  1.2711
 2165SOL    HW2 7629   4.587   5.880   2.482 -0.2386 -0.4177  0.0889
 2166SOL     OW 7630   1.608   0.857   5.478  0.3453 -0.4632 -0.1543
 2166SOL    HW1 7631   1.625   0.772   5.436  1.8875 -0.3920  0.2873
 2166SOL    HW2 7632   1.596   0.836   5.570  1.8374 -0.1189  0.1460
 2167SOL     OW 7633   4.207   5.950   7.762  0.4589 -0.0537 -0.2827
 2167SOL    HW1 7634   4.171   6.032   7.796  1.2401  0.1844 -0.0147
 2167SOL    HW2 7635   4.130   5.894   7.750  0.0235  0.3424  0.5463
 2168SOL     OW 7636   2.208   9.036   3.106 -0.0342 -0.3563 -0.6747
 2168SOL    HW1 7637   2.170   8.968   3.051  0.4097 -2.0986  1.0636
 2168SOL    HW2 7638   2.302   9.031   3.090 -0.1207  0.9605 -1.7122
 2169SOL     OW 7639   5.279   8.990   7.674  0.2518  0.4255 -0.3968
 2169SOL    HW1 7640   5.306   9.045   7.748 -1.0354  0.6708 -0.0803
 2169SOL    HW2 7641   5.349   9.000   7.609 -0.0251  2.6209 -0.4255
 2170SOL     OW 7642   6.123   8.256   5.778  0.3637  0.3938 -0.2075
 2170SOL    HW1 7643   6.175   8.237   5.856 -2.4717 -1.3619  1.4245
 2170SOL    HW2 7644   6.082   8.341   5.797 -0.3599 -0.0532  0.2741
 2171SOL     OW 7645   4.931   1.623   2.768  0.4619  0.3140 -0.4697
 2171SOL    HW1 7646   4.944   1.529   2.764  2.4517  0.5754 -1.7978
 2171SOL    HW2 7647   4.841   1.637   2.739 -0.7254 -1.2750  2.0854
 2172SOL     OW 7648   3.444   1.014   2.927  0.2959 -0.3729 -0.0432
 2172SOL    HW1 7649   3.384   1.086   2.949  0.6666  0.1500 -0.6842
 2172SOL    HW2 7650   3.394   0.957   2.870 -0.1895 -0.9519  0.9265
 2173SOL     OW 7651   8.628   5.077   5.001  0.1000  0.0135 -0.1826
 2173SOL    HW1 7652   8.685   5.145   4.966  0.2611 -0.2218 -0.3784
 2173SOL    HW2 7653   8.582   5.119   5.074  1.1698 -0.0494  0.5416
 2174SOL     OW 7654   5.722   0.255   7.039 -0.1878  0.0870  0.0305
 2174SOL    HW1 7655   5.711   0.350   7.037 -2.0448 -0.0936 -0.4212
 2174SOL    HW2 7656   5.728   0.234   7.133 -0.2788  0.6016  0.1554
 2175SOL     OW 7657   5.440   7.558   4.945 -0.6709  0.8186 -1.0261
 2175SOL    HW1 7658   5.524   7.598   4.925 -0.2209  1.0632  1.1009
 2175SOL    HW2 7659   5.388   7.629   4.982  0.0451 -0.3356  2.5601
 2176SOL     OW 7660   4.308   4.113   4.894 -0.2704 -0.4551 -0.3394
 2176SOL    HW1 7661   4.329   4.206   4.908  0.1419 -0.4175 -1.0982
 2176SOL    HW2 7662   4.248   4.114   4.820 -1.9781 -0.6663  0.9923
 2177SOL     OW 7663   1.608   8.212   7.725  0.2681  0.2196  0.4728
 2177SOL    HW1 7664   1.537   8.245   7.779 -0.2619  1.5351 -0.9635
 2177SOL    HW2 7665   1.601   8.116   7.732 -1.4898  0.3255  0.5538
 2178SOL     OW 7666   8.515   1.833   0.630  0.2347  0.0646  0.3371
 2178SOL    HW1 7667   8.583   1.838   0.697  0.7977  0.0159 -0.2249
 2178SOL    HW2 7668   8.481   1.922   0.622  0.3150  0.1116  0.5376
 2179SOL     OW 7669   2.181   2.340   4.816 -0.4374  0.0122 -0.3226
 2179SOL    HW1 7670   2.218   2.409   4.760 -1.2031  0.5646 -0.1499
 2179SOL    HW2 7671   2.113   2.300   4.763 -2.0617  1.3879  0.6395
 2180SOL     OW 7672   3.826   1.491   8.482  0.7450  0.1358  0.5010
 2180SOL    HW1 7673   3.858   1.469   8.569  1.2820 -2.9813 -0.3684
 2180SOL    HW2 7674   3.899   1.472   8.423 -0.4919 -0.5738 -0.8776
 2181SOL     OW 7675   7.768   1.112   0.002 -0.0248  0.3360 -0.6916
 2181SOL    HW1 7676   7.792   1.149  -0.082 -1.2158 -1.7313 -2.0426
 2181SOL    HW2 7677   7.815   1.028   0.006 -1.3944 -0.4580 -0.1906
 2182SOL     OW 7678   8.538   2.899   8.451 -0.2909 -0.7041 -0.2090
 2182SOL    HW1 7679   8.531   2.936   8.363  1.7840  0.5105  0.0896
 2182SOL    HW2 7680   8.511   2.969   8.509 -1.0290 -1.2948  0.1858
 2183SOL     OW 7681   2.799   7.574   5.174 -0.3083 -0.5197  0.3158
 2183SOL    HW1 7682   2.851   7.591   5.252  0.0890  1.0657 -0.2466
 2183SOL    HW2 7683   2.822   7.485   5.147  2.8702  0.4028 -0.4367
 2184SOL     OW 7684   3.169   4.569   8.231 -0.3073  0.3076  1.2731
 2184SOL    HW1 7685   3.198   4.486   8.269  2.7764  0.8777  0.4037
 2184SOL    HW2 7686   3.115   4.542   8.156  0.4631 -0.9206  1.1284
 2185SOL     OW 7687   0.134   1.558   4.303 -0.3973  0.2251  0.5070
 2185SOL    HW1 7688   0.063   1.497   4.324 -0.1930  0.2965  1.4644
 2185SOL    HW2 7689   0.196   1.548   4.375  1.1392 -0.6552 -0.8656
 2186SOL     OW 7690   4.096   7.048   0.756  0.1397  0.1906 -0.6404
 2186SOL    HW1 7691   4.190   7.062   0.767 -0.2214  2.6522 -0.0238
 2186SOL    HW2 7692   4.064   7.027   0.844 -0.0888  0.8738 -0.5558
 2187SOL     OW 7693   4.268   3.113   6.270  0.4933 -0.3850 -0.4293
 2187SOL    HW1 7694   4.302   3.040   6.219 -0.1927  0.3159 -1.9532
 2187SOL    HW2 7695   4.224   3.072   6.345  2.6337 -1.3804  0.3634
 2188SOL     OW 7696   3.403   5.779   7.498  0.3682  0.5460  0.2677
 2188SOL    HW1 7697   3.446   5.722   7.561  1.0236  0.3773 -0.3281
 2188SOL    HW2 7698   3.467   5.792   7.429 -0.8492 -0.5363 -1.1478
 2189SOL     OW 7699   5.757   0.028   5.103  0.0941 -0.4211  0.5121
 2189SOL    HW1 7700   5.708  -0.054   5.114  2.4834 -1.8092  1.7712
 2189SOL    HW2 7701   5.730   0.082   5.177 -0.6159 -0.5698  0.3617
 2190SOL     OW 7702   4.365   4.538   6.642 -0.1912  0.5474  0.1500
 2190SOL    HW1 7703   4.420   4.615   6.624 -0.0945  0.1841 -1.2061
 2190SOL    HW2 7704   4.420   4.484   6.699 -0.3250  1.5382  1.2621
 2191SOL     OW 7705   3.172   6.983   8.860  0.0542  0.2267  0.1113
 2191SOL    HW1 7706   3.170   7.006   8.952 -0.9669 -0.5272  0.3012
 2191SOL    HW2 7707   3.101   6.919   8.850 -0.2433  0.7474 -1.3078
 2192SOL     OW 7708   4.686   9.023   2.907 -0.0516 -0.1901  0.0716
 2192SOL    HW1 7709   4.652   8.943   2.868  0.6157  0.4038 -1.8054
 2192SOL    HW2 7710   4.716   9.075   2.833  1.8288  0.7357  1.4141
 2193SOL     OW 7711   8.665   3.674   7.675  0.2383 -0.2281  0.1942
 2193SOL    HW1 7712   8.723   3.636   7.608  0.0325  1.4319 -0.9836
 2193SOL    HW2 7713   8.628   3.751   7.633 -2.4779 -0.9523  1.0998
 2194SOL     OW 7714   4.039   8.251   7.968 -0.0029 -0.1332 -0.6075
 2194SOL    HW1 7715   4.035   8.161   8.002  1.1894 -1.0752 -2.7169
 2194SOL    HW2 7716   4.132   8.265   7.950 -0.2733  1.2614 -1.0182
 2195SOL     OW 7717   2.239   1.819   0.363 -0.3154 -0.6020 -0.5920
 2195SOL    HW1 7718   2.320   1.864   0.341  0.4320 -0.9368  1.2939
 2195SOL    HW2 7719   2.199   1.873   0.432 -1.1266 -1.0354 -0.7078
 2196SOL     OW 7720   6.074   3.944   2.776 -0.2328  0.1109 -0.3263
 2196SOL    HW1 7721   6.006   3.955   2.710  1.9928 -1.9443 -3.2739
 2196SOL    HW2 7722   6.049   3.865   2.823  0.1078 -0.7561 -1.5371
 2197SOL     OW 7723   2.204   7.764   7.069 -0.4963  1.0014  0.6397
 2197SOL    HW1 7724   2.219   7.853   7.038  0.3410 -0.0692 -2.4270
 2197SOL    HW2 7725   2.288   7.720   7.056 -1.4294 -0.7079  0.1406
 2198SOL     OW 7726   4.015   0.685   2.218 -0.3451 -0.1120  0.0302
 2198SOL    HW1 7727   4.092   0.683   2.161 -0.6365  1.1133 -0.4459
 2198SOL    HW2 7728   3.989   0.594   2.227  0.9844 -0.5141 -0.0417
 2199SOL     OW 7729   7.554   2.865   1.628  0.0458 -0.1569  0.3004
 2199SOL    HW1 7730   7.470   2.888   1.588 -0.2603 -1.5165  0.1291
 2199SOL    HW2 7731   7.617   2.924   1.587 -0.8502  1.0663  0.6310
 2200SOL     OW 7732   6.303   8.263   6.041 -0.2325  0.4112  0.1048
 2200SOL    HW1 7733   6.364   8.222   6.103 -1.7519 -0.1871  1.2590
 2200SOL    HW2 7734   6.309   8.357   6.060  1.3162  0.5257 -0.7555
 2201SOL     OW 7735   4.709   5.708   3.820 -0.2504 -0.0239 -0.3061
 2201SOL    HW1 7736   4.646   5.728   3.752  0.8359  2.1487 -0.7655
 2201SOL    HW2 7737   4.657   5.708   3.901 -1.1605 -0.3181 -0.8734
 2202SOL     OW 7738   1.327   2.803   0.639  0.1478 -0.3850 -0.0258
 2202SOL    HW1 7739   1.352   2.846   0.557 -0.3946  1.4296  0.7037
 2202SOL    HW2 7740   1.404   2.752   0.663  0.3528 -0.8787 -1.6043
 2203SOL     OW 7741   2.952   2.793   4.636 -0.0515 -0.1092 -0.0209
 2203SOL    HW1 7742   2.900   2.864   4.673 -0.5851 -0.7512  0.5026
 2203SOL    HW2 7743   3.000   2.833   4.563  1.1082  1.2372  1.4003
 2204SOL     OW 7744   7.665   6.032   7.491 -1.1253 -0.0223  0.2919
 2204SOL    HW1 7745   7.613   5.995   7.562 -3.7827  0.6765 -1.1337
 2204SOL    HW2 7746   7.630   6.120   7.479  0.8913  0.7514 -0.3473
 2205SOL     OW 7747   7.360   6.676   5.335 -0.1079  0.4307 -0.1102
 2205SOL    HW1 7748   7.400   6.649   5.417  1.2141  1.1699 -0.4760
 2205SOL    HW2 7749   7.296   6.742   5.360 -2.0625 -1.6386  0.6075
 2206SOL     OW 7750   4.784   4.397   9.091 -0.5626 -0.5236 -0.4988
 2206SOL    HW1 7751   4.837   4.333   9.139  0.0909 -0.9810 -1.7937
 2206SOL    HW2 7752   4.847   4.463   9.063 -1.1857  0.5671  0.5650
 2207SOL     OW 7753   8.468   0.026   8.580  0.5875 -0.0121 -0.1776
 2207SOL    HW1 7754   8.441  -0.062   8.556  0.4765 -0.0256 -0.0037
 2207SOL    HW2 7755   8.560   0.017   8.605  0.6420 -0.0360 -0.3779
 2208SOL     OW 7756   3.323   3.709   2.155 -0.1831  0.0248  0.1117
 2208SOL    HW1 7757   3.401   3.708   2.099  0.0708 -0.4626  0.4639
 2208SOL    HW2 7758   3.281   3.624   2.137 -1.4954  0.9089 -1.2558
 2209SOL     OW 7759   5.163   7.060   5.533 -0.5422 -0.5436 -0.1881
 2209SOL    HW1 7760   5.100   7.112   5.583  0.5160  0.3061  0.3137
 2209SOL    HW2 7761   5.200   6.999   5.597  2.1877  1.7919  0.6698
 2210SOL     OW 7762   1.272   1.094   5.849 -0.6609 -0.2395 -0.4328
 2210SOL    HW1 7763   1.335   1.052   5.907  0.7597 -0.4377 -2.0399
 2210SOL    HW2 7764   1.233   1.164   5.902  1.3291  0.2637  0.4715
 2211SOL     OW 7765   2.837   3.951   4.480  0.0489 -0.0887  0.1853
 2211SOL    HW1 7766   2.840   3.967   4.386  1.3339 -0.2875  0.1694
 2211SOL    HW2 7767   2.860   3.859   4.489  2.4033  0.4978  0.8059
 2212SOL     OW 7768   2.353   0.914   7.925  0.6596  0.6650 -0.1627
 2212SOL    HW1 7769   2.314   0.896   7.839  0.3931  2.5231 -0.4664
 2212SOL    HW2 7770   2.283   0.892   7.987 -0.0972  1.7729 -0.5831
 2213SOL     OW 7771   3.037   5.852   1.096  0.1285  0.2044 -0.6589
 2213SOL    HW1 7772   3.105   5.842   1.163 -1.1078 -0.0003  0.6066
 2213SOL    HW2 7773   3.084   5.885   1.019  1.8425 -0.9815 -0.1891
 2214SOL     OW 7774   8.757   5.379   0.609  0.0131  0.7161  0.5446
 2214SOL    HW1 7775   8.760   5.466   0.568  1.1706  0.8177  0.7996
 2214SOL    HW2 7776   8.768   5.396   0.702  0.5271  0.2925  0.5677
 2215SOL     OW 7777   7.286   7.862   5.352  0.1457  0.3286 -0.3134
 2215SOL    HW1 7778   7.198   7.892   5.374 -1.4511 -3.2225 -0.9997
 2215SOL    HW2 7779   7.316   7.816   5.430  0.3536 -0.4626 -0.8433
 2216SOL     OW 7780   1.158   1.679   6.776  0.3991 -0.2675  0.0442
 2216SOL    HW1 7781   1.170   1.774   6.775  2.2930 -0.4500  0.4460
 2216SOL    HW2 7782   1.157   1.653   6.684  0.6657  0.0726 -0.0568
 2217SOL     OW 7783   5.514   0.497   8.187 -0.5351 -0.4968 -0.0406
 2217SOL    HW1 7784   5.508   0.427   8.252  1.3655 -0.9354 -0.2506
 2217SOL    HW2 7785   5.513   0.578   8.238 -0.5886 -0.7740  0.4039
 2218SOL     OW 7786   7.110   5.599   3.020 -0.2735 -0.5990 -0.0377
 2218SOL    HW1 7787   7.137   5.660   3.088 -1.4587 -0.4609  0.3176
 2218SOL    HW2 7788   7.185   5.540   3.010  0.7069  0.6290 -0.0761
 2219SOL     OW 7789   4.938   4.127   5.513  0.2693 -0.0956 -0.3053
 2219SOL    HW1 7790   4.866   4.084   5.467  2.2549 -2.0182 -1.8324
 2219SOL    HW2 7791   4.940   4.084   5.599 -0.1020 -0.3856 -0.4386
 2220SOL     OW 7792   5.153   3.412   7.898  0.0803  0.1862  0.3601
 2220SOL    HW1 7793   5.198   3.368   7.825 -0.5513 -0.7716  0.5195
 2220SOL    HW2 7794   5.149   3.504   7.872  2.1079  0.3123  0.3457
 2221SOL     OW 7795   8.266   7.262   1.692  0.5675 -0.4677  0.1871
 2221SOL    HW1 7796   8.193   7.243   1.751 -0.0394  0.8508 -0.0955
 2221SOL    HW2 7797   8.344   7.252   1.747  0.0303  0.4495  1.1662
 2222SOL     OW 7798   6.988   4.867   2.541  0.6773 -0.2660  0.4322
 2222SOL    HW1 7799   6.977   4.811   2.465  1.4724 -1.9240  1.4882
 2222SOL    HW2 7800   7.053   4.932   2.515  0.2997 -0.2726 -0.5576
 2223SOL     OW 7801   1.874   4.613   3.406 -0.5713  0.5012 -0.0543
 2223SOL    HW1 7802   1.924   4.552   3.352 -1.0383  0.3923 -0.3656
 2223SOL    HW2 7803   1.868   4.570   3.491 -1.5741 -0.2555 -0.4924
 2224SOL     OW 7804   8.525   1.698   3.786  0.1916  0.5617 -0.4687
 2224SOL    HW1 7805   8.552   1.754   3.859 -0.5397 -0.5412  0.7128
 2224SOL    HW2 7806   8.432   1.716   3.775  0.0108 -0.1847 -0.2559
 2225SOL     OW 7807   5.349   7.415   2.101  0.2122 -0.0103  0.2172
 2225SOL    HW1 7808   5.338   7.445   2.011 -0.0765  2.3375  0.9650
 2225SOL    HW2 7809   5.365   7.320   2.094 -0.7836 -0.0484 -2.2028
 2226SOL     OW 7810   1.811   8.536   6.385  0.2086  0.4558 -0.4093
 2226SOL    HW1 7811   1.755   8.466   6.350  1.7835 -0.4205 -1.3065
 2226SOL    HW2 7812   1.767   8.564   6.465 -3.1250  1.9148 -2.5497
 2227SOL     OW 7813   4.090   6.929   0.105  0.6421 -0.6790  0.0596
 2227SOL    HW1 7814   4.059   6.838   0.114  0.3722 -0.5400  0.6227
 2227SOL    HW2 7815   4.168   6.923   0.050 -1.0946 -0.9009 -2.5444
 2228SOL     OW 7816   8.025   0.157   4.909 -0.3295  0.2563 -0.2344
 2228SOL    HW1 7817   7.965   0.175   4.837  0.4489  0.2707 -0.8993
 2228SOL    HW2 7818   8.112   0.159   4.869  0.0156 -1.8398  0.2871
 2229SOL     OW 7819   7.711   8.278   8.658  0.6106  0.1241  0.8360
 2229SOL    HW1 7820   7.720   8.187   8.685  1.3671  0.7459  2.8776
 2229SOL    HW2 7821   7.639   8.278   8.595  0.5887 -1.8633  0.8140
 2230SOL     OW 7822   8.926   4.332   5.926 -0.8824  0.1687  0.1600
 2230SOL    HW1 7823   8.888   4.359   6.010 -0.0489  0.5412  0.4326
 2230SOL    HW2 7824   8.907   4.238   5.920 -0.1790 -0.0595  1.2000
 2231SOL     OW 7825   0.779   2.051   7.897 -0.0905  0.0295  0.3604
 2231SOL    HW1 7826   0.794   2.007   7.813 -0.3955 -1.6262  1.1486
 2231SOL    HW2 7827   0.855   2.027   7.950 -0.9983 -0.8409  1.3084
 2232SOL     OW 7828   5.481   2.393   8.860 -0.2653 -0.9698 -0.1209
 2232SOL    HW1 7829   5.532   2.356   8.788 -0.8235 -1.0518 -0.4750
 2232SOL    HW2 7830   5.465   2.484   8.834  0.8874 -0.5235  0.6316
 2233SOL     OW 7831   0.823   8.096   7.227  0.2512 -0.3782  0.1862
 2233SOL    HW1 7832   0.794   8.032   7.161  1.8883 -0.4253 -0.5540
 2233SOL    HW2 7833   0.907   8.061   7.258 -0.7099 -0.6134  2.7052
 2234SOL     OW 7834   6.674   3.293   7.723 -0.5635 -0.3314 -0.2852
 2234SOL    HW1 7835   6.718   3.266   7.642  1.8755  0.9940  0.4959
 2234SOL    HW2 7836   6.738   3.274   7.792 -0.7598  2.5517  0.8191
 2235SOL     OW 7837   4.935   7.125   3.987  0.1667 -0.5625 -0.0181
 2235SOL    HW1 7838   5.025   7.116   4.017 -0.0949  0.1643  1.0381
 2235SOL    HW2 7839   4.932   7.074   3.906  1.5163 -0.6098 -0.0686
 2236SOL     OW 7840   1.100   3.233   4.071  0.2921 -0.1565  0.4005
 2236SOL    HW1 7841   1.117   3.198   3.983 -2.0523  1.6546 -0.8950
 2236SOL    HW2 7842   1.182   3.275   4.096  2.3171 -3.9374  0.8783
 2237SOL     OW 7843   4.054   1.887   5.077 -0.9166  0.6998 -0.2638
 2237SOL    HW1 7844   3.992   1.951   5.111 -0.8379  0.2475  0.7586
 2237SOL    HW2 7845   4.039   1.887   4.983 -1.4872  1.6160 -0.1823
 2238SOL     OW 7846   8.063   3.050   8.259 -0.5159  0.1249 -0.3962
 2238SOL    HW1 7847   8.045   3.014   8.172  1.1120 -0.4801 -0.5215
 2238SOL    HW2 7848   8.100   2.976   8.308  2.1927  1.3478 -0.4216
 2239SOL     OW 7849   1.633   6.962   2.779  0.1547 -0.3169 -0.2731
 2239SOL    HW1 7850   1.604   6.994   2.693  2.1309 -2.0817 -1.6808
 2239SOL    HW2 7851   1.713   6.913   2.761  0.2936 -1.2834  2.5164
 2240SOL     OW 7852   3.385   4.592   7.715  0.6785  0.4178  0.8554
 2240SOL    HW1 7853   3.407   4.630   7.629  0.6111 -0.8515  0.2650
 2240SOL    HW2 7854   3.379   4.668   7.773  0.7948  1.2961 -0.2429
 2241SOL     OW 7855   0.853   8.308   0.647  0.1239 -0.0583 -0.1489
 2241SOL    HW1 7856   0.914   8.357   0.702  1.4061 -0.5182 -1.1069
 2241SOL    HW2 7857   0.789   8.373   0.617  0.9384  0.7239 -0.2254
 2242SOL     OW 7858   0.418   1.710   7.970 -0.4045 -0.1430  0.2222
 2242SOL    HW1 7859   0.384   1.798   7.983 -0.9082 -0.0479 -1.5119
 2242SOL    HW2 7860   0.447   1.709   7.879 -0.2453 -1.7130  0.2703
 2243SOL     OW 7861   8.830   5.780   4.444 -0.1539  0.0325 -0.3184
 2243SOL    HW1 7862   8.761   5.745   4.387  0.3434  1.9639 -2.2677
 2243SOL    HW2 7863   8.867   5.853   4.394  2.0284  0.2700  1.4789
 2244SOL     OW 7864   6.935   0.685   0.810 -0.0766 -0.0635 -0.1081
 2244SOL    HW1 7865   6.845   0.683   0.779  0.0120 -2.3867 -0.3473
 2244SOL    HW2 7866   6.983   0.627   0.751  1.8124  1.8155 -0.5500
 2245SOL     OW 7867   6.139   4.620   5.638 -0.4878  0.3087  0.0767
 2245SOL    HW1 7868   6.208   4.672   5.599  0.5194  0.5824  2.0837
 2245SOL    HW2 7869   6.058   4.657   5.603  0.3116  1.0858 -1.0066
 2246SOL     OW 7870   1.407   2.858   6.982  0.2279 -0.0883 -0.0117
 2246SOL    HW1 7871   1.330   2.829   7.031  0.4680  0.9059  0.9925
 2246SOL    HW2 7872   1.374   2.926   6.923  0.4801  1.0589  1.1349
 2247SOL     OW 7873   2.427   5.353   7.596  0.2498 -0.1003  0.1375
 2247SOL    HW1 7874   2.456   5.373   7.507  1.5892  1.1275  0.8184
 2247SOL    HW2 7875   2.453   5.429   7.648 -1.5458 -0.2709  1.3898
 2248SOL     OW 7876   3.796   7.045   2.083  0.2004  0.0847 -0.5933
 2248SOL    HW1 7877   3.834   7.106   2.019 -0.1393  0.0299 -0.8484
 2248SOL    HW2 7878   3.758   7.101   2.150 -0.5267  0.1696 -1.0661
 2249SOL     OW 7879   8.226   2.286   8.308  0.1364  0.7178 -0.1775
 2249SOL    HW1 7880   8.284   2.224   8.264 -1.5605 -0.0871 -1.3596
 2249SOL    HW2 7881   8.142   2.241   8.315 -0.8360  2.4573 -0.0456
 2250SOL     OW 7882   3.253   5.049   8.531  0.2410  0.0563 -0.1904
 2250SOL    HW1 7883   3.284   5.082   8.447  2.2917  2.1275  1.2657
 2250SOL    HW2 7884   3.320   4.988   8.560  0.1968  0.3119  0.4774
 2251SOL     OW 7885   6.275   5.140   4.847  0.4244 -0.1053  0.1556
 2251SOL    HW1 7886   6.328   5.130   4.926 -1.9452  1.1178  2.0342
 2251SOL    HW2 7887   6.256   5.050   4.819 -1.5181 -0.7611  3.1103
 2252SOL     OW 7888   2.255   7.249   3.699 -0.4990 -0.6381 -0.1745
 2252SOL    HW1 7889   2.270   7.343   3.696 -2.4085 -0.2323  1.2301
 2252SOL    HW2 7890   2.233   7.226   3.608  1.5025 -0.0798 -0.8590
 2253SOL     OW 7891   4.342   2.014   2.842  0.0465 -0.6818 -0.0440
 2253SOL    HW1 7892   4.276   1.991   2.907  2.2959 -0.2328  2.6145
 2253SOL    HW2 7893   4.333   2.108   2.830  0.4519 -0.5425  0.6748
 2254SOL     OW 7894   7.216   6.901   7.807  0.4138  0.1206 -0.5549
 2254SOL    HW1 7895   7.213   6.956   7.885  0.2202  0.9121 -1.1122
 2254SOL    HW2 7896   7.213   6.811   7.841  2.4480  0.3885  0.4595
 2255SOL     OW 7897   8.251   5.464   3.641  0.1928  0.0009  0.1928
 2255SOL    HW1 7898   8.319   5.529   3.628  0.7844 -0.5369  0.5245
 2255SOL    HW2 7899   8.277   5.417   3.720 -1.6296  1.1168  1.5509
 2256SOL     OW 7900   0.969   4.607   8.870  0.4308 -0.1851  0.0077
 2256SOL    HW1 7901   1.014   4.663   8.806 -0.6842 -0.2792 -0.8823
 2256SOL    HW2 7902   0.888   4.653   8.889 -0.5385 -1.4919 -0.7875
 2257SOL     OW 7903   3.363   7.417   0.032  0.1702  0.1973  0.0317
 2257SOL    HW1 7904   3.355   7.422  -0.063 -1.1880 -1.7248 -0.0174
 2257SOL    HW2 7905   3.438   7.359   0.048  0.7550  0.9739  0.1626
 2258SOL     OW 7906   5.894   4.501   6.215  0.4241  0.0486 -0.4891
 2258SOL    HW1 7907   5.854   4.467   6.135 -2.6975  1.3834  0.3539
 2258SOL    HW2 7908   5.909   4.594   6.197  1.1306  0.0417 -0.0021
 2259SOL     OW 7909   1.257   5.845   3.215  0.5495 -0.3231 -0.3977
 2259SOL    HW1 7910   1.298   5.929   3.195 -1.0997  0.3124 -1.4000
 2259SOL    HW2 7911   1.294   5.784   3.151 -0.1531  0.2813 -1.4174
 2260SOL     OW 7912   2.963   5.113   6.606  0.4638 -0.0648 -0.3027
 2260SOL    HW1 7913   2.868   5.101   6.595  0.5506 -0.5201 -0.5947
 2260SOL    HW2 7914   3.001   5.037   6.563  0.9122 -0.6873  1.1455
 2261SOL     OW 7915   2.075   5.157   6.495 -0.3432  0.1696 -0.3168
 2261SOL    HW1 7916   2.159   5.182   6.456 -0.2926  2.5661  1.1134
 2261SOL    HW2 7917   2.010   5.200   6.441 -0.3920  1.5764  0.8081
 2262SOL     OW 7918   3.772   9.047   9.049  0.1093 -1.1472  0.1690
 2262SOL    HW1 7919   3.845   9.000   9.090  0.3051 -0.2331  0.9133
 2262SOL    HW2 7920   3.810   9.091   8.974  0.9477  1.3166  1.9080
 2263SOL     OW 7921   1.625   3.871   5.858  0.2063  0.2594  0.1659
 2263SOL    HW1 7922   1.550   3.882   5.799  0.2456  0.9340  0.2295
 2263SOL    HW2 7923   1.689   3.822   5.806  1.3535  3.1519 -1.4249
 2264SOL     OW 7924   9.087   1.830   0.892  0.0544  0.3427 -0.2245
 2264SOL    HW1 7925   9.148   1.757   0.896  0.0204  0.2543 -1.2447
 2264SOL    HW2 7926   9.105   1.873   0.809  0.9684  2.3084  0.9053
 2265SOL     OW 7927   8.142   4.267   0.693 -0.6365  0.3556 -0.5305
 2265SOL    HW1 7928   8.134   4.316   0.611  3.3612 -0.6605 -1.7600
 2265SOL    HW2 7929   8.209   4.313   0.742 -0.3160 -1.1411  0.4938
 2266SOL     OW 7930   7.988   1.950   2.405 -0.4858 -0.6349  0.4058
 2266SOL    HW1 7931   7.946   1.950   2.491 -0.1009  0.6271  0.6125
 2266SOL    HW2 7932   7.982   1.859   2.375 -3.1497 -0.5512  0.5113
 2267SOL     OW 7933   8.516   8.030   5.224  0.2063 -0.2005  0.0583
 2267SOL    HW1 7934   8.462   8.103   5.194  1.6242  1.1482  0.7044
 2267SOL    HW2 7935   8.501   7.961   5.159 -0.5305  0.9337 -1.0044
 2268SOL     OW 7936   6.183   0.838   1.266 -0.5497  0.0196 -0.4544
 2268SOL    HW1 7937   6.097   0.870   1.292  0.3322  2.3277 -0.0929
 2268SOL    HW2 7938   6.202   0.884   1.184  0.7113  0.3246 -0.0188
 2269SOL     OW 7939   4.401   8.082   8.948 -0.1312  0.0963  0.4525
 2269SOL    HW1 7940   4.444   8.128   8.876  0.9084 -0.1314  0.9049
 2269SOL    HW2 7941   4.318   8.052   8.912  0.8007 -0.8954 -0.9807
 2270SOL     OW 7942   1.446   5.873   5.959 -0.4743  0.2569  0.1740
 2270SOL    HW1 7943   1.485   5.856   6.045  0.8581  3.0284  0.2451
 2270SOL    HW2 7944   1.460   5.792   5.910  1.2938 -0.4527  1.6957
 2271SOL     OW 7945   1.321   4.204   4.695  0.4417  0.1715  0.1556
 2271SOL    HW1 7946   1.284   4.131   4.644 -1.1664  0.5859  0.6607
 2271SOL    HW2 7947   1.408   4.174   4.721  1.6086  0.1272 -3.2551
 2272SOL     OW 7948   1.066   2.113   8.273 -0.0357 -0.0449 -0.4939
 2272SOL    HW1 7949   1.042   2.173   8.343 -0.5125 -1.2095  0.3624
 2272SOL    HW2 7950   1.140   2.064   8.307 -0.2279 -0.5759 -0.8287
 2273SOL     OW 7951   1.596   0.443   3.039 -0.1603 -0.3445  0.4205
 2273SOL    HW1 7952   1.625   0.437   2.948 -1.4848  0.4595 -0.0784
 2273SOL    HW2 7953   1.514   0.491   3.036  1.5813  3.1580  2.3891
 2274SOL     OW 7954   6.403   6.723   1.344 -0.2521 -0.1584  0.1390
 2274SOL    HW1 7955   6.385   6.716   1.250 -0.7562 -0.3243  0.2423
 2274SOL    HW2 7956   6.481   6.670   1.358 -1.2823 -1.7527  0.1249
 2275SOL     OW 7957   2.708   0.336   1.313  0.2417 -0.0556 -0.4652
 2275SOL    HW1 7958   2.630   0.386   1.338 -0.5086 -0.8941 -1.0075
 2275SOL    HW2 7959   2.743   0.381   1.236  0.2136  0.2580 -0.2931
 2276SOL     OW 7960   7.574   1.623   6.685 -0.4231 -0.1237 -0.0012
 2276SOL    HW1 7961   7.657   1.588   6.652 -0.8006 -0.9158 -0.1462
 2276SOL    HW2 7962   7.515   1.620   6.609 -0.9164 -0.6819  0.3925
 2277SOL     OW 7963   2.385   1.585   7.013 -0.7609 -0.0567  0.2438
 2277SOL    HW1 7964   2.470   1.556   6.980 -2.3368 -1.6460 -2.7805
 2277SOL    HW2 7965   2.393   1.680   7.020  1.5324 -0.2510  1.0341
 2278SOL     OW 7966   7.756   8.651   6.325  0.0177 -0.2315  0.1735
 2278SOL    HW1 7967   7.712   8.710   6.263 -0.3933  0.2060  0.8708
 2278SOL    HW2 7968   7.728   8.564   6.298 -0.4019 -0.0265 -0.0722
 2279SOL     OW 7969   2.765   6.698   4.554 -0.2458 -0.0841 -0.5750
 2279SOL    HW1 7970   2.742   6.686   4.462 -1.0345  2.3791 -0.7589
 2279SOL    HW2 7971   2.689   6.740   4.593  0.0269 -1.1975  1.2737
 2280SOL     OW 7972   0.820   3.938   6.475 -0.6570 -0.0220 -0.1600
 2280SOL    HW1 7973   0.856   3.955   6.388 -1.3728 -0.2830 -0.5136
 2280SOL    HW2 7974   0.842   4.017   6.526 -2.2136  1.1616 -1.2258
 2281SOL     OW 7975   1.094   1.511   3.070 -0.0039 -0.0329 -0.1508
 2281SOL    HW1 7976   1.012   1.545   3.105  0.0837 -0.4183  0.4515
 2281SOL    HW2 7977   1.105   1.556   2.986 -2.0859 -1.7611 -1.4582
 2282SOL     OW 7978   3.278   3.606   7.346  0.7552  0.2383 -0.1867
 2282SOL    HW1 7979   3.287   3.701   7.342  1.3156  0.2926  1.5647
 2282SOL    HW2 7980   3.252   3.588   7.436  0.4942 -1.2583 -0.5394
 2283SOL     OW 7981   5.703   3.285   6.295 -0.4443 -0.0103  0.2582
 2283SOL    HW1 7982   5.680   3.201   6.255  0.6670 -0.4258  0.4631
 2283SOL    HW2 7983   5.618   3.327   6.312 -0.9780 -0.4562 -1.1490
 2284SOL     OW 7984   2.200   3.186   7.871 -0.4496  0.1754 -0.2865
 2284SOL    HW1 7985   2.196   3.208   7.778  1.1665 -0.0343 -0.4184
 2284SOL    HW2 7986   2.222   3.093   7.873  0.5329  0.4141  0.3032
 2285SOL     OW 7987   7.513   4.158   0.053 -0.1809  0.0960  0.8045
 2285SOL    HW1 7988   7.573   4.104   0.002 -0.0298  0.1095  0.9667
 2285SOL    HW2 7989   7.540   4.145   0.144 -0.3142  0.2357  0.8649
 2286SOL     OW 7990   4.094   3.606   3.350 -0.1004  0.2240 -0.1125
 2286SOL    HW1 7991   4.017   3.649   3.388 -0.5470 -1.2853  0.8200
 2286SOL    HW2 7992   4.103   3.644   3.263  0.1079  2.8269  0.9499
 2287SOL     OW 7993   3.716   6.578   0.921 -0.0025  0.2617  0.0962
 2287SOL    HW1 7994   3.743   6.669   0.907 -1.0305  0.5702  0.0665
 2287SOL    HW2 7995   3.624   6.584   0.948 -0.5199 -0.8565 -1.2976
 2288SOL     OW 7996   3.906   6.514   0.726 -0.3158 -0.8311 -0.1941
 2288SOL    HW1 7997   3.935   6.603   0.705  0.7300 -1.1066  0.0278
 2288SOL    HW2 7998   3.855   6.524   0.806  0.2355 -0.4874  0.1218
 2289SOL     OW 7999   4.192   4.880   2.950  0.3028 -0.3292 -0.1470
 2289SOL    HW1 8000   4.135   4.898   3.025  0.1094  0.8926 -0.5596
 2289SOL    HW2 8001   4.143   4.818   2.897 -1.6831  2.2474 -1.5661
 2290SOL     OW 8002   7.096   7.439   1.759 -0.0600 -0.5809 -0.5452
 2290SOL    HW1 8003   7.033   7.470   1.825 -0.4503 -3.4192  0.5443
 2290SOL    HW2 8004   7.112   7.516   1.704  0.0846  1.8924  2.6517
 2291SOL     OW 8005   1.184   1.944   6.006 -0.0296  0.4937 -0.0205
 2291SOL    HW1 8006   1.226   2.016   5.958 -0.1237  0.4299 -0.1996
 2291SOL    HW2 8007   1.158   1.882   5.938  3.3820 -1.5512  0.2634
 2292SOL     OW 8008   8.668   6.157   0.816  0.0846 -0.2281  0.2332
 2292SOL    HW1 8009   8.749   6.162   0.867  0.0524  0.9161  0.2043
 2292SOL    HW2 8010   8.599   6.149   0.881  0.1265  0.1408  0.3270
 2293SOL     OW 8011   6.836   5.819   0.192 -0.4922 -0.6930  0.0727
 2293SOL    HW1 8012   6.766   5.777   0.143 -1.3120  0.6401  0.0674
 2293SOL    HW2 8013   6.886   5.868   0.126 -2.2767  2.0500  0.6168
 2294SOL     OW 8014   5.527   4.098   3.059 -0.2557 -0.4716 -0.2664
 2294SOL    HW1 8015   5.599   4.081   2.998 -0.9666 -0.6323 -1.0799
 2294SOL    HW2 8016   5.519   4.194   3.060 -0.9805 -0.5055 -1.3276
 2295SOL     OW 8017   3.151   8.474   1.241 -0.2132  0.3178 -0.3966
 2295SOL    HW1 8018   3.059   8.493   1.262 -0.5380 -1.7738  0.3028
 2295SOL    HW2 8019   3.184   8.556   1.205 -2.1693  1.3331 -0.0560
 2296SOL     OW 8020   7.050   3.759   2.310  0.1222 -0.2266 -0.2258
 2296SOL    HW1 8021   7.145   3.767   2.303  0.0696  4.5852  0.6918
 2296SOL    HW2 8022   7.021   3.736   2.222  2.0660  1.2702 -1.3422
 2297SOL     OW 8023   5.818   3.564   6.393 -0.7395 -0.2659 -0.0869
 2297SOL    HW1 8024   5.741   3.611   6.426 -0.5109 -0.4906  0.8086
 2297SOL    HW2 8025   5.825   3.488   6.451  1.8070  1.2116  1.7174
 2298SOL     OW 8026   8.965   6.713   8.353 -0.1022 -0.1699 -0.1919
 2298SOL    HW1 8027   8.911   6.782   8.315 -1.5285 -0.5668  0.9982
 2298SOL    HW2 8028   9.037   6.702   8.292 -0.9874  0.8927 -1.4812
 2299SOL     OW 8029   2.236   5.148   5.458  0.2477 -0.4604  0.5203
 2299SOL    HW1 8030   2.169   5.214   5.472 -0.6212 -0.9203 -1.1050
 2299SOL    HW2 8031   2.312   5.196   5.427  0.5264  0.0177  1.8977
 2300SOL     OW 8032   6.920   7.714   7.013 -0.0359 -0.6920  0.4308
 2300SOL    HW1 8033   6.924   7.625   6.978 -1.0047 -0.0754 -1.3756
 2300SOL    HW2 8034   6.990   7.761   6.968 -1.5102  0.1978 -1.0428
 2301SOL     OW 8035   4.013   1.674   5.321  0.5606 -0.0524  0.0565
 2301SOL    HW1 8036   4.036   1.750   5.267 -1.1625 -0.0419 -0.7170
 2301SOL    HW2 8037   4.039   1.598   5.269 -2.0157 -0.0777 -1.3609
 2302SOL     OW 8038   7.340   8.180   8.032  0.3746  0.2273 -0.1062
 2302SOL    HW1 8039   7.391   8.170   7.951 -0.8734 -0.7049 -0.8171
 2302SOL    HW2 8040   7.284   8.256   8.015 -0.0601 -0.1144 -0.2328
 2303SOL     OW 8041   6.638   8.611   5.803 -0.2934 -0.0239  0.1619
 2303SOL    HW1 8042   6.585   8.659   5.740  0.8445  1.3855  0.2246
 2303SOL    HW2 8043   6.712   8.578   5.752  1.0179  1.7422  0.8183
 2304SOL     OW 8044   3.854   4.067   8.873 -0.2160  0.5133 -0.4182
 2304SOL    HW1 8045   3.937   4.097   8.911  0.6483 -0.8754 -1.1319
 2304SOL    HW2 8046   3.870   4.066   8.779 -1.0493  0.2266 -0.5610
 2305SOL     OW 8047   1.479   7.589   6.432  0.2491  0.1897 -0.9299
 2305SOL    HW1 8048   1.550   7.610   6.493 -0.2086 -0.3523 -0.2067
 2305SOL    HW2 8049   1.430   7.519   6.475 -1.0207  0.8939 -1.2048
 2306SOL     OW 8050   1.061   4.566   4.364  0.5988  0.1356 -0.2810
 2306SOL    HW1 8051   1.062   4.542   4.272  2.5423 -1.7041  0.1208
 2306SOL    HW2 8052   0.970   4.584   4.384  0.1124  0.3593 -2.4874
 2307SOL     OW 8053   5.362   2.942   2.695  0.1358 -0.5977  0.1152
 2307SOL    HW1 8054   5.429   2.984   2.641 -0.3927  1.5648  1.0518
 2307SOL    HW2 8055   5.345   2.858   2.651  1.5111 -0.0158 -1.6331
 2308SOL     OW 8056   1.235   8.682   6.567 -0.3027  0.0856  0.0694
 2308SOL    HW1 8057   1.147   8.690   6.604 -0.8068  0.2531 -1.1250
 2308SOL    HW2 8058   1.235   8.740   6.490  1.5262  1.7875  1.2339
 2309SOL     OW 8059   2.418   2.260   1.645 -0.0041 -0.2413  0.4438
 2309SOL    HW1 8060   2.431   2.186   1.586  0.1550 -0.0613  0.2526
 2309SOL    HW2 8061   2.507   2.290   1.665 -0.0474 -0.4247  0.9310
 2310SOL     OW 8062   8.192   4.289   2.670  0.2386  0.6839  0.0598
 2310SOL    HW1 8063   8.114   4.241   2.642  0.5254  0.1349  0.1909
 2310SOL    HW2 8064   8.230   4.235   2.739  1.3302  0.4026 -0.7390
 2311SOL     OW 8065   7.752   4.146   4.065 -0.0223  0.4988 -0.6465
 2311SOL    HW1 8066   7.764   4.190   3.981  0.6954 -0.5708 -1.1288
 2311SOL    HW2 8067   7.818   4.076   4.065 -1.3960 -0.8498 -0.0940
 2312SOL     OW 8068   2.047   6.075   7.629  0.3533  0.3074  0.4218
 2312SOL    HW1 8069   1.951   6.080   7.633  0.4279  2.0724  1.7537
 2312SOL    HW2 8070   2.067   5.982   7.633 -1.2952 -0.0526  1.0931
 2313SOL     OW 8071   1.017   7.759   3.468 -0.2296  0.6548  0.5015
 2313SOL    HW1 8072   1.021   7.695   3.539  0.9641 -0.0322 -0.1705
 2313SOL    HW2 8073   0.947   7.727   3.411  0.3796 -0.0734  0.1559
 2314SOL     OW 8074   2.566   0.976   2.065  0.5614  0.3587  0.0766
 2314SOL    HW1 8075   2.536   0.995   1.976  0.4932  1.5415  0.3246
 2314SOL    HW2 8076   2.498   1.014   2.121  0.9002  0.1504  0.6341
 2315SOL     OW 8077   5.427   5.589   6.533  0.0224 -0.2351 -0.0968
 2315SOL    HW1 8078   5.449   5.678   6.561  2.9314 -1.2893  1.3827
 2315SOL    HW2 8079   5.341   5.573   6.571 -0.6395  1.9649 -0.5315
 2316SOL     OW 8080   4.331   4.406   8.996  0.2511 -0.2021 -0.3417
 2316SOL    HW1 8081   4.341   4.479   8.935 -0.9221  0.2831  0.0172
 2316SOL    HW2 8082   4.378   4.434   9.075 -1.0071  0.6200  0.1495
 2317SOL     OW 8083   8.812   5.455   0.900 -0.1909 -0.2094  0.0459
 2317SOL    HW1 8084   8.875   5.389   0.931  2.2595  1.3813 -1.2056
 2317SOL    HW2 8085   8.797   5.511   0.976 -1.9813 -1.8772  1.0025
 2318SOL     OW 8086   2.751   7.806   0.603 -0.2666 -0.1067  0.0430
 2318SOL    HW1 8087   2.656   7.792   0.599 -0.2570 -0.5581  1.0454
 2318SOL    HW2 8088   2.761   7.901   0.597 -0.7281 -0.0972 -0.7873
 2319SOL     OW 8089   2.330   0.314   6.292  0.2975 -0.0847  0.6287
 2319SOL    HW1 8090   2.348   0.221   6.308  1.9885  0.1764  0.3507
 2319SOL    HW2 8091   2.363   0.359   6.370 -1.0630  0.2622  1.0382
 2320SOL     OW 8092   0.424   1.991   2.287 -0.1792 -0.0820  0.1138
 2320SOL    HW1 8093   0.516   2.009   2.269  0.0205 -0.1790  0.9957
 2320SOL    HW2 8094   0.413   1.898   2.271 -0.3429  0.0984 -0.8667
 2321SOL     OW 8095   4.208   6.373   5.588  0.3504 -0.1095 -0.2254
 2321SOL    HW1 8096   4.211   6.370   5.492 -0.8297  3.6187 -0.5604
 2321SOL    HW2 8097   4.123   6.334   5.610  1.3465 -2.5697 -0.4537
 2322SOL     OW 8098   4.365   2.469   0.298  0.2319 -0.3777 -0.6314
 2322SOL    HW1 8099   4.348   2.405   0.228  1.6206 -0.1681 -1.1932
 2322SOL    HW2 8100   4.455   2.451   0.325  0.5199  1.1163 -0.5430
 2323SOL     OW 8101   8.070   6.545   5.989 -0.2837 -0.6056  0.4234
 2323SOL    HW1 8102   8.045   6.583   6.073  1.1911 -0.1991  0.6928
 2323SOL    HW2 8103   8.006   6.582   5.927 -0.0821  0.8024  1.0063
 2324SOL     OW 8104   8.975   2.360   4.091  0.0025  0.2756  0.4162
 2324SOL    HW1 8105   8.909   2.428   4.077  0.9801  1.3824  0.9964
 2324SOL    HW2 8106   9.011   2.344   4.003 -0.0651  0.6847  0.3113
 2325SOL     OW 8107   7.246   1.260   6.784 -0.1020  0.3537 -0.1160
 2325SOL    HW1 8108   7.240   1.218   6.869  0.6424 -0.6004 -0.5196
 2325SOL    HW2 8109   7.325   1.223   6.744 -0.1962  1.1097 -1.0403
 2326SOL     OW 8110   2.803   0.091   6.689 -0.2829 -0.8162 -0.2066
 2326SOL    HW1 8111   2.824  -0.002   6.687  0.3894 -0.6543 -1.5120
 2326SOL    HW2 8112   2.708   0.094   6.701 -0.1690 -1.6304  1.1285
 2327SOL     OW 8113   8.635   1.387   4.326  0.0069 -0.4152  0.1802
 2327SOL    HW1 8114   8.608   1.324   4.393 -1.1004  1.8521  2.0251
 2327SOL    HW2 8115   8.654   1.467   4.375 -0.1398  1.1566 -2.1698
 2328SOL     OW 8116   3.953   5.324   5.557 -0.1514 -0.2772  0.3358
 2328SOL    HW1 8117   4.039   5.334   5.597  0.6113 -0.2055 -1.2158
 2328SOL    HW2 8118   3.940   5.229   5.552  0.5700 -0.3370 -0.8276
 2329SOL     OW 8119   7.630   2.601   1.349  0.1781  0.1643 -0.1904
 2329SOL    HW1 8120   7.616   2.583   1.442  0.4308  1.7111  0.1653
 2329SOL    HW2 8121   7.688   2.530   1.319  1.4039  0.5339  1.2147
 2330SOL     OW 8122   4.686   1.645   0.212 -0.2574 -0.1829  0.2965
 2330SOL    HW1 8123   4.707   1.703   0.139  0.3240 -0.7832 -0.0136
 2330SOL    HW2 8124   4.604   1.602   0.187 -0.3846  0.0681  0.2769
 2331SOL     OW 8125   0.610   2.385   8.937  0.1342  0.0185  0.5896
 2331SOL    HW1 8126   0.575   2.454   8.992 -0.0399  0.3058  0.1205
 2331SOL    HW2 8127   0.541   2.366   8.874  0.6464  0.2847 -0.0685
 2332SOL     OW 8128   1.046   3.694   7.323 -0.2698  0.0177 -0.0914
 2332SOL    HW1 8129   0.964   3.721   7.281  0.1265  0.7363 -0.4169
 2332SOL    HW2 8130   1.018   3.640   7.396 -1.0409  0.2169 -0.2269
 2333SOL     OW 8131   5.293   0.626   5.348 -0.2491  0.0021  0.6158
 2333SOL    HW1 8132   5.226   0.561   5.367  1.3035 -1.7772  0.2828
 2333SOL    HW2 8133   5.356   0.618   5.420 -0.0890  1.2269  0.6314
 2334SOL     OW 8134   4.816   6.074   6.023 -0.0589  0.0741 -0.6259
 2334SOL    HW1 8135   4.750   6.141   6.041  0.3457  0.1066  0.8614
 2334SOL    HW2 8136   4.898   6.113   6.051  0.2192 -0.9100 -0.0131
 2335SOL     OW 8137   6.682   7.671   5.115  0.2496  0.2447 -0.0543
 2335SOL    HW1 8138   6.731   7.654   5.034 -1.4544  1.3033 -1.3745
 2335SOL    HW2 8139   6.591   7.650   5.094 -0.1364 -0.2069  1.8496
 2336SOL     OW 8140   0.523   0.850   8.624  0.4475  0.2305 -0.2929
 2336SOL    HW1 8141   0.477   0.843   8.541  0.0661 -0.2500 -0.0431
 2336SOL    HW2 8142   0.543   0.760   8.648  1.9557  0.4432 -0.6331
 2337SOL     OW 8143   5.716   1.813   5.457 -0.4267 -0.1249  0.2080
 2337SOL    HW1 8144   5.663   1.893   5.454  0.8325  0.7455  0.3238
 2337SOL    HW2 8145   5.654   1.744   5.481 -1.7538  0.6212 -0.9449
 2338SOL     OW 8146   2.800   5.469   4.744  0.2953  0.2316  0.3903
 2338SOL    HW1 8147   2.807   5.498   4.653 -0.0477  0.5448  0.4575
 2338SOL    HW2 8148   2.824   5.546   4.795  0.7421 -0.0221  0.5621
 2339SOL     OW 8149   2.008   5.151   5.068 -0.0210 -0.1523  0.0090
 2339SOL    HW1 8150   2.060   5.203   5.130 -0.2914 -0.4544  0.5002
 2339SOL    HW2 8151   1.919   5.185   5.078 -0.5465 -1.8095  1.5949
 2340SOL     OW 8152   2.689   1.335   6.306 -0.2840  0.4448  0.0147
 2340SOL    HW1 8153   2.600   1.301   6.311  0.5910 -2.3737 -1.5446
 2340SOL    HW2 8154   2.719   1.338   6.397 -0.8131 -2.0983  0.3415
 2341SOL     OW 8155   8.147   7.291   4.675  0.0309  0.1362  0.1131
 2341SOL    HW1 8156   8.127   7.206   4.637  1.1357 -0.0503 -0.0861
 2341SOL    HW2 8157   8.068   7.343   4.662  0.7390  0.5326 -3.6887
 2342SOL     OW 8158   0.065   1.782   8.055  0.3317 -0.0878 -0.5547
 2342SOL    HW1 8159   0.110   1.701   8.080  0.2183 -0.1477 -0.5470
 2342SOL    HW2 8160   0.134   1.836   8.016  0.0705 -0.8748 -2.1955
 2343SOL     OW 8161   1.004   2.596   8.400 -0.6712  0.1964 -0.4688
 2343SOL    HW1 8162   0.920   2.576   8.357 -0.7320 -0.3725 -0.0957
 2343SOL    HW2 8163   0.983   2.598   8.493 -0.1163 -0.7964 -0.3093
 2344SOL     OW 8164   1.603   2.322   8.029 -0.3961  0.0828 -0.5480
 2344SOL    HW1 8165   1.547   2.340   8.104 -0.0461  1.1068 -0.5081
 2344SOL    HW2 8166   1.606   2.405   7.982  0.1091 -0.3014 -1.2046
 2345SOL     OW 8167   7.437   0.831   6.394  0.2074 -0.1387  0.0088
 2345SOL    HW1 8168   7.389   0.774   6.454  0.8420 -3.2923 -2.2380
 2345SOL    HW2 8169   7.419   0.920   6.425 -1.3541 -1.4852  3.3618
 2346SOL     OW 8170   4.423   4.814   0.318  0.3788 -0.1711  0.0242
 2346SOL    HW1 8171   4.386   4.730   0.346  0.2655 -0.6361 -1.4446
 2346SOL    HW2 8172   4.385   4.829   0.232 -1.7279  2.6966  1.2595
 2347SOL     OW 8173   1.707   3.303   7.478  0.2246  0.1226  0.3835
 2347SOL    HW1 8174   1.742   3.246   7.546 -2.8476 -2.9260 -0.2576
 2347SOL    HW2 8175   1.620   3.328   7.511 -1.8634 -2.3890 -2.5707
 2348SOL     OW 8176   3.405   4.673   4.721  0.1398  0.1594  0.3418
 2348SOL    HW1 8177   3.424   4.766   4.732 -0.2697  0.3869 -0.7772
 2348SOL    HW2 8178   3.487   4.635   4.689  1.1637 -0.4049  3.2993
 2349SOL     OW 8179   7.469   4.197   8.247  0.9810 -0.2811 -0.1311
 2349SOL    HW1 8180   7.434   4.132   8.186  0.3340  1.2108 -1.4189
 2349SOL    HW2 8181   7.480   4.276   8.194  0.4267  1.0792  1.6959
 2350SOL     OW 8182   7.370   5.523   5.641 -0.6336 -0.1720  0.5272
 2350SOL    HW1 8183   7.423   5.499   5.565 -1.9562 -2.9252  0.3471
 2350SOL    HW2 8184   7.431   5.523   5.715  0.3491  0.8718 -0.2555
 2351SOL     OW 8185   1.580   7.167   3.584  0.2288 -0.7987 -0.8231
 2351SOL    HW1 8186   1.541   7.250   3.554  2.4791 -0.0277 -1.8233
 2351SOL    HW2 8187   1.577   7.173   3.679 -0.6172 -0.0658 -0.8733
 2352SOL     OW 8188   3.979   7.893   2.460  0.3262  0.0520  0.6053
 2352SOL    HW1 8189   3.906   7.903   2.399  0.5661 -0.6763  0.1743
 2352SOL    HW2 8190   3.947   7.930   2.542 -0.9115 -1.1469  0.7139
 2353SOL     OW 8191   0.369   0.997   6.925 -0.2466  0.6013  0.2495
 2353SOL    HW1 8192   0.307   0.941   6.879 -1.7966  2.3364  0.1108
 2353SOL    HW2 8193   0.432   0.936   6.964 -1.1599 -1.1382 -0.8625
 2354SOL     OW 8194   2.561   2.832   4.127 -0.1672  0.3900 -0.3821
 2354SOL    HW1 8195   2.623   2.871   4.188 -0.8472  1.1640 -0.1651
 2354SOL    HW2 8196   2.603   2.751   4.098  0.5114  0.4140  0.5018
 2355SOL     OW 8197   8.775   1.670   0.185  0.4046  0.0138 -0.1493
 2355SOL    HW1 8198   8.717   1.728   0.136 -0.7868 -0.9985  0.0020
 2355SOL    HW2 8199   8.753   1.685   0.277  0.5250 -0.2350 -0.0776
 2356SOL     OW 8200   5.281   0.001   0.163  0.1727 -0.3798  0.2051
 2356SOL    HW1 8201   5.247   0.088   0.146 -0.2871  0.0849  2.9815
 2356SOL    HW2 8202   5.203  -0.053   0.176  0.4646 -0.8405  0.0690
 2357SOL     OW 8203   4.805   8.765   4.543  0.6142  0.3677 -0.0500
 2357SOL    HW1 8204   4.843   8.848   4.573 -1.3266  0.6428  1.9176
 2357SOL    HW2 8205   4.746   8.739   4.614  1.2595 -2.8016 -0.5532
 2358SOL     OW 8206   3.146   6.213   1.083  0.3915  0.0410 -0.2466
 2358SOL    HW1 8207   3.154   6.129   1.037  0.8009  0.8977 -1.8151
 2358SOL    HW2 8208   3.161   6.279   1.015 -1.1727  1.4239  0.6581
 2359SOL     OW 8209   1.033   7.113   5.440  0.6819  0.0527  0.0941
 2359SOL    HW1 8210   1.022   7.162   5.359  1.2434 -0.7624 -0.4983
 2359SOL    HW2 8211   1.108   7.056   5.423  0.7711 -0.1648  1.1697
 2360SOL     OW 8212   8.022   7.351   2.298  0.4001  0.1604  0.4339
 2360SOL    HW1 8213   8.012   7.257   2.312 -1.1688  0.3227  0.6374
 2360SOL    HW2 8214   8.108   7.372   2.333  0.7659 -1.1945  0.4036
 2361SOL     OW 8215   5.476   1.411   7.392 -0.0790 -0.1671 -0.3307
 2361SOL    HW1 8216   5.458   1.452   7.307 -0.7554  1.0939  0.3891
 2361SOL    HW2 8217   5.393   1.369   7.417  0.4447 -1.5344 -0.7957
 2362SOL     OW 8218   0.151   3.051   6.606  0.2541  0.2566 -0.2809
 2362SOL    HW1 8219   0.205   3.045   6.686 -0.1587 -0.8887 -0.0719
 2362SOL    HW2 8220   0.198   3.113   6.551  0.0427  1.8548  1.2444
 2363SOL     OW 8221   7.065   5.323   3.851 -0.6571  0.0114 -0.4850
 2363SOL    HW1 8222   7.109   5.369   3.923 -0.6856  0.5577 -0.8077
 2363SOL    HW2 8223   7.008   5.390   3.812 -0.1656 -0.1042 -1.4172
 2364SOL     OW 8224   7.244   3.210   9.029  0.1183  0.0424  0.2758
 2364SOL    HW1 8225   7.207   3.280   8.975 -0.5563  0.2261  0.9619
 2364SOL    HW2 8226   7.324   3.184   8.983 -0.3945  0.2502 -0.7635
 2365SOL     OW 8227   4.554   6.107   2.253  0.2592  0.1531  0.1372
 2365SOL    HW1 8228   4.498   6.184   2.256 -0.9278 -0.7022  2.7621
 2365SOL    HW2 8229   4.522   6.056   2.179 -0.7406  0.9019  0.0430
 2366SOL     OW 8230   6.289   1.004   1.855  0.3343 -0.4247 -0.0914
 2366SOL    HW1 8231   6.325   0.933   1.802  1.0300 -1.1769  1.3435
 2366SOL    HW2 8232   6.255   0.961   1.933 -0.3756  0.6903  0.2325
 2367SOL     OW 8233   4.298   3.614   6.526  0.1559  0.0843 -0.3806
 2367SOL    HW1 8234   4.205   3.622   6.504  0.4358 -0.2462 -1.7845
 2367SOL    HW2 8235   4.332   3.703   6.521  0.2146  0.0238 -1.4277
 2368SOL     OW 8236   6.171   7.429   4.889  0.2328  0.6547 -0.4080
 2368SOL    HW1 8237   6.115   7.495   4.849 -0.1138  0.7956  0.3005
 2368SOL    HW2 8238   6.168   7.448   4.983  0.1686 -0.3383 -0.1986
 2369SOL     OW 8239   2.751   2.569   3.423  0.2559  0.1516 -0.6063
 2369SOL    HW1 8240   2.697   2.511   3.369 -0.7029  1.5088 -1.1766
 2369SOL    HW2 8241   2.840   2.553   3.394  0.0228 -1.0817 -0.6861
 2370SOL     OW 8242   4.327   7.626   4.591 -0.0722 -0.5612  0.3885
 2370SOL    HW1 8243   4.287   7.654   4.509  2.0349  0.2142 -0.4694
 2370SOL    HW2 8244   4.262   7.646   4.658 -1.0712  0.6581 -0.8798
 2371SOL     OW 8245   1.423   4.883   0.611  0.4788 -0.0193 -0.1940
 2371SOL    HW1 8246   1.505   4.915   0.648  0.7354  0.1681 -0.9262
 2371SOL    HW2 8247   1.369   4.862   0.688  0.8656  0.7317  0.2907
 2372SOL     OW 8248   2.991   4.975   3.649  0.0027  0.3665  0.1859
 2372SOL    HW1 8249   3.002   4.983   3.744  1.2981 -0.0570  0.0915
 2372SOL    HW2 8250   2.950   5.057   3.623 -0.6378  0.3707  1.1418
 2373SOL     OW 8251   5.313   1.422   1.535  0.5687 -0.0951  0.5648
 2373SOL    HW1 8252   5.371   1.440   1.461  0.0520 -0.6062  0.0311
 2373SOL    HW2 8253   5.368   1.439   1.612  1.2930 -0.1386  0.0710
 2374SOL     OW 8254   1.935   1.990   6.905 -1.0591 -0.4015 -0.0566
 2374SOL    HW1 8255   1.899   1.939   6.832 -0.7966 -0.3178 -0.2432
 2374SOL    HW2 8256   1.918   2.081   6.881 -1.9754 -0.4089  0.5055
 2375SOL     OW 8257   4.929   5.333   0.370  0.2203  0.0786 -0.3309
 2375SOL    HW1 8258   4.911   5.412   0.420 -0.3636 -1.2159  1.6116
 2375SOL    HW2 8259   4.921   5.262   0.433  0.5717 -1.5691 -2.0402
 2376SOL     OW 8260   3.068   4.806   8.174  0.1387 -0.4564 -0.2492
 2376SOL    HW1 8261   2.972   4.810   8.173  0.1452  0.0620  0.4656
 2376SOL    HW2 8262   3.087   4.713   8.190 -0.2389 -0.5778 -0.4780
 2377SOL     OW 8263   7.286   0.017   2.929 -0.7390 -0.0884  0.2209
 2377SOL    HW1 8264   7.351   0.004   2.861 -0.4168 -1.3948  0.7429
 2377SOL    HW2 8265   7.275   0.111   2.935  0.8862  0.1407 -0.0902
 2378SOL     OW 8266   8.824   4.530   3.580  0.4003  0.0933 -0.3016
 2378SOL    HW1 8267   8.836   4.573   3.664 -0.8864  1.8537 -0.9460
 2378SOL    HW2 8268   8.759   4.461   3.597 -2.0057  2.1984 -0.2678
 2379SOL     OW 8269   4.240   0.610   6.432 -0.2598  0.0644  0.5822
 2379SOL    HW1 8270   4.220   0.579   6.521 -1.2762 -1.1430 -0.0255
 2379SOL    HW2 8271   4.193   0.549   6.375 -0.3463  1.3483 -0.7720
 2380SOL     OW 8272   6.228   4.345   3.471 -0.2864 -0.3181  0.2630
 2380SOL    HW1 8273   6.158   4.404   3.442 -1.5139 -1.8084  0.1124
 2380SOL    HW2 8274   6.258   4.383   3.554 -0.7787  0.7209 -0.0085
 2381SOL     OW 8275   2.329   0.046   3.921  0.4119 -0.6097 -0.2757
 2381SOL    HW1 8276   2.259   0.078   3.864 -1.0145 -0.2504  1.5581
 2381SOL    HW2 8277   2.331  -0.048   3.905 -2.7604 -1.2041  1.7804
 2382SOL     OW 8278   5.441   2.147   2.437  0.5107  0.2291  0.2433
 2382SOL    HW1 8279   5.522   2.163   2.389  0.2177 -0.1492 -0.3866
 2382SOL    HW2 8280   5.371   2.175   2.377  0.1878  1.2720  1.0654
 2383SOL     OW 8281   8.737   8.883   0.013 -0.3251 -0.2397 -0.2757
 2383SOL    HW1 8282   8.725   8.858  -0.079 -1.0180  1.5679 -0.7308
 2383SOL    HW2 8283   8.832   8.884   0.025 -0.2398 -1.0105 -0.8209
 2384SOL     OW 8284   3.514   6.889   3.145  0.0202  0.4588  0.1412
 2384SOL    HW1 8285   3.491   6.865   3.234  0.2632  1.6327  0.5417
 2384SOL    HW2 8286   3.574   6.963   3.155  0.7165  0.0695 -0.9790
 2385SOL     OW 8287   0.868   3.922   7.470  0.4278 -0.3557  0.0040
 2385SOL    HW1 8288   0.848   3.886   7.383 -0.2206  0.8423 -0.3669
 2385SOL    HW2 8289   0.787   3.913   7.519  0.9622 -1.5678  0.7043
 2386SOL     OW 8290   3.339   7.618   0.687 -0.3796 -1.1161 -0.2464
 2386SOL    HW1 8291   3.364   7.552   0.622  2.5413  0.2942 -0.7225
 2386SOL    HW2 8292   3.381   7.589   0.768 -2.6750 -2.0112  0.7149
 2387SOL     OW 8293   6.518   5.857   2.275 -0.3598 -0.3459  0.7567
 2387SOL    HW1 8294   6.475   5.914   2.339  0.9723  0.5906  0.8640
 2387SOL    HW2 8295   6.452   5.843   2.207 -0.9123  0.8770  1.0070
 2388SOL     OW 8296   4.823   5.499   4.926 -0.3604 -0.2031  0.0108
 2388SOL    HW1 8297   4.915   5.480   4.946 -0.3210  0.2357  0.2580
 2388SOL    HW2 8298   4.827   5.570   4.861 -0.4841 -1.6168 -1.6061
 2389SOL     OW 8299   5.422   0.239   3.339 -0.6331 -0.2324 -0.2608
 2389SOL    HW1 8300   5.366   0.162   3.352 -0.4791 -0.4857 -1.0724
 2389SOL    HW2 8301   5.397   0.298   3.410 -2.8160  0.1574 -1.2729
 2390SOL     OW 8302   8.110   4.446   0.501 -0.3675 -0.3187  0.0370
 2390SOL    HW1 8303   8.082   4.456   0.410 -0.1966  0.0832  0.0242
 2390SOL    HW2 8304   8.118   4.536   0.534  1.4646 -0.3863 -0.1367
 2391SOL     OW 8305   3.464   3.354   7.036 -0.4854  0.1515  0.4062
 2391SOL    HW1 8306   3.380   3.396   7.054 -1.3800 -1.2454 -0.2896
 2391SOL    HW2 8307   3.480   3.297   7.111 -1.2777 -1.2160 -0.4184
 2392SOL     OW 8308   8.336   0.808   1.043 -0.3091  0.2872 -0.3977
 2392SOL    HW1 8309   8.357   0.725   1.000 -0.8168  0.2160 -0.5141
 2392SOL    HW2 8310   8.404   0.869   1.012 -0.7622  0.2829 -1.4338
 2393SOL     OW 8311   1.954   8.765   1.336 -0.0966 -0.6895  0.1425
 2393SOL    HW1 8312   1.996   8.688   1.297 -0.1144 -0.3191 -0.6043
 2393SOL    HW2 8313   1.931   8.821   1.262 -0.8138 -0.3268  0.6279
 2394SOL     OW 8314   1.169   2.018   4.793  0.1073  0.1036 -0.0947
 2394SOL    HW1 8315   1.240   1.984   4.738  1.0250  1.4133  0.2247
 2394SOL    HW2 8316   1.103   2.048   4.731 -0.0674 -0.8924 -0.4032
 2395SOL     OW 8317   6.512   9.031   4.956 -0.0615 -0.1872 -0.3846
 2395SOL    HW1 8318   6.441   9.015   4.894 -0.3860 -2.0193  0.3908
 2395SOL    HW2 8319   6.483   8.989   5.037  1.5777 -0.3187  0.1712
 2396SOL     OW 8320   5.707   8.828   4.677  0.5059 -0.2894 -0.8125
 2396SOL    HW1 8321   5.643   8.879   4.726 -0.3235 -0.6700 -1.4624
 2396SOL    HW2 8322   5.701   8.740   4.715  2.6859  0.2798  1.0230
 2397SOL     OW 8323   4.297   3.846   4.348  0.6099 -0.4537 -0.2062
 2397SOL    HW1 8324   4.312   3.940   4.343 -1.3382 -0.1299 -1.0360
 2397SOL    HW2 8325   4.201   3.837   4.346  0.7565 -2.4607 -0.5635
 2398SOL     OW 8326   2.553   9.088   4.079  0.0908 -0.3095  0.4619
 2398SOL    HW1 8327   2.490   9.112   4.011 -0.0542  0.6244  0.9120
 2398SOL    HW2 8328   2.544   8.993   4.088 -0.5086 -0.3197 -0.2050
 2399SOL     OW 8329   7.871   4.296   6.340 -0.0232  0.4018  0.0280
 2399SOL    HW1 8330   7.910   4.343   6.267  0.6032  1.5257  1.0498
 2399SOL    HW2 8331   7.851   4.363   6.405 -0.1589 -0.6036  1.0699
 2400SOL     OW 8332   3.828   0.590   9.050  0.5169 -0.1314  0.1296
 2400SOL    HW1 8333   3.801   0.665   9.103 -2.2481 -1.0229  0.1470
 2400SOL    HW2 8334   3.859   0.628   8.967  0.0761  1.0502  0.4975
 2401SOL     OW 8335   5.134   4.954   7.079 -0.3088 -0.3291  0.1143
 2401SOL    HW1 8336   5.142   4.907   6.996  0.1388 -1.2329  0.6557
 2401SOL    HW2 8337   5.217   4.938   7.124 -0.3092  0.6583  0.4784
 2402SOL     OW 8338   5.204   0.683   8.366 -0.6639  0.4980  0.2622
 2402SOL    HW1 8339   5.223   0.647   8.279  0.0534 -0.8016  0.9268
 2402SOL    HW2 8340   5.288   0.719   8.396 -0.6670  0.0508  0.8182
 2403SOL     OW 8341   7.532   5.869   7.679  0.3483 -0.0525  0.2724
 2403SOL    HW1 8342   7.501   5.858   7.769 -0.6418  2.0921  0.2540
 2403SOL    HW2 8343   7.476   5.811   7.627  0.5287 -0.8468  0.9360
 2404SOL     OW 8344   4.064   2.088   2.531  0.0344  0.2554 -0.2430
 2404SOL    HW1 8345   4.054   2.026   2.604  2.3169  0.8214  0.6200
 2404SOL    HW2 8346   4.139   2.055   2.482 -1.3535  0.0006 -2.2939
 2405SOL     OW 8347   0.706   8.829   2.100  0.1215 -0.0188 -0.5158
 2405SOL    HW1 8348   0.674   8.903   2.151 -0.7147 -0.6628 -0.0946
 2405SOL    HW2 8349   0.628   8.780   2.075  0.6766 -0.9398 -0.5184
 2406SOL     OW 8350   3.013   4.801   1.086  0.1776  0.5774  0.1009
 2406SOL    HW1 8351   2.953   4.861   1.129 -0.6364 -1.2804  1.6995
 2406SOL    HW2 8352   2.959   4.751   1.025  0.3692 -0.0927  0.4667
 2407SOL     OW 8353   2.867   4.834   5.745  0.1824  0.6123 -0.4971
 2407SOL    HW1 8354   2.778   4.863   5.763  1.0529  2.8081  0.7874
 2407SOL    HW2 8355   2.903   4.813   5.831  1.1905  0.7369 -0.8740
 2408SOL     OW 8356   2.083   8.742   2.668  0.4139  0.2842 -0.3467
 2408SOL    HW1 8357   2.150   8.694   2.719  1.1727  1.4396 -0.2282
 2408SOL    HW2 8358   2.126   8.823   2.642 -0.6396  0.6157 -1.1252
 2409SOL     OW 8359   6.965   4.357   8.812  0.3788 -0.3676 -0.0519
 2409SOL    HW1 8360   6.997   4.274   8.847 -1.4375 -0.8160  0.6398
 2409SOL    HW2 8361   6.885   4.334   8.765 -1.2195  1.2220  1.7617
 2410SOL     OW 8362   8.947   5.840   4.879  0.1188  0.0774 -0.0386
 2410SOL    HW1 8363   8.889   5.821   4.805  1.3628  0.7373 -1.2402
 2410SOL    HW2 8364   8.960   5.755   4.922 -0.8431 -0.2654 -0.3926
 2411SOL     OW 8365   5.849   6.898   2.352 -0.0539 -0.3316  0.3080
 2411SOL    HW1 8366   5.879   6.939   2.433 -1.4002 -2.2540  1.8827
 2411SOL    HW2 8367   5.776   6.954   2.322 -0.3810 -0.3002  1.1417
 2412SOL     OW 8368   8.843   4.802   1.101 -0.2072 -0.6939  0.5602
 2412SOL    HW1 8369   8.921   4.747   1.099 -0.3481 -0.8791 -0.1161
 2412SOL    HW2 8370   8.788   4.763   1.170  0.2626 -0.6046  0.9855
 2413SOL     OW 8371   1.353   5.486   0.582 -0.3394 -0.6568  0.0395
 2413SOL    HW1 8372   1.313   5.431   0.649 -0.1974 -0.7051  0.0842
 2413SOL    HW2 8373   1.302   5.567   0.585 -0.6195 -0.8251 -0.1041
 2414SOL     OW 8374   0.955   0.249   5.551 -0.2089  0.2425 -0.3375
 2414SOL    HW1 8375   1.045   0.282   5.545  0.8231 -1.4716  3.0535
 2414SOL    HW2 8376   0.913   0.308   5.614 -0.9325  0.0038 -0.5951
 2415SOL     OW 8377   3.264   3.533   7.101 -0.0106 -0.4865 -0.3400
 2415SOL    HW1 8378   3.269   3.559   7.193  0.0342 -1.5102 -0.0377
 2415SOL    HW2 8379   3.188   3.581   7.067  1.1088  1.4216 -0.3185
 2416SOL     OW 8380   7.457   3.028   5.593  0.1524  0.3751 -0.0210
 2416SOL    HW1 8381   7.426   3.045   5.683 -0.6583  0.3693 -0.2863
 2416SOL    HW2 8382   7.544   3.067   5.590 -0.0284  0.8530  0.6123
 2417SOL     OW 8383   1.298   1.018   1.285  0.0367  0.3997 -0.2172
 2417SOL    HW1 8384   1.355   1.008   1.209 -0.3868 -0.6450 -0.4135
 2417SOL    HW2 8385   1.306   0.935   1.332  1.3094  1.4971  1.6188
 2418SOL     OW 8386   6.118   4.777   3.068 -0.3094 -0.0205 -0.5930
 2418SOL    HW1 8387   6.126   4.758   2.975  0.0626 -1.1408 -0.3534
 2418SOL    HW2 8388   6.043   4.725   3.097 -1.0606  1.1072 -0.4532
 2419SOL     OW 8389   2.511   3.662   5.400  0.1511  0.1591  0.2674
 2419SOL    HW1 8390   2.486   3.737   5.454  0.7576 -1.4790  2.9888
 2419SOL    HW2 8391   2.431   3.610   5.392  0.1114  0.2967 -0.2866
 2420SOL     OW 8392   8.475   8.107   0.390 -0.2584  0.1528 -0.6315
 2420SOL    HW1 8393   8.461   8.189   0.437  0.0123 -0.0438 -0.1966
 2420SOL    HW2 8394   8.391   8.062   0.396 -0.3438  0.3043 -0.6811
 2421SOL     OW 8395   5.834   3.943   6.804 -0.7460 -0.0604 -0.0323
 2421SOL    HW1 8396   5.848   4.032   6.770  1.6159  0.4574  2.0326
 2421SOL    HW2 8397   5.812   3.956   6.896  2.4466 -1.6052  1.0815
 2422SOL     OW 8398   7.629   3.467   8.180 -0.5803  0.4696  0.3043
 2422SOL    HW1 8399   7.561   3.513   8.229 -0.5949 -0.0420  0.7672
 2422SOL    HW2 8400   7.685   3.537   8.147 -1.3410  0.8984 -0.1087
 2423SOL     OW 8401   8.911   9.095   1.105 -0.1836 -0.0039  0.4062
 2423SOL    HW1 8402   8.817   9.081   1.093 -0.0010 -1.8084  0.7178
 2423SOL    HW2 8403   8.920   9.189   1.118 -1.6793  0.5403 -1.8134
 2424SOL     OW 8404   3.337   9.057   3.711 -1.1654 -1.0136 -0.4948
 2424SOL    HW1 8405   3.420   9.104   3.709 -0.7930 -1.2915  2.7725
 2424SOL    HW2 8406   3.357   8.971   3.674 -0.7543 -0.2031 -2.2824
 2425SOL     OW 8407   5.592   5.319   3.378  0.3485  0.3879  0.3713
 2425SOL    HW1 8408   5.509   5.366   3.376  0.5307  0.8069  1.5488
 2425SOL    HW2 8409   5.571   5.234   3.416  0.2212 -0.0688 -0.6848
 2426SOL     OW 8410   2.267   8.303   2.312  0.1765 -0.1993  0.0528
 2426SOL    HW1 8411   2.231   8.220   2.344 -0.0028 -0.5418 -0.9848
 2426SOL    HW2 8412   2.191   8.349   2.275  0.0203  1.0410  1.8179
 2427SOL     OW 8413   4.592   4.275   8.621  0.2912 -0.1396 -0.2754
 2427SOL    HW1 8414   4.549   4.359   8.605 -0.3911 -0.1550  1.3431
 2427SOL    HW2 8415   4.571   4.222   8.544  0.2080  0.9477 -1.0222
 2428SOL     OW 8416   4.898   7.168   8.946  0.0606 -0.0790  0.1101
 2428SOL    HW1 8417   4.927   7.077   8.949 -0.6598 -0.3679 -1.0269
 2428SOL    HW2 8418   4.849   7.180   9.027  0.0309 -0.7429  0.1977
 2429SOL     OW 8419   6.203   1.320   7.651  0.1163  0.0992 -0.0431
 2429SOL    HW1 8420   6.273   1.313   7.587 -0.0203 -1.2328 -0.0631
 2429SOL    HW2 8421   6.151   1.240   7.640 -1.1092  0.8153  0.3210
 2430SOL     OW 8422   4.152   2.108   0.317 -0.4111 -0.4756 -0.0114
 2430SOL    HW1 8423   4.125   2.193   0.281 -0.8606 -1.1636 -1.3686
 2430SOL    HW2 8424   4.172   2.126   0.409 -1.9480  0.8027  0.1106
 2431SOL     OW 8425   5.130   5.353   3.979  0.4461 -0.3650  0.6298
 2431SOL    HW1 8426   5.161   5.377   4.066  0.6681  0.1919  0.4070
 2431SOL    HW2 8427   5.087   5.432   3.946 -0.1170 -0.7441  0.4459
 2432SOL     OW 8428   1.356   4.176   5.233 -0.1776 -0.0282  0.4561
 2432SOL    HW1 8429   1.283   4.150   5.289  0.3408 -0.1660  1.0800
 2432SOL    HW2 8430   1.392   4.093   5.201  0.0327  0.0174  0.5745
 2433SOL     OW 8431   6.176   2.089   5.792  0.0615  0.4262  0.5121
 2433SOL    HW1 8432   6.098   2.145   5.790 -0.7485 -0.6013  1.9019
 2433SOL    HW2 8433   6.150   2.013   5.844  1.0990 -1.3089 -1.3472
 2434SOL     OW 8434   7.131   5.644   7.048 -0.2112 -0.0577 -0.2067
 2434SOL    HW1 8435   7.130   5.646   6.953  1.3414  2.1376 -0.2411
 2434SOL    HW2 8436   7.173   5.725   7.074  0.6306 -1.1956  2.3531
 2435SOL     OW 8437   1.705   8.504   4.532 -0.4128 -0.4280 -0.4077
 2435SOL    HW1 8438   1.756   8.561   4.590  0.8566 -0.3054 -1.5990
 2435SOL    HW2 8439   1.681   8.429   4.587  1.4760 -0.7246  0.0640
 2436SOL     OW 8440   6.328   7.282   0.527  0.1484  0.2317 -0.6794
 2436SOL    HW1 8441   6.298   7.220   0.594  1.8563  0.0662 -0.0189
 2436SOL    HW2 8442   6.329   7.367   0.572  1.5799  0.0742 -0.3704
 2437SOL     OW 8443   4.585   4.379   4.244  1.0850 -0.0409  0.2085
 2437SOL    HW1 8444   4.541   4.389   4.160  2.6471  0.0473 -0.6440
 2437SOL    HW2 8445   4.658   4.320   4.226  1.5315  0.0818  1.4737
 2438SOL     OW 8446   0.098   3.395   7.161 -0.3804 -0.7515 -0.1619
 2438SOL    HW1 8447   0.095   3.441   7.077 -1.8406  2.3850  1.4152
 2438SOL    HW2 8448   0.036   3.323   7.152  0.0888 -0.9820 -1.9884
 2439SOL     OW 8449   8.981   7.630   1.128 -0.6485 -0.3750  0.1255
 2439SOL    HW1 8450   9.009   7.579   1.204 -0.1095 -0.0417  0.1545
 2439SOL    HW2 8451   8.887   7.643   1.141 -0.2032  1.6536  1.9535
 2440SOL     OW 8452   5.893   3.329   0.354  0.3648  0.0305  0.1489
 2440SOL    HW1 8453   5.985   3.303   0.347  0.2921 -0.2935  0.3592
 2440SOL    HW2 8454   5.851   3.256   0.400 -0.4028 -0.7521 -1.6715
 2441SOL     OW 8455   3.576   4.456   5.321 -0.5036  0.1196  0.0459
 2441SOL    HW1 8456   3.488   4.432   5.293  0.0126  0.2691 -1.8166
 2441SOL    HW2 8457   3.631   4.440   5.244  1.2902 -0.9664  1.4535
 2442SOL     OW 8458   0.976   2.282   8.715 -0.7051 -0.4229 -0.5465
 2442SOL    HW1 8459   0.913   2.329   8.659 -2.1330 -0.8097  0.6576
 2442SOL    HW2 8460   1.029   2.231   8.653 -0.0492  1.6376 -1.7648
 2443SOL     OW 8461   8.610   1.433   2.451 -0.0190 -0.1049  0.0309
 2443SOL    HW1 8462   8.628   1.495   2.522  0.1227  0.0843 -0.1694
 2443SOL    HW2 8463   8.688   1.436   2.396  0.2379 -0.9115  0.3400
 2444SOL     OW 8464   6.028   7.874   7.041 -0.0385 -0.0435 -0.0806
 2444SOL    HW1 8465   5.933   7.872   7.032  0.1048 -0.7016 -1.8794
 2444SOL    HW2 8466   6.053   7.784   7.061  0.3589 -0.4307 -2.1098
 2445SOL     OW 8467   2.250   7.459   6.917 -0.1037 -0.7360 -0.0221
 2445SOL    HW1 8468   2.160   7.468   6.949 -0.0473 -0.1215 -0.0226
 2445SOL    HW2 8469   2.249   7.501   6.831  0.6537  1.1746  0.8423
 2446SOL     OW 8470   4.828   4.765   8.367 -0.2866 -0.0331 -0.0152
 2446SOL    HW1 8471   4.829   4.700   8.296 -0.1489  1.6450 -1.6226
 2446SOL    HW2 8472   4.901   4.823   8.347 -0.3541  0.5802  1.4373
 2447SOL     OW 8473   1.999   5.687   0.794  0.5849  0.8454 -0.4772
 2447SOL    HW1 8474   1.918   5.695   0.743 -0.7787 -1.9158  1.0291
 2447SOL    HW2 8475   1.980   5.735   0.875 -1.5539 -3.3953  1.8656
 2448SOL     OW 8476   0.079   5.492   9.004 -0.0583  0.1143  0.2172
 2448SOL    HW1 8477   0.150   5.483   8.940  1.0141  0.4544  1.3135
 2448SOL    HW2 8478   0.039   5.405   9.008  1.2030 -0.4883  0.5650
 2449SOL     OW 8479   6.510   6.499   5.948 -0.2228  0.2803 -0.0636
 2449SOL    HW1 8480   6.452   6.465   6.016  0.0703 -0.5093 -0.1959
 2449SOL    HW2 8481   6.458   6.496   5.868 -0.0782 -0.2083 -0.1408
 2450SOL     OW 8482   2.218   4.516   0.376 -0.1736  0.1063 -0.3517
 2450SOL    HW1 8483   2.124   4.503   0.361  0.0737  0.0240 -2.1408
 2450SOL    HW2 8484   2.247   4.564   0.298  1.5841 -1.4908 -0.7545
 2451SOL     OW 8485   7.250   6.087   6.327  0.3867  0.6722 -0.0654
 2451SOL    HW1 8486   7.327   6.089   6.270  0.4266  0.7626 -0.0079
 2451SOL    HW2 8487   7.236   6.179   6.351  0.3729  0.6335  0.0745
 2452SOL     OW 8488   8.279   1.256   3.530 -0.3500 -0.4512 -0.6047
 2452SOL    HW1 8489   8.225   1.335   3.518  1.3112  0.9786  0.7893
 2452SOL    HW2 8490   8.227   1.201   3.588 -0.2680  1.0477  0.9980
 2453SOL     OW 8491   7.945   2.546   4.184 -0.0223  0.1338 -0.1833
 2453SOL    HW1 8492   7.855   2.517   4.173  0.1524 -0.3492 -0.3696
 2453SOL    HW2 8493   7.942   2.641   4.173 -0.2296 -0.0526 -2.0738
 2454SOL     OW 8494   3.093   7.195   2.524  0.4421 -0.3010  0.2004
 2454SOL    HW1 8495   3.150   7.160   2.592  0.5192 -0.9244 -0.1830
 2454SOL    HW2 8496   3.052   7.118   2.485  0.2067  0.0697 -0.2914
 2455SOL     OW 8497   3.506   2.267   8.976 -0.0243  0.0574  0.3260
 2455SOL    HW1 8498   3.462   2.303   8.900 -1.2212 -0.2253  0.8495
 2455SOL    HW2 8499   3.576   2.212   8.940  0.5216  1.2635 -0.5069
 2456SOL     OW 8500   3.266   8.681   8.641  0.2461 -0.2462 -0.2448
 2456SOL    HW1 8501   3.242   8.634   8.721 -2.0327 -0.7750 -1.1567
 2456SOL    HW2 8502   3.341   8.632   8.606 -0.4143 -1.6243  0.2105
 2457SOL     OW 8503   0.514   8.221   2.316 -0.3432  0.5350  0.3845
 2457SOL    HW1 8504   0.460   8.189   2.244  1.1584  2.3320 -1.6973
 2457SOL    HW2 8505   0.597   8.244   2.275  0.3704  2.2688  2.5840
 2458SOL     OW 8506   8.210   5.029   5.397  0.0136  0.4120  0.1590
 2458SOL    HW1 8507   8.276   4.982   5.450  0.7806  0.8931 -0.3519
 2458SOL    HW2 8508   8.147   4.962   5.374  0.2831 -0.0513  0.7205
 2459SOL     OW 8509   2.005   0.032   5.363 -0.1953 -0.0212  0.0595
 2459SOL    HW1 8510   1.982   0.125   5.363  1.6329  0.4631 -0.3481
 2459SOL    HW2 8511   2.037   0.015   5.275  1.6755 -0.4301  0.7688
 2460SOL     OW 8512   5.855   3.804   1.370  0.3336  0.1841 -0.3025
 2460SOL    HW1 8513   5.942   3.766   1.362  1.1298  1.4455  1.5595
 2460SOL    HW2 8514   5.829   3.786   1.461 -0.7836  0.9492 -0.4418
 2461SOL     OW 8515   4.601   3.837   3.426  0.1294  0.1104 -0.0144
 2461SOL    HW1 8516   4.644   3.786   3.494 -0.5795 -1.5006 -0.7442
 2461SOL    HW2 8517   4.509   3.812   3.430  0.1246 -0.2780 -1.7721
 2462SOL     OW 8518   6.746   2.985   2.210  0.0048  0.2892 -0.4955
 2462SOL    HW1 8519   6.689   3.029   2.147 -1.3637  0.4472  0.7902
 2462SOL    HW2 8520   6.774   3.055   2.270 -0.2651 -0.1618  0.1770
 2463SOL     OW 8521   6.221   8.366   2.263 -0.2107 -0.8884 -0.3328
 2463SOL    HW1 8522   6.287   8.390   2.198  1.5839  0.4127  1.8186
 2463SOL    HW2 8523   6.152   8.433   2.253 -1.1241 -2.0207 -2.3155
 2464SOL     OW 8524   2.865   3.208   3.562  0.2883  0.2473  0.0197
 2464SOL    HW1 8525   2.896   3.298   3.571  1.0150  0.1154 -0.9922
 2464SOL    HW2 8526   2.779   3.209   3.603 -1.1267  2.2026 -2.6770
 2465SOL     OW 8527   3.769   0.246   6.656 -0.0521 -0.6662 -0.2032
 2465SOL    HW1 8528   3.724   0.319   6.614  0.6509 -0.1715 -0.1202
 2465SOL    HW2 8529   3.810   0.285   6.733  1.9339 -0.7143 -1.1688
 2466SOL     OW 8530   6.657   5.100   1.513  0.1941 -0.0553  0.2035
 2466SOL    HW1 8531   6.577   5.057   1.544  2.0676 -2.0295  2.7276
 2466SOL    HW2 8532   6.683   5.157   1.585  0.0152  2.2315 -1.4484
 2467SOL     OW 8533   6.386   7.112   3.938  0.0041 -0.2081  0.1105
 2467SOL    HW1 8534   6.395   7.070   4.023 -1.2928  1.3674  1.0484
 2467SOL    HW2 8535   6.325   7.184   3.951  0.1541  0.3983 -2.0400
 2468SOL     OW 8536   2.237   3.068   3.244  0.5019  0.7263  0.5678
 2468SOL    HW1 8537   2.239   3.099   3.334 -0.0800 -0.3270  0.9585
 2468SOL    HW2 8538   2.276   2.981   3.248  0.6321  0.7402 -0.2304
 2469SOL     OW 8539   0.490   4.498   4.155 -0.1149 -0.1127  0.4897
 2469SOL    HW1 8540   0.444   4.560   4.211 -2.1317 -1.1244  0.0411
 2469SOL    HW2 8541   0.450   4.509   4.069  1.2177 -0.3256 -0.1905
 2470SOL     OW 8542   7.061   3.815   8.960 -0.1509 -0.3348  0.0846
 2470SOL    HW1 8543   7.155   3.803   8.948 -0.1475 -0.7836  0.5366
 2470SOL    HW2 8544   7.031   3.853   8.877  0.6809  1.3596  0.5001
 2471SOL     OW 8545   0.052   6.504   6.238  0.1484 -0.5703 -0.1680
 2471SOL    HW1 8546  -0.031   6.466   6.211  0.4841 -0.4372 -1.4580
 2471SOL    HW2 8547   0.053   6.495   6.333 -2.0660  0.8869  0.0595
 2472SOL     OW 8548   2.071   5.850   2.954 -0.0737  0.1911 -0.5190
 2472SOL    HW1 8549   2.105   5.864   2.866  2.0359 -1.0838  0.0237
 2472SOL    HW2 8550   2.035   5.762   2.953 -1.9020  0.9006 -0.6053
 2473SOL     OW 8551   8.515   6.071   8.193 -0.5777 -0.3620 -0.3255
 2473SOL    HW1 8552   8.590   6.052   8.135 -1.6969 -0.0928 -1.9313
 2473SOL    HW2 8553   8.523   6.164   8.212  0.0436 -0.5451  0.3314
 2474SOL     OW 8554   1.879   8.990   7.865 -0.2932 -0.1086  0.7559
 2474SOL    HW1 8555   1.869   9.078   7.830 -1.8916 -0.9031 -0.9534
 2474SOL    HW2 8556   1.971   8.968   7.850  0.5265  1.7465  2.5659
 2475SOL     OW 8557   8.195   2.632   3.663  0.0704  0.4322 -0.5213
 2475SOL    HW1 8558   8.248   2.562   3.624  2.4930  1.1461  1.2398
 2475SOL    HW2 8559   8.239   2.713   3.636 -0.1203  1.0555  0.9694
 2476SOL     OW 8560   4.088   1.895   6.924 -0.2664  0.1947 -0.1177
 2476SOL    HW1 8561   4.118   1.861   7.009 -0.8511  1.2314  0.5271
 2476SOL    HW2 8562   4.159   1.954   6.897 -1.4709  2.4260  1.2720
 2477SOL     OW 8563   5.100   6.980   3.341  0.1713 -0.0265  0.4844
 2477SOL    HW1 8564   5.193   6.987   3.362  0.3144  2.0663 -0.5756
 2477SOL    HW2 8565   5.064   7.066   3.361 -0.8877  0.1739 -1.9253
 2478SOL     OW 8566   6.771   7.662   4.314  0.0128 -0.0305  0.1580
 2478SOL    HW1 8567   6.722   7.596   4.265  2.1323 -0.7719 -1.0894
 2478SOL    HW2 8568   6.769   7.740   4.259  0.1848 -0.0422  0.1357
 2479SOL     OW 8569   4.082   0.984   2.791 -0.2295 -0.4299 -0.4393
 2479SOL    HW1 8570   4.117   1.040   2.860 -1.3443  0.6569 -0.7176
 2479SOL    HW2 8571   4.157   0.959   2.738  0.6565 -1.2977  1.1573
 2480SOL     OW 8572   3.906   2.285   0.442 -0.0503 -0.4443 -0.2023
 2480SOL    HW1 8573   3.869   2.207   0.483 -0.1785 -0.4609 -0.3485
 2480SOL    HW2 8574   3.861   2.292   0.358 -0.5256  0.1651  0.0881
 2481SOL     OW 8575   8.790   6.135   3.240  0.0879  0.0977 -0.3697
 2481SOL    HW1 8576   8.731   6.177   3.178  1.1980  2.4744  0.0889
 2481SOL    HW2 8577   8.854   6.089   3.186 -0.8910 -0.7034 -0.8864
 2482SOL     OW 8578   1.730   1.200   0.372  0.3650 -0.1857 -0.3079
 2482SOL    HW1 8579   1.659   1.140   0.352 -0.0667  0.3203 -0.3281
 2482SOL    HW2 8580   1.770   1.165   0.452  0.6281 -0.9344 -0.7597
 2483SOL     OW 8581   2.186   0.502   1.108 -0.4066 -0.0527 -0.3821
 2483SOL    HW1 8582   2.182   0.412   1.142 -0.8476 -0.5773 -1.7475
 2483SOL    HW2 8583   2.148   0.556   1.177  1.6040 -0.6326  1.2945
 2484SOL     OW 8584   0.240   7.859   1.745 -0.1216  0.0435 -0.8306
 2484SOL    HW1 8585   0.330   7.833   1.768 -0.3277 -1.7093 -1.7897
 2484SOL    HW2 8586   0.220   7.932   1.804  1.6884  0.0360 -0.1403
 2485SOL     OW 8587   4.311   0.224   4.279  0.0933 -0.2234  0.3368
 2485SOL    HW1 8588   4.218   0.215   4.297  0.1824  0.2879  1.0751
 2485SOL    HW2 8589   4.344   0.283   4.347  0.2896  2.4701 -1.9378
 2486SOL     OW 8590   0.552   3.573   3.849  0.7339 -0.3774 -0.5397
 2486SOL    HW1 8591   0.620   3.641   3.856 -0.1870  0.4099  1.6388
 2486SOL    HW2 8592   0.470   3.620   3.862  0.0092 -1.7707  0.1510
 2487SOL     OW 8593   8.884   5.416   6.273 -0.3322 -0.6108 -0.1484
 2487SOL    HW1 8594   8.941   5.491   6.256 -0.8541 -0.1762 -0.0034
 2487SOL    HW2 8595   8.849   5.392   6.188  0.5055 -1.2509 -0.3326
 2488SOL     OW 8596   0.489   3.827   6.194 -0.4157 -0.4290 -0.9760
 2488SOL    HW1 8597   0.550   3.893   6.162 -1.2269  1.1143  0.4222
 2488SOL    HW2 8598   0.502   3.827   6.289 -1.2754 -1.4239 -0.8398
 2489SOL     OW 8599   7.377   0.404   2.135 -0.8899 -0.1166 -0.4305
 2489SOL    HW1 8600   7.327   0.460   2.075 -2.0511 -0.5889  0.0709
 2489SOL    HW2 8601   7.313   0.374   2.199  0.0146 -0.8809  0.1441
 2490SOL     OW 8602   5.060   8.806   2.950 -0.1369 -0.0521 -0.3460
 2490SOL    HW1 8603   4.972   8.790   2.916  0.0129 -0.6446 -0.4500
 2490SOL    HW2 8604   5.060   8.765   3.037 -0.1375  0.4290 -0.1139
 2491SOL     OW 8605   6.658   4.407   8.160  0.2726  0.6845  0.3321
 2491SOL    HW1 8606   6.629   4.386   8.072  2.5909 -1.5270 -0.0155
 2491SOL    HW2 8607   6.580   4.399   8.215 -1.4376  3.0623 -1.5510
 2492SOL     OW 8608   6.229   1.726   7.182 -0.7489 -0.9390 -0.1806
 2492SOL    HW1 8609   6.180   1.807   7.168  0.5232 -0.0771  0.1071
 2492SOL    HW2 8610   6.309   1.755   7.226 -0.4272 -2.4093  0.2418
 2493SOL     OW 8611   0.688   9.060   1.080 -0.4389  0.5374  0.6661
 2493SOL    HW1 8612   0.602   9.086   1.114 -0.3982  0.6298  0.6999
 2493SOL    HW2 8613   0.685   9.084   0.987 -0.1253  1.3800  0.8649
 2494SOL     OW 8614   6.261   2.623   3.278 -0.0124  0.7442  0.0166
 2494SOL    HW1 8615   6.283   2.541   3.322 -3.2039 -0.1232  0.2283
 2494SOL    HW2 8616   6.346   2.662   3.256  1.6256 -1.5006  1.8972
 2495SOL     OW 8617   7.876   5.942   6.636  0.5344 -0.0898 -0.3602
 2495SOL    HW1 8618   7.869   5.937   6.732  0.1396 -0.6775 -0.4117
 2495SOL    HW2 8619   7.968   5.961   6.619  0.7294 -0.5916  0.1182
 2496SOL     OW 8620   0.742   6.623   2.938 -0.3044 -0.0338  0.0190
 2496SOL    HW1 8621   0.712   6.540   2.974  1.8492 -1.1827 -0.6446
 2496SOL    HW2 8622   0.672   6.651   2.880 -0.9428 -1.5453  0.0242
 2497SOL     OW 8623   9.070   0.695   5.644  0.3383 -0.2310 -0.1494
 2497SOL    HW1 8624   9.025   0.633   5.701 -1.1159  0.3823 -0.6083
 2497SOL    HW2 8625   9.135   0.641   5.598 -1.3769 -1.6121 -1.0886
 2498SOL     OW 8626   4.262   8.002   7.806 -0.3699  0.5147  0.2934
 2498SOL    HW1 8627   4.231   7.932   7.749 -0.4734  1.2540 -0.5704
 2498SOL    HW2 8628   4.323   7.959   7.866  1.7211  0.1238 -1.9724
 2499SOL     OW 8629   7.975   4.497   5.295 -0.6536 -0.0608 -0.5233
 2499SOL    HW1 8630   7.981   4.520   5.203 -0.1862  0.9129 -0.2525
 2499SOL    HW2 8631   7.991   4.578   5.342  0.1034 -0.7357  0.4361
 2500SOL     OW 8632   5.821   3.117   1.713 -0.0238  0.0414 -0.0477
 2500SOL    HW1 8633   5.864   3.032   1.713 -1.2666 -0.6197  1.0171
 2500SOL    HW2 8634   5.885   3.176   1.673  1.4782 -1.0619  0.6283
 2501SOL     OW 8635   3.927   5.034   2.620  0.3838  0.1450  0.5439
 2501SOL    HW1 8636   3.855   5.056   2.679  1.6879  0.6693  2.0337
 2501SOL    HW2 8637   3.955   4.947   2.647  1.0451  0.4218  0.7875
 2502SOL     OW 8638   0.524   6.936   8.037 -0.1172 -0.2380  0.2151
 2502SOL    HW1 8639   0.553   7.022   8.007  0.8719 -0.9285 -0.8711
 2502SOL    HW2 8640   0.543   6.936   8.131 -0.9454  1.0374  0.4078
 2503SOL     OW 8641   5.103   4.785   0.182 -0.3013 -0.0414 -0.4446
 2503SOL    HW1 8642   5.076   4.829   0.263  1.1116 -0.2716  0.1924
 2503SOL    HW2 8643   5.021   4.752   0.144 -1.1455  1.3084  0.1366
 2504SOL     OW 8644   7.283   0.109   5.426 -0.1998 -0.0957  0.6480
 2504SOL    HW1 8645   7.366   0.062   5.430  0.7616  1.4738  0.1188
 2504SOL    HW2 8646   7.217   0.040   5.414  1.1424 -1.2928 -0.2655
 2505SOL     OW 8647   8.750   8.702   2.937 -0.8956 -0.0492  0.1702
 2505SOL    HW1 8648   8.693   8.696   3.014 -0.0253  1.6221  1.0091
 2505SOL    HW2 8649   8.786   8.791   2.941  3.1006 -1.4724  0.6498
 2506SOL     OW 8650   2.098   3.629   6.495 -0.0874  1.1824 -0.3782
 2506SOL    HW1 8651   2.023   3.585   6.455  0.1343  0.2621  0.1922
 2506SOL    HW2 8652   2.090   3.609   6.588  1.7901 -0.4081 -0.4912
 2507SOL     OW 8653   3.246   2.732   3.082  0.4608 -0.0769  0.2203
 2507SOL    HW1 8654   3.247   2.768   2.994  0.2756 -0.0826  0.2156
 2507SOL    HW2 8655   3.263   2.808   3.139  0.5997 -0.0768  0.1805
 2508SOL     OW 8656   8.881   3.438   0.510 -0.8728  0.0214 -0.7127
 2508SOL    HW1 8657   8.864   3.344   0.521  1.3814 -0.3969 -0.2509
 2508SOL    HW2 8658   8.874   3.473   0.599 -2.3431  0.4466 -0.9729
 2509SOL     OW 8659   6.260   7.215   0.782 -0.0711 -0.5737  0.5269
 2509SOL    HW1 8660   6.266   7.306   0.811 -1.3968 -0.6937  1.2353
 2509SOL    HW2 8661   6.351   7.187   0.770  0.3761  0.5351  1.2600
 2510SOL     OW 8662   2.289   5.210   2.327 -0.2386 -0.7295  0.1891
 2510SOL    HW1 8663   2.272   5.149   2.256  0.2409 -1.2381  0.4976
 2510SOL    HW2 8664   2.203   5.241   2.354 -0.3786  0.0113 -1.0709
 2511SOL     OW 8665   0.920   4.391   2.236 -0.2368  0.0659  0.4706
 2511SOL    HW1 8666   0.949   4.320   2.293  1.8164  1.1892  0.9121
 2511SOL    HW2 8667   0.963   4.375   2.152 -0.7807  0.1013  0.1792
 2512SOL     OW 8668   7.712   2.746   8.921 -0.2368 -0.0920  0.6557
 2512SOL    HW1 8669   7.687   2.836   8.942 -0.3302 -0.3748  1.8428
 2512SOL    HW2 8670   7.746   2.710   9.004  1.0773 -0.7314 -0.1226
 2513SOL     OW 8671   5.376   2.760   2.490 -0.1183  0.0171  0.6127
 2513SOL    HW1 8672   5.363   2.668   2.512 -1.8965 -0.0768 -0.6276
 2513SOL    HW2 8673   5.444   2.760   2.424  0.0330 -0.3793  0.7662
 2514SOL     OW 8674   1.117   8.568   6.975 -0.0819  0.3298  0.4831
 2514SOL    HW1 8675   1.124   8.504   6.904 -1.1988  1.4238 -0.6606
 2514SOL    HW2 8676   1.206   8.575   7.010  1.1344  1.6705 -2.5358
 2515SOL     OW 8677   7.641   0.299   1.438 -0.8325  0.2149  0.4053
 2515SOL    HW1 8678   7.669   0.288   1.529 -1.6378 -1.9386  0.4571
 2515SOL    HW2 8679   7.718   0.275   1.387 -0.3372  1.5556  0.4885
 2516SOL     OW 8680   5.306   2.318   2.264  0.0490 -0.3586 -0.0244
 2516SOL    HW1 8681   5.365   2.358   2.201 -0.4511 -0.4622 -0.5681
 2516SOL    HW2 8682   5.223   2.308   2.217 -0.3772 -0.3078  0.6879
 2517SOL     OW 8683   2.893   1.300   6.116 -0.2678  0.1794  0.1947
 2517SOL    HW1 8684   2.834   1.330   6.186  0.6944  1.1363  0.6228
 2517SOL    HW2 8685   2.951   1.238   6.160 -0.4017 -0.1093 -0.0328
 2518SOL     OW 8686   5.673   8.505   0.389 -0.0656 -0.0377  0.0609
 2518SOL    HW1 8687   5.635   8.420   0.367 -1.5370  0.4468  0.6032
 2518SOL    HW2 8688   5.754   8.484   0.437 -0.7110 -1.1364  0.7067
 2519SOL     OW 8689   0.016   8.913   7.890 -0.4223  0.0363  0.4024
 2519SOL    HW1 8690   0.050   8.828   7.919 -0.5035  0.0750  0.6157
 2519SOL    HW2 8691  -0.065   8.891   7.844 -1.8494  0.1710  2.6917
 2520SOL     OW 8692   2.785   4.341   8.647  0.0168 -0.1860  0.0609
 2520SOL    HW1 8693   2.744   4.256   8.659 -0.3168 -0.2106 -1.2102
 2520SOL    HW2 8694   2.796   4.350   8.553  2.1269  0.1974  0.2828
 2521SOL     OW 8695   1.500   6.632   1.283  0.8623  0.3144  0.5455
 2521SOL    HW1 8696   1.581   6.583   1.272  0.5687 -0.3093  1.0846
 2521SOL    HW2 8697   1.487   6.635   1.378 -1.1372 -1.9669  0.4514
 2522SOL     OW 8698   3.306   2.030   7.354 -0.0050  0.1052  0.1775
 2522SOL    HW1 8699   3.252   1.952   7.369 -1.4014  1.1931  1.0837
 2522SOL    HW2 8700   3.256   2.084   7.293 -0.1483  1.2933  1.2902
 2523SOL     OW 8701   2.975   8.492   8.529  0.0660  0.5998 -0.2295
 2523SOL    HW1 8702   2.880   8.500   8.521  0.0473 -0.2736 -1.0193
 2523SOL    HW2 8703   2.991   8.481   8.623 -0.7776 -0.9551 -0.2337
 2524SOL     OW 8704   3.556   2.893   3.850  0.0703 -0.7720 -0.6355
 2524SOL    HW1 8705   3.617   2.819   3.847  2.7940  1.3062 -0.3190
 2524SOL    HW2 8706   3.551   2.917   3.942 -0.5692 -0.3629 -0.7699
 2525SOL     OW 8707   0.205   8.548   0.576  0.0441  0.0469  0.6346
 2525SOL    HW1 8708   0.165   8.595   0.650  1.2141  0.7046  0.8715
 2525SOL    HW2 8709   0.242   8.469   0.616  0.3064  0.1939  0.6853
 2526SOL     OW 8710   7.480   5.496   4.151  0.0097  0.2611  0.1556
 2526SOL    HW1 8711   7.452   5.559   4.217 -0.3371  0.9287 -0.6244
 2526SOL    HW2 8712   7.513   5.549   4.079 -0.7935 -0.4216 -0.7340
 2527SOL     OW 8713   6.762   7.057   6.297  0.0404 -0.3214  0.4176
 2527SOL    HW1 8714   6.697   7.066   6.227  0.3725 -3.7090 -0.5320
 2527SOL    HW2 8715   6.844   7.085   6.257  0.0780 -1.4114 -0.3105
 2528SOL     OW 8716   4.435   1.917   3.633  0.0290 -0.2498  0.2577
 2528SOL    HW1 8717   4.368   1.850   3.645 -0.5247  0.1095 -0.7049
 2528SOL    HW2 8718   4.392   1.985   3.581  0.5663  0.8769  1.2225
 2529SOL     OW 8719   2.015   3.862   3.284 -0.7067  0.2000  0.3212
 2529SOL    HW1 8720   1.957   3.910   3.224 -1.4687  1.2520  1.8453
 2529SOL    HW2 8721   1.967   3.781   3.303 -0.5360 -0.0642 -0.3211
 2530SOL     OW 8722   8.976   5.080   5.241 -0.4739 -0.0513  0.3294
 2530SOL    HW1 8723   8.892   5.042   5.268  0.3932 -1.9646  0.4229
 2530SOL    HW2 8724   9.033   5.068   5.317  0.5335 -0.8381 -0.5341
 2531SOL     OW 8725   7.569   0.664   0.188  0.2244 -0.0042  0.0031
 2531SOL    HW1 8726   7.523   0.659   0.104 -0.4192  0.8562  0.2797
 2531SOL    HW2 8727   7.525   0.736   0.234  0.6187 -0.4100  1.0408
 2532SOL     OW 8728   8.544   5.713   5.957  0.3391 -0.7153  0.6032
 2532SOL    HW1 8729   8.509   5.727   5.868  1.0695  2.0436  0.6638
 2532SOL    HW2 8730   8.632   5.679   5.942  0.8787  0.7830  0.1900
 2533SOL     OW 8731   7.675   0.288   7.837 -0.1204  0.4208  0.0596
 2533SOL    HW1 8732   7.735   0.336   7.893 -1.5839  2.2399  0.2045
 2533SOL    HW2 8733   7.692   0.322   7.749  0.0421 -0.1264 -0.1254
 2534SOL     OW 8734   4.367   6.206   8.334  0.4147 -0.1408 -0.5387
 2534SOL    HW1 8735   4.451   6.236   8.299  0.5455 -1.0136 -0.9806
 2534SOL    HW2 8736   4.302   6.258   8.287  0.6590 -0.1946 -0.9422
 2535SOL     OW 8737   4.427   1.827   7.808 -0.5589 -0.7710  0.3756
 2535SOL    HW1 8738   4.414   1.880   7.729 -0.6873 -0.4442  0.6136
 2535SOL    HW2 8739   4.444   1.738   7.775  1.1505 -0.3170 -0.0814
 2536SOL     OW 8740   3.208   0.276   7.626 -0.1048  0.4905 -0.4519
 2536SOL    HW1 8741   3.155   0.199   7.604 -0.8685  0.1131  2.3552
 2536SOL    HW2 8742   3.297   0.243   7.632 -0.2829  0.0355 -0.2600
 2537SOL     OW 8743   8.654   7.322   5.144 -0.0603  0.0639  0.1980
 2537SOL    HW1 8744   8.719   7.297   5.209  0.0925  0.5138  0.2173
 2537SOL    HW2 8745   8.602   7.390   5.186  0.1904  0.5262 -0.2385
 2538SOL     OW 8746   4.957   0.191   0.437 -0.2770  0.0809 -0.1779
 2538SOL    HW1 8747   4.983   0.103   0.465 -0.4430 -1.2441 -3.7088
 2538SOL    HW2 8748   5.039   0.240   0.434  0.1980 -0.7086 -0.4598
 2539SOL     OW 8749   2.999   3.585   2.648 -0.5503 -0.3339 -0.1698
 2539SOL    HW1 8750   2.955   3.669   2.660 -1.0789 -0.6858  0.3396
 2539SOL    HW2 8751   3.092   3.608   2.644 -0.5245  0.0906  1.8864
 2540SOL     OW 8752   4.279   9.078   7.730  0.6748  0.1799  0.4611
 2540SOL    HW1 8753   4.227   9.140   7.782  0.6080 -0.5643  1.3278
 2540SOL    HW2 8754   4.368   9.112   7.734  0.4108  0.9748 -0.2618
 2541SOL     OW 8755   5.626   4.631   7.498  0.1078  0.1432  0.3042
 2541SOL    HW1 8756   5.630   4.709   7.553  2.3774 -0.4658  1.1252
 2541SOL    HW2 8757   5.622   4.558   7.560  0.3898 -0.4723 -0.3841
 2542SOL     OW 8758   7.765   3.810   5.986 -0.6883  0.1879  0.2795
 2542SOL    HW1 8759   7.681   3.850   5.963 -0.1605  1.0701 -0.1610
 2542SOL    HW2 8760   7.769   3.817   6.081 -1.1179  0.1202  0.3060
 2543SOL     OW 8761   0.443   5.389   4.506 -0.8593  0.0438  0.0614
 2543SOL    HW1 8762   0.410   5.347   4.426  1.6369 -2.1957  0.0553
 2543SOL    HW2 8763   0.508   5.452   4.474  1.2081 -1.8580  0.1930
 2544SOL     OW 8764   8.912   5.508   2.324  0.0525 -0.3252 -0.1366
 2544SOL    HW1 8765   8.833   5.501   2.271 -0.4062  1.2577  0.2758
 2544SOL    HW2 8766   8.980   5.467   2.272 -0.4230  1.0108 -1.9058
 2545SOL     OW 8767   2.492   1.783   5.989  0.1397  0.2484  0.3147
 2545SOL    HW1 8768   2.489   1.879   5.995  2.0801  0.3574  0.4381
 2545SOL    HW2 8769   2.495   1.754   6.080  0.9922  0.1786  0.2743
 2546SOL     OW 8770   1.620   5.176   0.416 -0.6003 -0.0968  0.0836
 2546SOL    HW1 8771   1.538   5.150   0.374 -0.0287  0.1618 -1.2487
 2546SOL    HW2 8772   1.669   5.221   0.347  0.0869  1.0031  1.2295
 2547SOL     OW 8773   3.003   3.860   8.137 -0.2254  0.8524  0.0188
 2547SOL    HW1 8774   3.030   3.769   8.151 -1.1509  0.5214 -0.3153
 2547SOL    HW2 8775   3.085   3.909   8.138  0.3776 -0.1048 -0.7306
 2548SOL     OW 8776   3.279   3.931   5.413 -0.3114  0.1790  0.2179
 2548SOL    HW1 8777   3.315   4.018   5.431  0.3745  0.2562 -1.3611
 2548SOL    HW2 8778   3.251   3.934   5.322 -2.2109 -0.6412  0.7221
 2549SOL     OW 8779   4.646   3.157   6.183 -0.1547  0.2730 -0.0545
 2549SOL    HW1 8780   4.622   3.199   6.266 -0.6156 -0.9651  0.4624
 2549SOL    HW2 8781   4.716   3.213   6.148 -1.0297  1.7062  0.3716
 2550SOL     OW 8782   1.129   1.487   6.961  0.5540 -0.0993  0.2931
 2550SOL    HW1 8783   1.123   1.558   6.897 -0.5982 -0.5009 -0.0670
 2550SOL    HW2 8784   1.093   1.411   6.916  0.0235 -0.4745  1.3141
 2551SOL     OW 8785   7.482   3.279   4.261 -0.2345  0.0084 -0.0243
 2551SOL    HW1 8786   7.542   3.277   4.186  0.4274  1.0025  0.4619
 2551SOL    HW2 8787   7.401   3.314   4.225  0.4043  1.5122 -0.0890
 2552SOL     OW 8788   3.734   8.744   6.547 -0.3005  0.7748  0.0580
 2552SOL    HW1 8789   3.654   8.693   6.535  0.4251 -0.5829  0.8335
 2552SOL    HW2 8790   3.803   8.689   6.512  0.4286  1.5084  0.3171
 2553SOL     OW 8791   8.164   7.537   8.236  0.2806 -0.1329 -0.0432
 2553SOL    HW1 8792   8.189   7.448   8.261 -0.7184 -0.1327  1.0761
 2553SOL    HW2 8793   8.150   7.582   8.319 -1.3716  0.4261 -0.5855
 2554SOL     OW 8794   2.218   1.662   5.533 -0.1263 -0.2859  0.6416
 2554SOL    HW1 8795   2.206   1.750   5.497  0.3605 -1.1669 -1.8924
 2554SOL    HW2 8796   2.299   1.668   5.583 -0.1392  0.7203  0.5673
 2555SOL     OW 8797   6.485   7.845   0.821  0.0902  0.5366 -0.3453
 2555SOL    HW1 8798   6.506   7.786   0.748  0.2231 -0.2464  0.3137
 2555SOL    HW2 8799   6.570   7.877   0.852 -0.0447  2.4831 -1.8045
 2556SOL     OW 8800   2.293   6.689   3.788  0.5196 -0.2858  0.2757
 2556SOL    HW1 8801   2.337   6.754   3.843 -1.5717  0.9329  0.6268
 2556SOL    HW2 8802   2.266   6.620   3.849 -2.7465  1.5693  1.1489
 2557SOL     OW 8803   0.832   7.677   2.619 -0.0680 -0.2773 -0.2421
 2557SOL    HW1 8804   0.758   7.637   2.575  0.7334 -1.1752 -0.8181
 2557SOL    HW2 8805   0.794   7.729   2.690 -1.2473 -0.4632 -0.7299
 2558SOL     OW 8806   1.415   8.368   0.464 -0.0649  0.4451 -0.2178
 2558SOL    HW1 8807   1.403   8.275   0.485 -2.4842  0.3023 -1.8916
 2558SOL    HW2 8808   1.356   8.414   0.524  0.6288  0.8974  0.1421
 2559SOL     OW 8809   4.020   6.646   0.263  0.0126 -0.3859  0.8517
 2559SOL    HW1 8810   4.018   6.555   0.292  0.5946 -0.1790  1.5767
 2559SOL    HW2 8811   4.064   6.693   0.334  2.9534 -0.0970 -0.9712
 2560SOL     OW 8812   2.117   4.488   7.255 -0.1626 -0.4316 -0.3455
 2560SOL    HW1 8813   2.187   4.474   7.190 -0.0486  0.4332 -0.4290
 2560SOL    HW2 8814   2.054   4.544   7.209 -0.2607 -0.1195  0.1615
 2561SOL     OW 8815   2.234   8.653   0.613  0.5098 -0.1597  0.6742
 2561SOL    HW1 8816   2.200   8.646   0.702 -0.5203  0.5242  0.3531
 2561SOL    HW2 8817   2.299   8.583   0.607  2.6191  1.4899  2.8320
 2562SOL     OW 8818   3.040   6.899   1.527  0.2922  0.0738  1.1579
 2562SOL    HW1 8819   3.134   6.911   1.518  0.3190 -0.0972  1.1966
 2562SOL    HW2 8820   3.002   6.982   1.498  0.3775 -0.4003 -0.4333
 2563SOL     OW 8821   6.677   8.401   0.893 -0.1149 -0.1455 -0.3074
 2563SOL    HW1 8822   6.672   8.355   0.810  0.2558  1.0587 -1.0258
 2563SOL    HW2 8823   6.762   8.375   0.929 -1.4115 -2.8701  1.0996
 2564SOL     OW 8824   7.870   2.893   5.903  0.3283  0.5184  0.0042
 2564SOL    HW1 8825   7.884   2.898   5.808 -3.5177  3.2299 -0.6333
 2564SOL    HW2 8826   7.812   2.819   5.915  1.4873 -0.3566  0.4503
 2565SOL     OW 8827   6.789   1.776   2.362 -0.1832 -0.6605 -0.2443
 2565SOL    HW1 8828   6.869   1.830   2.359 -1.3067  1.0417 -1.5450
 2565SOL    HW2 8829   6.777   1.757   2.455  0.8286  0.5174  0.1657
 2566SOL     OW 8830   8.422   4.562   5.140  0.1571 -0.0833  0.1236
 2566SOL    HW1 8831   8.348   4.620   5.120  0.3471  0.2872  0.4639
 2566SOL    HW2 8832   8.471   4.556   5.058 -0.7586 -1.1040 -0.3770
 2567SOL     OW 8833   7.084   4.079   0.837  0.2606  0.1378  0.6816
 2567SOL    HW1 8834   7.114   4.002   0.887  0.2346 -0.3081  0.0218
 2567SOL    HW2 8835   7.081   4.049   0.746  2.5745  1.5955  0.0426
 2568SOL     OW 8836   8.746   0.097   0.551 -0.1443  0.0415  0.1769
 2568SOL    HW1 8837   8.742   0.012   0.507  0.9553  0.4799 -0.8535
 2568SOL    HW2 8838   8.675   0.095   0.615 -0.2842 -1.5568  0.0150
 2569SOL     OW 8839   1.170   8.286   5.414  0.3574 -0.4852  0.4144
 2569SOL    HW1 8840   1.074   8.277   5.410  0.2595 -0.6591  2.2730
 2569SOL    HW2 8841   1.203   8.211   5.366 -0.4629 -1.4254  1.2666
 2570SOL     OW 8842   5.928   3.816   8.708  0.1655 -0.4937 -0.3182
 2570SOL    HW1 8843   5.850   3.805   8.654 -0.0734 -3.2066  0.4295
 2570SOL    HW2 8844   5.915   3.900   8.752 -2.4929 -0.9833 -0.0004
 2571SOL     OW 8845   6.457   5.182   5.088 -0.1672  0.4380 -0.0227
 2571SOL    HW1 8846   6.536   5.133   5.113  0.3573 -0.4536 -2.9887
 2571SOL    HW2 8847   6.390   5.153   5.149  1.1735 -0.8111  0.9248
 2572SOL     OW 8848   5.359   6.134   8.007  0.0367  0.6035 -0.0715
 2572SOL    HW1 8849   5.301   6.126   7.931 -0.3697  1.8777  0.0735
 2572SOL    HW2 8850   5.339   6.221   8.043  0.0421 -0.0728  1.6443
 2573SOL     OW 8851   8.727   4.960   5.338  0.1898 -0.2776 -0.0428
 2573SOL    HW1 8852   8.656   4.936   5.279  0.5713  0.8212 -1.0072
 2573SOL    HW2 8853   8.738   4.885   5.395 -1.2056 -0.7780 -0.3960
 2574SOL     OW 8854   3.990   7.385   2.333 -0.2886 -0.7684 -0.3989
 2574SOL    HW1 8855   4.023   7.474   2.331  0.5604 -1.0629  0.0454
 2574SOL    HW2 8856   4.050   7.338   2.390 -0.3466 -1.7773 -1.1406
 2575SOL     OW 8857   0.055   5.849   8.820  0.3175  0.1366 -0.4367
 2575SOL    HW1 8858  -0.006   5.888   8.757 -0.5202  0.2056  0.3885
 2575SOL    HW2 8859   0.072   5.761   8.787  0.2402  0.3296 -0.9908
 2576SOL     OW 8860   0.134   2.149   7.130 -0.5127  0.2069 -0.5216
 2576SOL    HW1 8861   0.116   2.056   7.119 -1.1721  0.1965  0.4913
 2576SOL    HW2 8862   0.191   2.152   7.208  0.9829  0.5240 -1.5854
 2577SOL     OW 8863   8.923   9.089   3.791  0.1363  0.2497  0.1037
 2577SOL    HW1 8864   8.832   9.065   3.804  0.0834  0.8256  0.8592
 2577SOL    HW2 8865   8.935   9.089   3.696 -0.4844 -0.4035  0.0199
 2578SOL     OW 8866   0.667   6.583   8.829  0.0987 -0.2339 -0.0649
 2578SOL    HW1 8867   0.589   6.533   8.853 -0.2523  0.5919  0.5290
 2578SOL    HW2 8868   0.739   6.520   8.835 -0.6195 -1.2673 -1.5688
 2579SOL     OW 8869   0.598   4.737   4.672  0.4635  0.0172 -0.0037
 2579SOL    HW1 8870   0.507   4.749   4.643  1.2012  0.9941 -2.1230
 2579SOL    HW2 8871   0.625   4.655   4.632  0.7380  0.0902  0.0327
 2580SOL     OW 8872   6.409   1.634   2.579  0.4165  0.0310  0.4022
 2580SOL    HW1 8873   6.317   1.610   2.569  0.3743  0.7984 -1.3840
 2580SOL    HW2 8874   6.437   1.588   2.658 -1.2232 -0.9988  0.4342
 2581SOL     OW 8875   6.464   2.287   1.920  0.0723 -0.0603 -0.3459
 2581SOL    HW1 8876   6.451   2.329   2.005  0.8697  1.1749 -0.8089
 2581SOL    HW2 8877   6.556   2.262   1.920  0.4984  1.3777 -1.4350
 2582SOL     OW 8878   3.627   6.366   4.483 -0.3086 -0.4904 -0.2988
 2582SOL    HW1 8879   3.626   6.283   4.435 -1.7687  0.0911 -1.3368
 2582SOL    HW2 8880   3.564   6.353   4.554 -1.5269  0.1275 -1.2320
 2583SOL     OW 8881   8.245   6.563   4.195 -0.5173  0.2601 -0.1551
 2583SOL    HW1 8882   8.194   6.603   4.266 -1.1488  1.0893 -1.0413
 2583SOL    HW2 8883   8.179   6.534   4.131  0.0668  0.2243 -0.7550
 2584SOL     OW 8884   6.896   3.000   3.229 -0.2216 -0.8754  0.0739
 2584SOL    HW1 8885   6.803   3.020   3.221  0.3096  2.1260  0.2224
 2584SOL    HW2 8886   6.900   2.927   3.291 -2.4387 -0.6159  0.6081
 2585SOL     OW 8887   0.740   5.995   4.749  0.5440  0.4435  0.5689
 2585SOL    HW1 8888   0.770   6.056   4.682  2.7417 -1.6015 -0.4917
 2585SOL    HW2 8889   0.783   6.024   4.829 -0.3561  1.6377  0.6411
 2586SOL     OW 8890   1.760   4.852   1.254 -0.2273 -0.4547  0.2209
 2586SOL    HW1 8891   1.766   4.757   1.268  0.1433 -0.5715 -0.6833
 2586SOL    HW2 8892   1.843   4.886   1.287  0.6332 -0.7268 -1.5546
 2587SOL     OW 8893   4.858   6.649   8.326 -0.1589  0.0611 -0.0407
 2587SOL    HW1 8894   4.869   6.739   8.295 -1.3783 -0.0696 -0.8946
 2587SOL    HW2 8895   4.767   6.645   8.357  0.3606 -0.4346  1.5480
 2588SOL     OW 8896   1.602   8.778   6.833 -0.1007 -0.0126  0.2767
 2588SOL    HW1 8897   1.526   8.722   6.815  1.0410 -1.9801  1.3027
 2588SOL    HW2 8898   1.631   8.752   6.920  1.4087  1.1334  0.1563
 2589SOL     OW 8899   1.796   8.232   0.056  0.1130  0.6574  0.2501
 2589SOL    HW1 8900   1.854   8.200   0.126 -0.0260  1.6728  0.8570
 2589SOL    HW2 8901   1.722   8.173   0.058 -0.6672  1.5916  2.1078
 2590SOL     OW 8902   1.634   4.789   5.320  0.6306 -0.0918  0.5849
 2590SOL    HW1 8903   1.610   4.712   5.372 -2.0449 -1.2462 -2.0798
 2590SOL    HW2 8904   1.614   4.765   5.230  2.9563  2.5825 -0.8003
 2591SOL     OW 8905   0.957   0.503   5.002  0.1210 -0.0618  0.4196
 2591SOL    HW1 8906   0.944   0.432   4.939  0.1537 -0.0448  0.3938
 2591SOL    HW2 8907   1.042   0.485   5.040  1.1729  1.2024 -1.2009
 2592SOL     OW 8908   1.106   8.797   0.078  0.0809  0.0805  0.2067
 2592SOL    HW1 8909   1.073   8.742   0.007  0.6402 -0.2531  0.2002
 2592SOL    HW2 8910   1.043   8.868   0.084  1.6099  1.8889 -2.7488
 2593SOL     OW 8911   4.880   1.258   8.704 -0.1780 -0.6280 -0.0919
 2593SOL    HW1 8912   4.966   1.220   8.688 -0.4105 -0.7404 -1.2051
 2593SOL    HW2 8913   4.898   1.343   8.745  0.4273 -0.9825  0.3787
 2594SOL     OW 8914   5.422   9.011   2.338 -0.2503 -0.1226 -0.5463
 2594SOL    HW1 8915   5.349   8.950   2.348 -1.0240  0.8103 -0.3464
 2594SOL    HW2 8916   5.471   8.978   2.263  0.0216 -1.6453  0.2573
 2595SOL     OW 8917   4.843   1.846   6.471 -0.4042  0.0939  0.6746
 2595SOL    HW1 8918   4.838   1.923   6.414 -0.4274  1.8948  2.9831
 2595SOL    HW2 8919   4.762   1.798   6.454 -0.6709  0.8690 -0.3632
 2596SOL     OW 8920   8.839   6.949   0.041 -0.3596 -0.0360  0.3499
 2596SOL    HW1 8921   8.900   6.953  -0.033 -0.5455  1.4176  0.2431
 2596SOL    HW2 8922   8.757   6.920   0.002  0.3824 -2.7635  0.6218
 2597SOL     OW 8923   4.043   6.787   7.738  0.2870  0.7458 -0.1624
 2597SOL    HW1 8924   4.000   6.818   7.659 -0.2331  2.7022  0.7977
 2597SOL    HW2 8925   4.133   6.821   7.732  0.4257  0.3741 -0.2000
 2598SOL     OW 8926   3.411   7.937   8.018  0.6871  0.4279 -0.3742
 2598SOL    HW1 8927   3.371   7.967   7.936 -3.4525  1.1328  1.6286
 2598SOL    HW2 8928   3.362   7.857   8.040  3.7520 -1.4725  0.0470
 2599SOL     OW 8929   6.732   0.604   3.938  0.1831  0.3663  0.1800
 2599SOL    HW1 8930   6.655   0.562   3.900 -0.0458  1.2161 -0.3418
 2599SOL    HW2 8931   6.697   0.666   4.002  0.5994 -1.5317  2.3428
 2600SOL     OW 8932   6.974   6.166   6.911  0.2572  0.3693  0.0819
 2600SOL    HW1 8933   7.039   6.100   6.888 -0.8444 -0.8585  0.3622
 2600SOL    HW2 8934   6.984   6.179   7.005  2.0410  2.3995 -0.3011
 2601SOL     OW 8935   2.902   2.937   3.590 -0.6754  0.5351  1.0430
 2601SOL    HW1 8936   2.898   3.033   3.595 -2.2154  0.5117  0.8274
 2601SOL    HW2 8937   2.810   2.910   3.579 -0.1651 -0.9118  0.1474
 2602SOL     OW 8938   1.996   4.350   7.458 -0.3025 -0.1006 -0.2491
 2602SOL    HW1 8939   2.057   4.285   7.492  0.3844  1.2462  1.1921
 2602SOL    HW2 8940   2.045   4.395   7.389 -0.8128 -1.1501 -1.3154
 2603SOL     OW 8941   0.546   0.134   8.917  0.0710  0.0860 -0.3055
 2603SOL    HW1 8942   0.622   0.179   8.953  0.6127 -0.0958 -1.1835
 2603SOL    HW2 8943   0.471   0.173   8.961  0.6103  1.0060 -0.1922
 2604SOL     OW 8944   5.846   3.045   5.388  0.7032  0.7040  0.5257
 2604SOL    HW1 8945   5.813   2.974   5.333 -1.9307  0.6018  2.0416
 2604SOL    HW2 8946   5.799   3.123   5.357  0.8411  1.0571  1.1892
 2605SOL     OW 8947   6.730   9.020   2.581  0.4282 -0.3881  0.2201
 2605SOL    HW1 8948   6.644   9.048   2.615 -0.1177 -1.6627 -0.0322
 2605SOL    HW2 8949   6.736   8.928   2.606  1.0163 -0.7504 -1.1821
 2606SOL     OW 8950   4.985   0.940   6.488 -0.0572  0.0229 -0.7550
 2606SOL    HW1 8951   5.013   0.848   6.488 -0.2896 -0.0598  0.6293
 2606SOL    HW2 8952   4.949   0.953   6.400 -0.9195 -1.4819 -0.6628
 2607SOL     OW 8953   6.991   0.281   0.365 -0.0207  0.2117  0.1194
 2607SOL    HW1 8954   7.010   0.189   0.385 -0.5043  0.3509  1.2922
 2607SOL    HW2 8955   7.044   0.331   0.426  0.4551  0.7368 -0.7052
 2608SOL     OW 8956   1.910   2.553   0.554  0.2693  0.5918  0.7933
 2608SOL    HW1 8957   1.833   2.499   0.537  0.8667  0.3653 -1.5874
 2608SOL    HW2 8958   1.949   2.516   0.633  0.3817 -2.2088 -0.4489
 2609SOL     OW 8959   8.452   5.848   0.607 -0.2745 -0.4586  0.0207
 2609SOL    HW1 8960   8.532   5.842   0.555 -0.2713  1.3913 -0.2534
 2609SOL    HW2 8961   8.385   5.878   0.545 -1.0080 -1.1995  0.4236
 2610SOL     OW 8962   3.831   6.257   6.524  0.1194  0.5040  0.3276
 2610SOL    HW1 8963   3.820   6.246   6.619  0.7022 -0.4741  0.3008
 2610SOL    HW2 8964   3.767   6.197   6.486  0.0506  0.7164  0.1118
 2611SOL     OW 8965   8.794   0.915   6.506  0.4057 -0.2166  0.8913
 2611SOL    HW1 8966   8.835   0.884   6.587  1.5005  1.3773  1.0142
 2611SOL    HW2 8967   8.859   0.895   6.438  0.1321 -0.2366  0.6367
 2612SOL     OW 8968   7.871   5.274   8.913  0.4353 -0.0319 -0.1090
 2612SOL    HW1 8969   7.849   5.274   8.820  0.0877  0.6716 -0.0298
 2612SOL    HW2 8970   7.902   5.363   8.930  1.5138 -0.4553  0.2155
 2613SOL     OW 8971   2.432   6.886   3.907  0.3778  0.0727 -0.3497
 2613SOL    HW1 8972   2.483   6.912   3.830 -0.9282 -0.8961 -1.5851
 2613SOL    HW2 8973   2.393   6.968   3.937  1.0569  0.4964 -0.5831
 2614SOL     OW 8974   7.487   9.012   5.341  0.3213 -0.4276  0.3287
 2614SOL    HW1 8975   7.506   8.953   5.415  0.6072 -0.5684  0.1435
 2614SOL    HW2 8976   7.484   8.955   5.265 -1.4777 -0.5149  0.4202
 2615SOL     OW 8977   0.247   8.987   0.251 -0.1240  0.6485 -0.1662
 2615SOL    HW1 8978   0.272   8.901   0.217  1.3170  0.7840  0.4689
 2615SOL    HW2 8979   0.329   9.025   0.282 -1.2366  0.6930  3.1098
 2616SOL     OW 8980   8.755   3.535   4.801 -0.3597 -0.2030  0.5477
 2616SOL    HW1 8981   8.710   3.507   4.721 -0.7065  1.0567  0.2779
 2616SOL    HW2 8982   8.770   3.454   4.849  0.8414 -1.1530 -1.2740
 2617SOL     OW 8983   5.707   7.420   7.354  0.1408  0.2904  0.4152
 2617SOL    HW1 8984   5.795   7.404   7.322  0.8756 -1.3362  2.9389
 2617SOL    HW2 8985   5.652   7.355   7.310  0.4810  0.2907 -0.0098
 2618SOL     OW 8986   2.971   1.674   2.926  0.9317  0.4618 -0.3324
 2618SOL    HW1 8987   2.914   1.735   2.879 -1.2253 -1.4368 -0.4041
 2618SOL    HW2 8988   2.941   1.680   3.017  0.5522 -0.5583 -0.3736
 2619SOL     OW 8989   0.473   5.337   8.577 -0.5512 -0.0980  0.1800
 2619SOL    HW1 8990   0.387   5.364   8.612  0.3478  0.7427  1.8856
 2619SOL    HW2 8991   0.510   5.418   8.542  0.5369  0.1186  1.7288
 2620SOL     OW 8992   0.961   6.104   3.654  0.0277 -0.9614 -0.1348
 2620SOL    HW1 8993   0.985   6.086   3.745 -0.3636 -1.4798 -0.1240
 2620SOL    HW2 8994   1.043   6.128   3.611 -0.1143  1.6312  0.8718
 2621SOL     OW 8995   7.847   9.026   3.751 -0.2587  0.5246  0.1101
 2621SOL    HW1 8996   7.778   9.080   3.789 -0.3450 -0.2302  1.0539
 2621SOL    HW2 8997   7.927   9.057   3.794 -0.0364  1.1660 -0.7339
 2622SOL     OW 8998   0.300   8.721   0.116 -0.0822 -0.1594  0.9431
 2622SOL    HW1 8999   0.383   8.703   0.072 -0.3786  2.6073 -1.0049
 2622SOL    HW2 9000   0.241   8.652   0.087  0.7259 -0.4073 -0.1371
 2623SOL     OW 9001   9.100   1.290   4.108  0.2737 -0.5496 -0.0069
 2623SOL    HW1 9002   9.042   1.318   4.037  1.2690  0.4399 -0.4486
 2623SOL    HW2 9003   9.063   1.330   4.186  0.5240  0.3265 -0.3308
 2624SOL     OW 9004   5.355   4.484   3.737 -0.5132  0.3690  0.7826
 2624SOL    HW1 9005   5.343   4.578   3.750  0.0927  0.5801 -0.0662
 2624SOL    HW2 9006   5.268   4.452   3.711 -0.2498  1.1543 -1.3247
 2625SOL     OW 9007   5.845   7.358   0.880 -0.3721  0.1790  0.3484
 2625SOL    HW1 9008   5.845   7.264   0.900 -0.1906  0.2727  0.7854
 2625SOL    HW2 9009   5.777   7.368   0.814 -0.5518 -0.2276  0.4704
 2626SOL     OW 9010   3.018   4.135   3.017 -0.4594  0.4040 -0.2614
 2626SOL    HW1 9011   3.002   4.053   2.969  0.0141 -0.0723  0.3781
 2626SOL    HW2 9012   2.956   4.131   3.090  0.7006 -0.1911  0.7214
 2627SOL     OW 9013   6.427   4.239   1.956 -0.1991  0.5566  0.3869
 2627SOL    HW1 9014   6.505   4.203   1.915 -1.0795  0.0162 -0.8820
 2627SOL    HW2 9015   6.425   4.198   2.043 -0.6105 -1.7618 -0.6313
 2628SOL     OW 9016   7.357   2.323   2.076 -0.1184 -0.2245 -0.1879
 2628SOL    HW1 9017   7.397   2.373   2.005 -0.8252 -0.4148 -0.7330
 2628SOL    HW2 9018   7.414   2.246   2.085  1.6291  1.1671  1.4212
 2629SOL     OW 9019   3.506   7.285   1.939 -0.6669  0.4347 -0.0445
 2629SOL    HW1 9020   3.468   7.317   1.857 -0.6411  0.3573 -0.0873
 2629SOL    HW2 9021   3.567   7.216   1.911 -0.8848  0.1983  0.0595
 2630SOL     OW 9022   1.815   4.566   4.754  0.0798 -0.2518 -0.7815
 2630SOL    HW1 9023   1.758   4.491   4.734 -0.1806 -0.3180  0.1878
 2630SOL    HW2 9024   1.898   4.545   4.710 -0.1287 -0.9078 -0.8711
 2631SOL     OW 9025   0.577   2.697   8.873 -0.9752  0.7175  0.1201
 2631SOL    HW1 9026   0.534   2.655   8.799 -0.4170  0.2425  0.0599
 2631SOL    HW2 9027   0.611   2.779   8.837  0.3132 -0.0450 -0.4598
 2632SOL     OW 9028   3.170   0.141   1.099  0.5139 -0.3949  0.2148
 2632SOL    HW1 9029   3.086   0.104   1.072  0.6738  1.1541 -2.8572
 2632SOL    HW2 9030   3.180   0.116   1.191 -2.3410 -2.3072  0.0985
 2633SOL     OW 9031   7.431   1.070   3.515 -0.4926  0.3811  0.1227
 2633SOL    HW1 9032   7.429   1.008   3.588  1.3329  0.6736  0.4871
 2633SOL    HW2 9033   7.422   1.016   3.437  1.5652 -0.4865  0.4062
 2634SOL     OW 9034   3.212   8.720   9.005 -1.0176  0.5183  0.5665
 2634SOL    HW1 9035   3.295   8.675   9.019 -1.7069 -0.4086  1.7615
 2634SOL    HW2 9036   3.234   8.789   8.942  0.2296 -0.9488 -0.6997
 2635SOL     OW 9037   8.064   1.986   5.447 -0.0095 -0.0624  0.0727
 2635SOL    HW1 9038   8.094   1.934   5.523 -1.8704 -1.8394 -0.3259
 2635SOL    HW2 9039   7.979   1.948   5.425 -0.4094  1.7501 -1.6875
 2636SOL     OW 9040   8.286   8.113   5.828 -0.4374 -0.1952 -0.4351
 2636SOL    HW1 9041   8.363   8.072   5.789 -0.2258  0.1347 -0.3760
 2636SOL    HW2 9042   8.286   8.082   5.919  0.3379  0.7486 -0.0814
 2637SOL     OW 9043   5.423   1.064   6.645 -0.2536  0.0741  0.1053
 2637SOL    HW1 9044   5.334   1.069   6.680 -0.2497  1.1217  0.0145
 2637SOL    HW2 9045   5.410   1.056   6.550 -0.2696  1.2236 -0.0073
 2638SOL     OW 9046   2.704   5.623   1.186  0.2092  0.0977 -0.6031
 2638SOL    HW1 9047   2.776   5.568   1.218  1.3320  0.8892 -1.6961
 2638SOL    HW2 9048   2.625   5.579   1.218  0.9186 -3.2126 -2.8350
 2639SOL     OW 9049   4.489   7.676   3.269  0.1303 -0.0401  0.2049
 2639SOL    HW1 9050   4.453   7.589   3.257  0.9072 -0.2526 -0.7060
 2639SOL    HW2 9051   4.583   7.662   3.279  0.4314  0.7702 -1.2459
 2640SOL     OW 9052   5.848   3.781   0.332  0.4682  0.2327 -0.4359
 2640SOL    HW1 9053   5.853   3.746   0.421  0.1124 -0.3852 -0.6474
 2640SOL    HW2 9054   5.804   3.712   0.282  2.5095 -0.3350 -1.5665
 2641SOL     OW 9055   6.451   1.458   4.579  0.2198 -0.3165 -0.4871
 2641SOL    HW1 9056   6.380   1.520   4.595  0.5581 -0.3507  1.2998
 2641SOL    HW2 9057   6.440   1.390   4.645  1.4426 -0.7466 -0.7035
 2642SOL     OW 9058   2.669   2.072   4.083 -0.1085 -0.4408  0.0256
 2642SOL    HW1 9059   2.741   2.011   4.103 -0.3614 -0.7844 -0.1004
 2642SOL    HW2 9060   2.707   2.159   4.098 -0.5579 -0.6716  2.9753
 2643SOL     OW 9061   6.205   8.120   0.573 -0.4093  0.2722 -0.5184
 2643SOL    HW1 9062   6.277   8.137   0.634 -0.5150  1.9536 -0.8131
 2643SOL    HW2 9063   6.221   8.031   0.542  2.2406  0.9379 -1.4160
 2644SOL     OW 9064   1.506   6.484   7.045 -0.0756 -0.0180  0.0068
 2644SOL    HW1 9065   1.536   6.454   7.131  2.3537  0.2191 -0.6690
 2644SOL    HW2 9066   1.420   6.443   7.033 -0.9037  0.6885  2.8924
 2645SOL     OW 9067   8.506   0.928   3.648  0.0277  0.2127 -0.2262
 2645SOL    HW1 9068   8.445   0.854   3.640 -0.4565  0.5833 -0.0075
 2645SOL    HW2 9069   8.500   0.974   3.565  0.2348  0.0858 -0.3142
 2646SOL     OW 9070   8.050   2.496   4.859 -0.0707  0.3124 -0.2608
 2646SOL    HW1 9071   8.033   2.568   4.920 -2.1698 -0.6196  0.3371
 2646SOL    HW2 9072   8.048   2.417   4.913  0.1546 -0.3675 -1.2126
 2647SOL     OW 9073   5.343   5.263   1.909  0.4985 -0.4376 -0.1911
 2647SOL    HW1 9074   5.376   5.304   1.990  0.3901 -0.5970 -0.0647
 2647SOL    HW2 9075   5.420   5.254   1.854  0.4979  0.0795 -0.2838
 2648SOL     OW 9076   8.594   8.730   8.716  0.3620  0.0537 -0.0935
 2648SOL    HW1 9077   8.606   8.642   8.680  1.5265 -0.6042  1.7473
 2648SOL    HW2 9078   8.612   8.789   8.642 -0.7900 -1.2213 -1.4414
 2649SOL     OW 9079   2.925   1.046   4.762  0.0911 -0.1579  0.4216
 2649SOL    HW1 9080   2.979   1.031   4.683 -0.0498 -0.4469  0.3775
 2649SOL    HW2 9081   2.896   0.958   4.787 -1.5367  0.1075 -0.3816
 2650SOL     OW 9082   0.902   4.558   7.744  0.1093  0.0355 -0.1884
 2650SOL    HW1 9083   0.865   4.638   7.706 -0.8281  0.4531  1.5204
 2650SOL    HW2 9084   0.956   4.589   7.817 -0.0826 -0.8897  0.3612
 2651SOL     OW 9085   1.629   2.923   1.753 -0.0292  0.1960 -0.0697
 2651SOL    HW1 9086   1.569   2.901   1.825 -1.1056  2.8509 -0.0413
 2651SOL    HW2 9087   1.648   3.016   1.766 -0.2241  0.7586 -3.1694
 2652SOL     OW 9088   1.689   5.292   0.089  0.5430 -0.0859 -0.1033
 2652SOL    HW1 9089   1.764   5.320   0.036  1.0300 -0.6233  0.2818
 2652SOL    HW2 9090   1.704   5.198   0.104 -0.3708 -0.2672 -0.2728
 2653SOL     OW 9091   1.751   6.188   3.296  0.0441 -0.2867 -0.2782
 2653SOL    HW1 9092   1.763   6.196   3.390  0.5390 -0.3136 -0.3369
 2653SOL    HW2 9093   1.828   6.232   3.258 -1.5815  2.4564 -0.7229
 2654SOL     OW 9094   0.683   4.078   3.588  0.5940 -0.4020  0.0513
 2654SOL    HW1 9095   0.745   4.059   3.517 -0.7925  1.0462 -1.6379
 2654SOL    HW2 9096   0.698   4.170   3.609 -1.2103  0.0849 -0.6646
 2655SOL     OW 9097   8.289   8.020   4.856 -0.0336 -0.0995  0.0471
 2655SOL    HW1 9098   8.383   8.001   4.855  0.0021  0.0482 -1.2641
 2655SOL    HW2 9099   8.249   7.945   4.811 -0.8016 -1.2432  2.4686
 2656SOL     OW 9100   2.879   2.362   7.542 -0.6998 -0.3400 -0.0979
 2656SOL    HW1 9101   2.842   2.425   7.605 -0.9782  1.4660 -1.9687
 2656SOL    HW2 9102   2.803   2.312   7.511 -0.7519 -0.3405  0.0273
 2657SOL     OW 9103   7.009   5.179   4.904 -0.0912  0.3031  0.6516
 2657SOL    HW1 9104   6.920   5.144   4.899 -0.3013  0.8661  0.2985
 2657SOL    HW2 9105   7.034   5.192   4.813  0.3621  0.1380  0.7497
 2658SOL     OW 9106   4.565   9.020   2.605  0.1353 -0.3274  1.5165
 2658SOL    HW1 9107   4.470   9.028   2.615 -0.1724 -0.5255 -0.7848
 2658SOL    HW2 9108   4.594   9.110   2.587  0.1527 -0.4779  0.7489
 2659SOL     OW 9109   2.994   0.666   0.984  0.0796  0.2947  0.0597
 2659SOL    HW1 9110   2.902   0.646   1.001 -0.2047  1.4564  0.0321
 2659SOL    HW2 9111   3.042   0.609   1.043 -0.6379 -0.6604 -0.2600
 2660SOL     OW 9112   5.063   6.875   1.688  0.3877  0.3491 -0.7138
 2660SOL    HW1 9113   5.157   6.858   1.683  0.1779 -0.6033 -3.5921
 2660SOL    HW2 9114   5.027   6.796   1.729  0.8637  1.1158  1.2808
 2661SOL     OW 9115   7.185   4.704   1.368  0.1919 -0.0481  0.4479
 2661SOL    HW1 9116   7.108   4.759   1.381  0.7359  0.8843 -0.1012
 2661SOL    HW2 9117   7.250   4.763   1.330 -0.1084 -1.6930 -2.9424
 2662SOL     OW 9118   6.185   9.081   3.930 -0.0921  0.2996 -0.3891
 2662SOL    HW1 9119   6.109   9.098   3.986 -0.5918 -0.9159 -0.6788
 2662SOL    HW2 9120   6.183   9.151   3.865 -1.4414 -0.1781 -0.8863
 2663SOL     OW 9121   4.210   2.537   4.133  0.5329  0.2584  0.2220
 2663SOL    HW1 9122   4.219   2.573   4.045  0.9879  0.6869  0.4398
 2663SOL    HW2 9123   4.176   2.448   4.119  1.5008 -0.0282 -0.4488
 2664SOL     OW 9124   2.641   0.720   6.420 -0.3232  0.3341  0.1964
 2664SOL    HW1 9125   2.567   0.751   6.472  0.1730  0.8896  0.5910
 2664SOL    HW2 9126   2.697   0.797   6.411  0.2324 -0.0946 -0.0470
 2665SOL     OW 9127   2.861   4.727   4.306 -0.8931  0.4355  0.3637
 2665SOL    HW1 9128   2.858   4.804   4.249  3.0010  1.6584  1.4765
 2665SOL    HW2 9129   2.892   4.656   4.250  1.5315  1.2984  0.4742
 2666SOL     OW 9130   7.186   9.022   0.147  0.2951  0.1484  0.0547
 2666SOL    HW1 9131   7.163   9.111   0.173  0.0812  0.0124  0.3383
 2666SOL    HW2 9132   7.107   8.970   0.166  0.7852 -0.3042  0.9254
 2667SOL     OW 9133   0.523   0.106   5.613  0.0480  0.1075  0.6103
 2667SOL    HW1 9134   0.544   0.130   5.703  0.2050 -0.2416  0.6680
 2667SOL    HW2 9135   0.428   0.098   5.611 -0.0457  1.1242  0.4939
 2668SOL     OW 9136   5.543   0.351   6.310 -0.2128 -0.3181 -0.2286
 2668SOL    HW1 9137   5.518   0.277   6.254  0.6464 -1.6367  1.0540
 2668SOL    HW2 9138   5.489   0.340   6.389 -0.0599  0.4138 -0.0182
 2669SOL     OW 9139   4.617   3.420   0.961 -0.1896  0.3927 -0.2909
 2669SOL    HW1 9140   4.565   3.339   0.957  0.5238 -0.1242  0.5022
 2669SOL    HW2 9141   4.707   3.390   0.970  0.3782  1.2757 -2.4860
 2670SOL     OW 9142   3.152   8.690   5.252 -0.6917  0.0468 -0.1142
 2670SOL    HW1 9143   3.120   8.663   5.166 -0.1199  1.1656 -0.7182
 2670SOL    HW2 9144   3.222   8.754   5.232 -0.1275 -0.1348  1.1734
 2671SOL     OW 9145   1.595   3.933   7.292  0.0656  0.2458 -0.2579
 2671SOL    HW1 9146   1.554   4.020   7.283  0.0644  0.2344 -0.3661
 2671SOL    HW2 9147   1.631   3.932   7.381  2.3953  1.3626 -1.1064
 2672SOL     OW 9148   8.172   5.309   5.291 -0.3485 -0.6176 -0.1025
 2672SOL    HW1 9149   8.078   5.322   5.284 -0.1885  0.8595  0.0616
 2672SOL    HW2 9150   8.183   5.249   5.365 -1.1852 -1.6342 -0.7807
 2673SOL     OW 9151   3.045   3.832   3.177  0.8586 -0.5534  0.3550
 2673SOL    HW1 9152   2.957   3.867   3.163  0.2458 -2.7033 -1.7253
 2673SOL    HW2 9153   3.093   3.853   3.097  1.1055 -2.4691 -0.0541
 2674SOL     OW 9154   2.256   7.073   1.276 -0.0475 -0.5388 -0.3147
 2674SOL    HW1 9155   2.168   7.097   1.303 -0.7246  0.4883 -3.0360
 2674SOL    HW2 9156   2.253   6.978   1.268 -1.7368 -0.3840 -2.6009
 2675SOL     OW 9157   3.201   4.930   7.400  0.2857  0.0599 -0.6123
 2675SOL    HW1 9158   3.243   5.016   7.388  1.2488 -0.2734  0.2182
 2675SOL    HW2 9159   3.161   4.936   7.487  0.1466 -0.2442 -0.6568
 2676SOL     OW 9160   7.432   8.486   2.451 -0.1121 -0.1428  0.1673
 2676SOL    HW1 9161   7.525   8.467   2.442  0.1414  0.5840  1.1035
 2676SOL    HW2 9162   7.420   8.572   2.411 -0.2289  0.0989  0.7055
 2677SOL     OW 9163   6.959   2.641   8.336  0.0561  0.6167  0.3518
 2677SOL    HW1 9164   7.005   2.563   8.305 -0.7323 -0.1896  1.1720
 2677SOL    HW2 9165   6.867   2.615   8.340 -0.1435  1.4195  1.1579
 2678SOL     OW 9166   1.957   1.616   1.205 -0.2594  0.2376  0.3291
 2678SOL    HW1 9167   1.970   1.703   1.243 -2.8634  0.2075  1.5045
 2678SOL    HW2 9168   2.004   1.619   1.121  1.2106  2.1260  1.1449
 2679SOL     OW 9169   5.546   5.385   4.667  0.2817  0.3521 -0.3191
 2679SOL    HW1 9170   5.591   5.341   4.595  2.1151  0.7091  0.5395
 2679SOL    HW2 9171   5.560   5.327   4.742 -1.2500  0.1831 -0.1424
 2680SOL     OW 9172   6.348   8.151   6.471  0.4960 -0.5983  0.2266
 2680SOL    HW1 9173   6.271   8.199   6.501  0.5841 -0.1464 -0.2733
 2680SOL    HW2 9174   6.345   8.069   6.520 -1.4252 -1.4726 -1.2567
 2681SOL     OW 9175   6.326   6.571   3.159  0.3783 -0.2067  0.2790
 2681SOL    HW1 9176   6.351   6.522   3.237  0.9836  1.1670  0.9845
 2681SOL    HW2 9177   6.370   6.526   3.087 -1.4905 -2.4835  0.4485
 2682SOL     OW 9178   1.321   0.970   4.836  0.5643 -0.6200 -0.0121
 2682SOL    HW1 9179   1.253   1.022   4.878  0.6208 -1.4910  1.2048
 2682SOL    HW2 9180   1.297   0.969   4.743 -1.4166 -1.3691  0.4616
 2683SOL     OW 9181   6.742   7.680   3.857 -0.3332  0.1976  0.0537
 2683SOL    HW1 9182   6.765   7.632   3.778 -0.1319  0.1935  0.1150
 2683SOL    HW2 9183   6.724   7.769   3.827  0.3591  0.3549  0.0865
 2684SOL     OW 9184   8.585   6.369   5.884  0.0760 -0.3036 -0.5885
 2684SOL    HW1 9185   8.550   6.290   5.842 -1.7338  1.4429 -2.6530
 2684SOL    HW2 9186   8.509   6.408   5.927  0.3440  1.4868 -1.6568
 2685SOL     OW 9187   0.730   2.786   4.822  0.6639 -0.5742 -0.1382
 2685SOL    HW1 9188   0.818   2.803   4.856 -0.0034 -0.4896  1.7055
 2685SOL    HW2 9189   0.744   2.748   4.736  2.4798  0.1301 -0.1976
 2686SOL     OW 9190   2.849   0.773   8.891 -0.2929  0.0743  0.2538
 2686SOL    HW1 9191   2.877   0.724   8.814 -1.5518 -1.6206  0.8057
 2686SOL    HW2 9192   2.847   0.864   8.862 -2.2458 -0.6438 -2.2332
 2687SOL     OW 9193   7.937   4.680   7.159  0.3917 -0.2564 -0.2894
 2687SOL    HW1 9194   7.941   4.613   7.090  0.6249 -0.7481  0.1960
 2687SOL    HW2 9195   7.890   4.638   7.231 -1.7534  0.9519 -0.9051
 2688SOL     OW 9196   8.423   0.774   4.231 -0.1182  0.0387 -0.8639
 2688SOL    HW1 9197   8.380   0.756   4.149 -0.3175  0.0714 -0.7664
 2688SOL    HW2 9198   8.380   0.854   4.264 -0.1777 -0.0878 -0.6315
 2689SOL     OW 9199   7.442   1.367   8.252  0.0077 -0.3901 -0.5187
 2689SOL    HW1 9200   7.449   1.286   8.303  2.2373  1.0950  1.7904
 2689SOL    HW2 9201   7.523   1.370   8.201  0.5845  0.9663  0.4318
 2690SOL     OW 9202   4.275   4.069   3.168  0.1028 -0.1222 -0.7312
 2690SOL    HW1 9203   4.193   4.114   3.147  0.5200  1.9984  1.7295
 2690SOL    HW2 9204   4.248   3.987   3.209 -0.7744  0.1599 -0.7370
 2691SOL     OW 9205   3.242   1.661   6.105  0.5803 -0.1040 -0.0638
 2691SOL    HW1 9206   3.155   1.634   6.136  0.2856 -0.6393 -1.2748
 2691SOL    HW2 9207   3.296   1.662   6.183 -0.7983  1.4520  0.9414
 2692SOL     OW 9208   0.575   5.227   0.391 -0.4077 -0.3225 -0.7230
 2692SOL    HW1 9209   0.630   5.206   0.466  2.7851  1.8535 -2.2392
 2692SOL    HW2 9210   0.559   5.321   0.399 -2.1702 -0.5202 -1.4941
 2693SOL     OW 9211   8.420   5.987   8.422 -0.1690  0.1026 -0.1277
 2693SOL    HW1 9212   8.448   6.005   8.332 -1.1504 -0.3890 -0.5456
 2693SOL    HW2 9213   8.488   5.930   8.457 -0.3662 -0.6850 -0.9714
 2694SOL     OW 9214   0.967   8.086   6.178  0.1186  0.2286 -0.3446
 2694SOL    HW1 9215   0.949   8.157   6.116  2.6059  0.7953 -0.4944
 2694SOL    HW2 9216   1.062   8.083   6.185  0.0222 -2.0443  0.9228
 2695SOL     OW 9217   6.164   7.399   3.105 -0.0149 -0.5195 -0.2754
 2695SOL    HW1 9218   6.102   7.468   3.129 -0.0932 -1.0948  1.2790
 2695SOL    HW2 9219   6.112   7.319   3.107  0.0602 -0.6660 -2.1385
 2696SOL     OW 9220   2.581   7.916   6.025  0.3764 -0.4926  0.2411
 2696SOL    HW1 9221   2.488   7.894   6.023  0.1262  0.5677 -1.4892
 2696SOL    HW2 9222   2.626   7.832   6.024 -0.5241 -1.0632  2.5095
 2697SOL     OW 9223   8.181   0.099   9.063  0.5065 -0.1441  0.0258
 2697SOL    HW1 9224   8.267   0.133   9.035  0.8849  0.4131  1.7368
 2697SOL    HW2 9225   8.202   0.028   9.124 -0.2843 -0.9379 -0.5950
 2698SOL     OW 9226   5.176   7.323   8.586  0.3478  0.7958 -0.4903
 2698SOL    HW1 9227   5.111   7.390   8.609  0.1723  0.2294  0.7163
 2698SOL    HW2 9228   5.234   7.318   8.662  0.5157 -0.2423 -0.6760
 2699SOL     OW 9229   0.704   6.453   7.703 -0.1556 -0.6014 -0.0760
 2699SOL    HW1 9230   0.709   6.504   7.784  2.7129 -1.0550  0.1326
 2699SOL    HW2 9231   0.698   6.518   7.634  1.0044 -0.0429  0.3286
 2700SOL     OW 9232   2.337   6.938   7.241  0.4379 -0.0570  0.0713
 2700SOL    HW1 9233   2.392   6.968   7.168 -1.0652 -1.1924 -1.6140
 2700SOL    HW2 9234   2.336   7.012   7.302 -0.7513  2.2637 -2.5363
 2701SOL     OW 9235   7.146   0.599   0.502  0.2063 -0.4895  0.3514
 2701SOL    HW1 9236   7.142   0.537   0.576  0.4863  0.7350  1.4226
 2701SOL    HW2 9237   7.211   0.561   0.443  0.2383 -1.3224  0.8943
 2702SOL     OW 9238   2.620   1.171   1.314  0.4797  0.2217 -0.1784
 2702SOL    HW1 9239   2.668   1.233   1.258 -0.5776  0.5289 -0.7575
 2702SOL    HW2 9240   2.647   1.085   1.282  1.6165  0.3598  0.3387
 2703SOL     OW 9241   4.174   2.238   8.908  0.0303  0.2181  0.2340
 2703SOL    HW1 9242   4.243   2.215   8.846 -0.6271  2.0019 -1.2502
 2703SOL    HW2 9243   4.119   2.160   8.914  1.0390 -0.5287 -0.1185
 2704SOL     OW 9244   5.855   2.346   3.965 -0.3877  0.0688  0.0725
 2704SOL    HW1 9245   5.833   2.435   3.992 -0.6401  0.3048 -0.8425
 2704SOL    HW2 9246   5.770   2.304   3.949 -0.2627  0.1804 -1.0211
 2705SOL     OW 9247   4.336   4.652   5.087 -0.1422 -0.3199  0.0961
 2705SOL    HW1 9248   4.325   4.723   5.150  0.2004 -1.2507  1.2441
 2705SOL    HW2 9249   4.431   4.636   5.084 -0.2184 -0.7755 -0.0789
 2706SOL     OW 9250   5.002   6.823   8.890  0.3754 -0.1198 -0.5765
 2706SOL    HW1 9251   5.040   6.744   8.852 -2.3237 -1.1042 -1.4091
 2706SOL    HW2 9252   4.986   6.880   8.815 -1.2362 -0.4125 -0.4935
 2707SOL     OW 9253   2.689   2.556   6.129  0.2279  0.6746  0.2664
 2707SOL    HW1 9254   2.761   2.600   6.085  0.0578  1.1236  0.4247
 2707SOL    HW2 9255   2.642   2.626   6.175  0.0817  0.2953  0.7115
 2708SOL     OW 9256   0.628   6.946   2.572  0.1196 -0.2633 -0.0184
 2708SOL    HW1 9257   0.620   6.851   2.578  0.6151 -0.3092 -0.0624
 2708SOL    HW2 9258   0.722   6.963   2.567  0.0948  0.2997  1.0892
 2709SOL     OW 9259   8.425   3.493   5.925  0.3298  0.1379  0.0193
 2709SOL    HW1 9260   8.453   3.569   5.976  0.9641  0.3870 -0.6887
 2709SOL    HW2 9261   8.501   3.435   5.924  0.4257  0.2568 -0.8563
 2710SOL     OW 9262   1.991   8.565   5.273 -0.0868 -0.5851  0.2294
 2710SOL    HW1 9263   2.005   8.651   5.313  0.0739  0.1638 -1.3423
 2710SOL    HW2 9264   2.075   8.521   5.282  0.3401  0.0719 -0.3950
 2711SOL     OW 9265   9.025   2.825   6.081  0.7137  0.2210  0.5295
 2711SOL    HW1 9266   9.051   2.914   6.056  0.7381  0.6376  1.9709
 2711SOL    HW2 9267   9.107   2.777   6.088  0.7954  0.4278  1.0050
 2712SOL     OW 9268   7.677   4.185   7.117 -0.5086  0.0772 -0.4767
 2712SOL    HW1 9269   7.766   4.221   7.116 -0.0791 -0.9529 -1.9860
 2712SOL    HW2 9270   7.663   4.154   7.028 -2.1146 -0.4721 -0.0591
 2713SOL     OW 9271   6.056   2.698   6.138 -0.3091 -0.0616  0.0000
 2713SOL    HW1 9272   6.136   2.648   6.153 -2.1854 -3.8647 -1.3019
 2713SOL    HW2 9273   6.041   2.692   6.044 -2.0492  0.6629  0.1963
 2714SOL     OW 9274   4.887   0.266   9.064  0.2922  0.1283 -1.0446
 2714SOL    HW1 9275   4.876   0.178   9.100  1.9160 -0.3802 -1.7053
 2714SOL    HW2 9276   4.803   0.309   9.080  0.1709 -0.7950  1.2933
 2715SOL     OW 9277   1.946   8.913   0.508 -0.1973  0.1366  0.4008
 2715SOL    HW1 9278   2.020   8.893   0.451 -0.9824 -0.8307 -0.3178
 2715SOL    HW2 9279   1.901   8.985   0.465 -0.1598  0.1555  0.3935
 2716SOL     OW 9280   4.103   5.631   7.828  0.0086  0.6846 -0.2422
 2716SOL    HW1 9281   4.059   5.547   7.833 -0.4994  0.9565 -0.0412
 2716SOL    HW2 9282   4.180   5.621   7.884  0.6286 -0.0396 -1.2101
 2717SOL     OW 9283   4.306   4.134   6.803 -0.2002 -0.3494  0.6840
 2717SOL    HW1 9284   4.370   4.204   6.818  0.6331 -0.8268 -0.4659
 2717SOL    HW2 9285   4.250   4.167   6.734 -0.8715 -0.1566  1.3093
 2718SOL     OW 9286   6.655   4.847   6.478 -0.2107 -0.6892 -0.2076
 2718SOL    HW1 9287   6.586   4.852   6.544  1.4509 -0.4348  1.5959
 2718SOL    HW2 9288   6.705   4.769   6.501  1.2386  0.1815 -0.2508
 2719SOL     OW 9289   0.414   3.789   0.278  0.6550  0.2917 -0.3270
 2719SOL    HW1 9290   0.435   3.881   0.270  0.1062  0.6530  1.8017
 2719SOL    HW2 9291   0.471   3.756   0.348 -1.2979 -0.1824  1.1378
 2720SOL     OW 9292   2.700   3.382   1.770  0.9971 -0.4142  0.6196
 2720SOL    HW1 9293   2.762   3.321   1.729  1.9673  0.2740  1.0149
 2720SOL    HW2 9294   2.747   3.417   1.846  0.3857  0.6556  0.5308
 2721SOL     OW 9295   0.173   2.781   0.492  0.3711  0.1923 -0.5809
 2721SOL    HW1 9296   0.236   2.838   0.448 -0.2419 -0.8833 -2.9904
 2721SOL    HW2 9297   0.088   2.816   0.469  0.0011  0.8040  1.5093
 2722SOL     OW 9298   2.473   5.631   0.487  0.5617 -0.5529  0.2121
 2722SOL    HW1 9299   2.486   5.543   0.520 -0.2308 -0.7900 -0.0815
 2722SOL    HW2 9300   2.382   5.651   0.506  0.4837 -0.1479 -0.5283
 2723SOL     OW 9301   7.079   5.166   8.362 -0.1080 -0.1983 -0.4263
 2723SOL    HW1 9302   7.017   5.153   8.434 -1.1598  0.4117 -1.2027
 2723SOL    HW2 9303   7.122   5.081   8.352  1.5328  0.1818  2.2050
 2724SOL     OW 9304   7.987   0.257   8.546 -0.3785 -0.5929  0.2590
 2724SOL    HW1 9305   8.031   0.197   8.606 -2.4751 -2.1314  0.3725
 2724SOL    HW2 9306   7.895   0.230   8.548 -0.9574  0.9702 -1.7225
 2725SOL     OW 9307   0.819   0.389   1.557  0.8134 -0.5910 -0.0192
 2725SOL    HW1 9308   0.796   0.360   1.645  2.8991 -2.1849  0.0972
 2725SOL    HW2 9309   0.743   0.369   1.504 -1.9220  3.5255  1.8546
 2726SOL     OW 9310   4.320   4.300   2.778  1.0806  0.1785  0.1903
 2726SOL    HW1 9311   4.274   4.375   2.740 -0.5876 -0.7261  0.2976
 2726SOL    HW2 9312   4.412   4.326   2.780  1.0033  1.0074 -2.6978
 2727SOL     OW 9313   5.192   1.989   3.458 -0.4757  0.2742 -0.1545
 2727SOL    HW1 9314   5.246   2.017   3.384  1.0183  1.0139  1.1551
 2727SOL    HW2 9315   5.139   1.918   3.423  1.3777 -0.5322 -1.5205
 2728SOL     OW 9316   0.373   8.732   7.980 -0.8299  0.7224 -0.6732
 2728SOL    HW1 9317   0.312   8.682   7.925 -1.2999  0.5905 -0.0500
 2728SOL    HW2 9318   0.457   8.723   7.936 -0.9074 -0.5739 -0.6144
 2729SOL     OW 9319   6.975   2.642   0.321 -0.5782 -0.2663  0.1450
 2729SOL    HW1 9320   6.971   2.625   0.416 -0.0182 -3.1928 -0.2438
 2729SOL    HW2 9321   7.062   2.677   0.307 -0.3748 -0.5591  0.6381
 2730SOL     OW 9322   6.981   3.707   7.737  0.6192 -0.3304  0.4911
 2730SOL    HW1 9323   6.980   3.795   7.700  1.8656  0.0966  1.4016
 2730SOL    HW2 9324   6.899   3.700   7.786 -0.2388 -0.2896 -0.8842
 2731SOL     OW 9325   0.159   3.213   2.008  0.1905 -0.3757  0.1304
 2731SOL    HW1 9326   0.115   3.266   2.075 -0.7180 -0.5757 -0.2894
 2731SOL    HW2 9327   0.106   3.133   2.002  1.4477 -1.2723  0.6306
 2732SOL     OW 9328   0.492   3.940   3.385 -0.3257 -0.4296 -0.7046
 2732SOL    HW1 9329   0.488   3.855   3.340 -0.3341 -0.9655  0.2704
 2732SOL    HW2 9330   0.583   3.947   3.414 -0.3775 -0.1975 -0.5992
 2733SOL     OW 9331   4.532   6.169   6.121  0.2796 -0.4085 -0.2252
 2733SOL    HW1 9332   4.528   6.252   6.168 -0.2369 -0.6591  0.1769
 2733SOL    HW2 9333   4.441   6.147   6.103  0.4075 -0.9606 -0.2076
 2734SOL     OW 9334   6.759   7.781   0.549 -0.0720 -0.0547 -0.4911
 2734SOL    HW1 9335   6.784   7.809   0.637 -0.7761  0.7521 -0.5402
 2734SOL    HW2 9336   6.665   7.795   0.545 -0.1724 -0.8153 -1.1223
 2735SOL     OW 9337   4.309   4.547   5.929 -0.2331  0.5158 -0.5689
 2735SOL    HW1 9338   4.259   4.565   6.009 -1.3211 -1.4769 -0.7334
 2735SOL    HW2 9339   4.255   4.584   5.858 -1.6633 -1.7156 -0.7567
 2736SOL     OW 9340   6.023   3.683   1.135 -0.0113 -0.3096  0.0384
 2736SOL    HW1 9341   6.067   3.675   1.219  1.7169  2.1748 -0.5163
 2736SOL    HW2 9342   5.943   3.732   1.155  0.5484  0.5505  0.2299
 2737SOL     OW 9343   6.929   4.286   5.818 -0.5783 -0.2824 -0.1449
 2737SOL    HW1 9344   6.984   4.311   5.744  0.9313 -0.2860  0.9454
 2737SOL    HW2 9345   6.902   4.197   5.798 -1.8272  0.3718 -1.6094
 2738SOL     OW 9346   7.369   2.435   3.780  0.1962 -0.1645 -0.1627
 2738SOL    HW1 9347   7.392   2.494   3.708 -1.4963 -0.1229 -0.7101
 2738SOL    HW2 9348   7.453   2.398   3.808  0.9919  0.4722 -1.5832
 2739SOL     OW 9349   8.838   8.540   2.574 -0.5978 -0.4538 -0.0296
 2739SOL    HW1 9350   8.774   8.607   2.549  1.4545  2.0558  0.9849
 2739SOL    HW2 9351   8.881   8.516   2.492 -0.3785  0.5573 -0.2197
 2740SOL     OW 9352   7.811   4.178   8.265 -0.8549  0.2388  0.6483
 2740SOL    HW1 9353   7.760   4.255   8.291  0.0010  1.5684 -1.3459
 2740SOL    HW2 9354   7.894   4.187   8.312 -1.1571 -0.0652  1.2466
 2741SOL     OW 9355   2.622   5.987   1.669 -0.2396 -0.9487  0.0517
 2741SOL    HW1 9356   2.697   5.991   1.609  0.3480 -0.9109  0.7687
 2741SOL    HW2 9357   2.546   5.982   1.612  0.3412 -1.5467 -0.6883
 2742SOL     OW 9358   3.565   1.572   6.047  0.2495 -0.0918 -0.0973
 2742SOL    HW1 9359   3.519   1.558   6.130  2.6522 -0.5536  1.2618
 2742SOL    HW2 9360   3.535   1.658   6.017 -2.4731 -0.9438 -0.0737
 2743SOL     OW 9361   5.461   5.262   1.122  0.0544  0.6043  0.8362
 2743SOL    HW1 9362   5.372   5.245   1.153  0.5946  1.1069  2.7934
 2743SOL    HW2 9363   5.470   5.207   1.044 -1.0787 -1.4806  2.0939
 2744SOL     OW 9364   4.880   4.144   1.971 -0.0735 -0.5119  0.1054
 2744SOL    HW1 9365   4.879   4.201   2.048 -1.0190  0.1256 -0.3730
 2744SOL    HW2 9366   4.813   4.179   1.913 -0.3498 -1.8355 -0.4092
 2745SOL     OW 9367   8.431   2.335   3.722  0.0651  0.2550  0.3486
 2745SOL    HW1 9368   8.399   2.252   3.757  0.2958  0.2947  0.6498
 2745SOL    HW2 9369   8.411   2.330   3.628 -0.3084  0.0399  0.4378
 2746SOL     OW 9370   7.390   1.311   6.246 -0.2776  0.0969 -0.3082
 2746SOL    HW1 9371   7.378   1.219   6.222 -0.1874 -0.0878  0.3366
 2746SOL    HW2 9372   7.309   1.355   6.219 -0.7859 -0.3848  0.3963
 2747SOL     OW 9373   0.004   8.640   3.039  0.2990  0.8748 -0.4115
 2747SOL    HW1 9374   0.098   8.653   3.042  0.5969 -1.0006  0.0164
 2747SOL    HW2 9375  -0.012   8.599   2.953  0.2899 -1.1406  0.4806
 2748SOL     OW 9376   6.099   3.407   1.874  0.2531 -0.4132 -0.7256
 2748SOL    HW1 9377   6.118   3.439   1.786  1.7985 -0.5482 -0.4649
 2748SOL    HW2 9378   6.113   3.313   1.869 -0.7715 -0.5851 -0.5982
 2749SOL     OW 9379   5.541   3.670   6.228  0.2077  0.0693  0.1853
 2749SOL    HW1 9380   5.610   3.672   6.162 -0.9504  3.7844 -1.1320
 2749SOL    HW2 9381   5.564   3.740   6.289 -0.2341 -1.4741  2.2635
 2750SOL     OW 9382   5.283   5.687   1.709  0.0946  0.6433  0.2384
 2750SOL    HW1 9383   5.332   5.723   1.783 -0.7487 -2.4842  2.5169
 2750SOL    HW2 9384   5.210   5.748   1.698  1.3539  2.2906  0.5193
 2751SOL     OW 9385   1.409   7.502   2.971 -0.6105  0.3188  0.0678
 2751SOL    HW1 9386   1.334   7.495   3.029 -0.3634 -0.0712  0.3474
 2751SOL    HW2 9387   1.395   7.435   2.905  0.4757 -1.1619  1.2711
 2752SOL     OW 9388   6.504   8.509   6.026 -0.2369 -0.1134 -0.2973
 2752SOL    HW1 9389   6.554   8.520   5.946 -0.3241  0.8777 -0.2217
 2752SOL    HW2 9390   6.475   8.597   6.050 -2.2637 -0.6669 -0.4957
 2753SOL     OW 9391   6.107   6.338   3.950  0.1983 -0.3954 -0.8240
 2753SOL    HW1 9392   6.130   6.247   3.964 -0.5035 -0.8813 -2.5724
 2753SOL    HW2 9393   6.036   6.336   3.886  0.3530  1.3891 -1.1205
 2754SOL     OW 9394   1.613   7.143   3.864 -0.1370 -0.7300 -0.2347
 2754SOL    HW1 9395   1.675   7.084   3.822  0.2085  0.1775 -1.0145
 2754SOL    HW2 9396   1.585   7.096   3.943  0.7487 -1.5771 -0.4144
 2755SOL     OW 9397   1.022   1.619   1.210 -0.4825  0.3379 -0.4719
 2755SOL    HW1 9398   0.960   1.679   1.251 -0.5460 -0.6864  1.0277
 2755SOL    HW2 9399   0.975   1.536   1.203  0.1037  0.0415 -1.0751
 2756SOL     OW 9400   3.990   0.337   8.362  0.0791 -0.2078 -0.0106
 2756SOL    HW1 9401   3.969   0.406   8.425 -0.1010 -0.3434  0.0816
 2756SOL    HW2 9402   3.996   0.257   8.416  0.6460 -0.2031 -0.0637
 2757SOL     OW 9403   0.780   8.042   0.185 -0.0644 -0.5322 -0.3527
 2757SOL    HW1 9404   0.748   8.034   0.275 -1.3870 -1.1306 -0.8477
 2757SOL    HW2 9405   0.767   7.955   0.148  2.8255 -1.0340 -0.4263
 2758SOL     OW 9406   7.735   6.880   3.084 -0.6738  0.4862 -0.3713
 2758SOL    HW1 9407   7.644   6.860   3.062 -0.3333  0.6336 -2.0530
 2758SOL    HW2 9408   7.786   6.827   3.024  0.3431  0.9999  0.0184
 2759SOL     OW 9409   4.427   2.286   3.725 -0.3075  0.2079  0.2980
 2759SOL    HW1 9410   4.407   2.242   3.643  1.4773 -0.0137 -0.0540
 2759SOL    HW2 9411   4.429   2.379   3.703 -1.4930  0.2959  0.4833
 2760SOL     OW 9412   1.970   7.898   8.264 -0.3232 -0.7909 -0.7488
 2760SOL    HW1 9413   1.898   7.835   8.258  0.5246 -1.8955  0.2855
 2760SOL    HW2 9414   1.998   7.895   8.356  1.8462 -1.3476 -1.3537
 2761SOL     OW 9415   4.875   6.351   6.976 -0.3718  0.2182  0.4867
 2761SOL    HW1 9416   4.913   6.265   6.993 -1.0893 -0.1237  0.3743
 2761SOL    HW2 9417   4.951   6.411   6.977  0.0395 -0.2943  1.3032
 2762SOL     OW 9418   8.921   1.363   5.974 -0.0788  0.1994  0.4223
 2762SOL    HW1 9419   8.935   1.451   6.007  0.3821  0.8382 -1.3546
 2762SOL    HW2 9420   8.983   1.309   6.024  0.7085  1.1416  0.4945
 2763SOL     OW 9421   6.916   1.806   4.577  0.6873 -0.4915 -0.2970
 2763SOL    HW1 9422   7.004   1.811   4.615  0.2619  0.9969  0.5719
 2763SOL    HW2 9423   6.861   1.852   4.640 -0.4117  0.1737 -1.7184
 2764SOL     OW 9424   8.098   4.498   4.785 -0.0605  0.0407  1.0841
 2764SOL    HW1 9425   8.047   4.468   4.710 -1.4232  0.3228  1.8555
 2764SOL    HW2 9426   8.182   4.454   4.776 -0.2549 -0.0583 -0.5100
 2765SOL     OW 9427   2.496   8.034   5.795 -0.8249  0.4041 -0.1495
 2765SOL    HW1 9428   2.585   8.060   5.774 -0.3664 -0.6519  0.3975
 2765SOL    HW2 9429   2.503   7.990   5.879 -2.0471  1.2902  0.4483
 2766SOL     OW 9430   3.879   0.235   6.369 -0.2571  0.4098  0.3693
 2766SOL    HW1 9431   3.821   0.282   6.309  0.2771  0.6852  0.0549
 2766SOL    HW2 9432   3.865   0.143   6.349  1.9883  0.4918 -2.2805
 2767SOL     OW 9433   3.095   7.074   5.023 -0.2166 -0.3719 -0.0723
 2767SOL    HW1 9434   3.006   7.095   4.995 -0.0929 -0.0195 -0.2003
 2767SOL    HW2 9435   3.095   7.090   5.117 -0.3142 -0.4608 -0.0568
 2768SOL     OW 9436   8.853   2.822   8.344  0.0905 -0.0577 -0.1464
 2768SOL    HW1 9437   8.838   2.875   8.265  1.0247  0.2475 -0.1365
 2768SOL    HW2 9438   8.904   2.879   8.401  3.0945 -1.6534 -1.0284
 2769SOL     OW 9439   2.551   3.384   7.049  0.2524 -0.2682 -0.9600
 2769SOL    HW1 9440   2.488   3.347   6.988 -1.8124 -0.3926  1.0697
 2769SOL    HW2 9441   2.501   3.451   7.097  2.5740  1.9239 -1.3408
 2770SOL     OW 9442   6.763   4.348   1.876  0.5611 -0.3170  0.1639
 2770SOL    HW1 9443   6.819   4.426   1.875  0.2748 -0.1003 -0.8786
 2770SOL    HW2 9444   6.770   4.315   1.965  0.2975  1.1825  0.7838
 2771SOL     OW 9445   5.877   4.001   4.568  0.1875 -0.1467 -0.7803
 2771SOL    HW1 9446   5.813   4.053   4.518  1.0011  0.2011 -1.4854
 2771SOL    HW2 9447   5.890   3.923   4.515 -1.8422 -1.6676  0.7862
 2772SOL     OW 9448   0.537   4.667   7.917 -0.2709 -0.3665  0.0965
 2772SOL    HW1 9449   0.611   4.717   7.883 -1.3767 -0.8677 -3.4604
 2772SOL    HW2 9450   0.553   4.577   7.886 -2.8465 -0.2537 -1.9307
 2773SOL     OW 9451   3.062   2.004   5.889 -0.6619 -0.7795 -0.2239
 2773SOL    HW1 9452   2.976   2.040   5.870 -0.4421 -1.0656 -1.8823
 2773SOL    HW2 9453   3.044   1.928   5.944 -1.6023 -1.5538 -1.5360
 2774SOL     OW 9454   4.465   1.038   5.091 -0.3642  0.1295 -0.1673
 2774SOL    HW1 9455   4.468   1.044   4.996  2.1223  0.8709 -0.1155
 2774SOL    HW2 9456   4.386   1.087   5.116 -0.0759  1.5056 -1.7689
 2775SOL     OW 9457   8.903   1.075   0.455 -0.1051  0.3976  0.5117
 2775SOL    HW1 9458   8.907   0.991   0.501 -2.1375 -0.3489 -0.5253
 2775SOL    HW2 9459   8.969   1.068   0.386  0.5744  0.1478  1.1833
 2776SOL     OW 9460   1.520   6.093   2.307  0.4995 -0.3575 -0.2691
 2776SOL    HW1 9461   1.461   6.028   2.343  0.7933 -0.5021 -0.0420
 2776SOL    HW2 9462   1.492   6.105   2.216  0.8437 -1.2666 -0.4989
 2777SOL     OW 9463   0.750   6.126   5.819  0.2048 -0.7389 -0.1906
 2777SOL    HW1 9464   0.679   6.062   5.815 -0.5603 -0.0421  1.4480
 2777SOL    HW2 9465   0.829   6.075   5.835 -0.0219 -1.4555 -1.2801
 2778SOL     OW 9466   1.717   4.238   0.058  0.7340  0.1490  0.1330
 2778SOL    HW1 9467   1.743   4.303   0.124  1.8116  0.4876 -0.6036
 2778SOL    HW2 9468   1.669   4.288  -0.008 -0.0866 -0.1421  0.4908
 2779SOL     OW 9469   3.746   6.592   7.075  0.4324  0.6080 -0.2512
 2779SOL    HW1 9470   3.751   6.647   6.996 -2.4204  1.9618  0.3949
 2779SOL    HW2 9471   3.788   6.644   7.143  1.2318  0.2401 -0.4491
 2780SOL     OW 9472   5.348   5.054   8.984  0.8672  0.3031  0.3013
 2780SOL    HW1 9473   5.258   5.027   9.005  0.7359  0.5398  0.0413
 2780SOL    HW2 9474   5.356   5.039   8.890  0.8801  0.9141  0.1992
 2781SOL     OW 9475   7.492   1.194   7.965  0.0934  0.3332  0.1186
 2781SOL    HW1 9476   7.497   1.112   8.015 -2.1146  0.1783  0.1792
 2781SOL    HW2 9477   7.432   1.175   7.893  2.0660  1.0043 -1.8127
 2782SOL     OW 9478   0.716   1.469   5.150 -0.3687  0.4072  0.6386
 2782SOL    HW1 9479   0.750   1.553   5.180  0.5974  0.4077 -0.3816
 2782SOL    HW2 9480   0.626   1.488   5.124  0.2029  1.4416 -0.7293
 2783SOL     OW 9481   3.975   8.161   6.156 -0.4488 -0.0289  0.2347
 2783SOL    HW1 9482   3.914   8.180   6.227 -0.7231 -1.2515  0.3425
 2783SOL    HW2 9483   4.045   8.226   6.166 -1.5599  1.1801  0.2917
 2784SOL     OW 9484   6.764   5.279   4.227  0.1622  0.3944 -0.2125
 2784SOL    HW1 9485   6.797   5.192   4.207 -1.1639  0.0488 -0.9596
 2784SOL    HW2 9486   6.811   5.337   4.168  0.8948  0.1742  0.1422
 2785SOL     OW 9487   5.409   2.557   1.773 -0.4184  0.1446  0.5463
 2785SOL    HW1 9488   5.367   2.557   1.688  0.1437 -2.6739  0.1949
 2785SOL    HW2 9489   5.337   2.571   1.835 -1.4106 -1.2713 -0.2236
 2786SOL     OW 9490   8.486   7.362   0.838 -0.1677  0.0382  0.0136
 2786SOL    HW1 9491   8.538   7.441   0.855 -1.8773  1.3525 -0.6416
 2786SOL    HW2 9492   8.551   7.297   0.810  1.0998  1.7242 -1.1802
 2787SOL     OW 9493   1.071   8.458   2.494  0.2187  0.1947 -0.3966
 2787SOL    HW1 9494   1.088   8.529   2.557 -0.2928  0.3722 -0.4572
 2787SOL    HW2 9495   1.098   8.494   2.410  2.2591 -0.5375 -0.1089
 2788SOL     OW 9496   3.398   6.145   3.592 -0.1726 -0.1297  0.3081
 2788SOL    HW1 9497   3.337   6.172   3.523  0.1910 -0.0810  0.0021
 2788SOL    HW2 9498   3.450   6.223   3.609 -1.1813  0.3015  1.6511
 2789SOL     OW 9499   2.043   3.459   1.775 -0.6463 -0.3877  0.0210
 2789SOL    HW1 9500   2.021   3.542   1.733  1.0398  0.3415  0.5120
 2789SOL    HW2 9501   1.960   3.429   1.813 -1.0757  1.6985  0.8961
 2790SOL     OW 9502   6.300   6.611   7.527  0.3480  0.0562  0.0260
 2790SOL    HW1 9503   6.392   6.639   7.531  0.5058 -0.5242  1.5032
 2790SOL    HW2 9504   6.251   6.683   7.566  0.1701  0.3619 -0.7554
 2791SOL     OW 9505   2.361   1.092   2.257 -0.2502 -0.1384  0.1960
 2791SOL    HW1 9506   2.338   1.003   2.282  1.4933 -1.3726 -2.2401
 2791SOL    HW2 9507   2.300   1.113   2.186  0.6543 -0.2365 -0.6341
 2792SOL     OW 9508   1.327   6.977   1.820  0.8974 -0.3182 -0.0960
 2792SOL    HW1 9509   1.236   6.986   1.848  0.4759 -0.5918 -1.3277
 2792SOL    HW2 9510   1.327   7.000   1.728  1.9090 -1.2029 -0.3475
 2793SOL     OW 9511   2.692   6.334   8.528 -0.2443 -0.9144 -0.2565
 2793SOL    HW1 9512   2.697   6.383   8.446 -0.8331  0.0803  0.2829
 2793SOL    HW2 9513   2.616   6.277   8.517 -0.5676 -0.4889 -0.2567
 2794SOL     OW 9514   4.657   6.675   2.193  0.2152  0.3884 -0.1012
 2794SOL    HW1 9515   4.752   6.682   2.185  0.2459 -0.0771 -0.1984
 2794SOL    HW2 9516   4.639   6.695   2.285  0.1187  3.2258 -0.6550
 2795SOL     OW 9517   8.427   6.967   3.632 -0.0324  0.3577 -0.3513
 2795SOL    HW1 9518   8.469   6.933   3.711 -2.8774 -0.2492  1.0164
 2795SOL    HW2 9519   8.414   6.890   3.576  1.1121  0.6388 -1.0431
 2796SOL     OW 9520   1.131   0.640   2.482  0.1118  0.0770 -0.1365
 2796SOL    HW1 9521   1.199   0.597   2.429 -1.1160 -0.9444 -0.9241
 2796SOL    HW2 9522   1.180   0.677   2.556  1.2812 -2.7859  0.6814
 2797SOL     OW 9523   6.166   2.517   2.530  0.4997  0.2213  0.4145
 2797SOL    HW1 9524   6.134   2.564   2.607  0.0887 -1.3335  1.2296
 2797SOL    HW2 9525   6.191   2.431   2.564 -0.2491 -0.7015 -1.2934
 2798SOL     OW 9526   7.721   5.601   8.585  0.1840 -0.1982  0.0272
 2798SOL    HW1 9527   7.672   5.684   8.591  1.8957  0.7306  2.9962
 2798SOL    HW2 9528   7.701   5.569   8.497 -2.9864  1.7953 -0.1741
 2799SOL     OW 9529   3.866   0.175   2.636  0.2361 -0.6929  0.8716
 2799SOL    HW1 9530   3.807   0.100   2.637  0.6824 -1.1408 -1.2239
 2799SOL    HW2 9531   3.938   0.149   2.578  2.1922  0.0891  2.7846
 2800SOL     OW 9532   5.769   0.624   2.547  0.4081  0.7760  0.0473
 2800SOL    HW1 9533   5.848   0.575   2.523 -0.3122 -0.6689  0.5427
 2800SOL    HW2 9534   5.784   0.652   2.637 -0.1376 -0.5791  0.5796
 2801SOL     OW 9535   5.826   1.445   0.826  0.2118 -0.0530  0.4902
 2801SOL    HW1 9536   5.885   1.417   0.757 -0.1533 -2.9063  1.2068
 2801SOL    HW2 9537   5.870   1.520   0.866  0.6878  1.3268 -2.3698
 2802SOL     OW 9538   4.510   6.782   4.414  0.2087 -0.0319  0.4228
 2802SOL    HW1 9539   4.491   6.827   4.496 -0.9868  0.3845 -0.0556
 2802SOL    HW2 9540   4.440   6.809   4.355 -0.1553 -2.0042 -0.1089
 2803SOL     OW 9541   3.463   8.628   4.847  0.8429 -0.2532  0.1900
 2803SOL    HW1 9542   3.444   8.551   4.900  1.1808 -0.8713 -0.5690
 2803SOL    HW2 9543   3.481   8.697   4.911 -0.9616 -0.3979  0.8893
 2804SOL     OW 9544   1.379   0.747   1.938 -0.9350 -0.3931  0.3351
 2804SOL    HW1 9545   1.320   0.779   2.007 -0.1450 -0.7534  1.1872
 2804SOL    HW2 9546   1.467   0.756   1.975 -0.5705 -1.7504 -0.1423
 2805SOL     OW 9547   0.184   8.034   8.190 -0.4352 -0.2193  0.3018
 2805SOL    HW1 9548   0.179   8.104   8.256  0.9075  0.5783 -0.3984
 2805SOL    HW2 9549   0.094   8.004   8.180 -1.3283  2.3886 -0.3783
 2806SOL     OW 9550   2.987   3.356   2.794 -0.1294 -0.4731  0.0817
 2806SOL    HW1 9551   2.977   3.431   2.736 -0.9730 -1.5547 -1.2456
 2806SOL    HW2 9552   2.990   3.280   2.735  0.8501 -1.4877  1.3531
 2807SOL     OW 9553   3.706   1.904   3.402 -0.7889  0.0243 -0.0687
 2807SOL    HW1 9554   3.661   1.819   3.395 -1.9549  0.6258 -0.1234
 2807SOL    HW2 9555   3.798   1.884   3.383 -1.1365 -1.1389 -0.6229
 2808SOL     OW 9556   6.902   3.648   0.640 -0.2752  0.0957  0.1598
 2808SOL    HW1 9557   6.885   3.684   0.727 -1.1047 -2.0251  0.9407
 2808SOL    HW2 9558   6.823   3.669   0.589  1.1626  3.5457 -1.0075
 2809SOL     OW 9559   4.452   2.821   8.556  0.2167 -0.3881  0.3214
 2809SOL    HW1 9560   4.536   2.774   8.557  1.0451  1.0169 -0.1457
 2809SOL    HW2 9561   4.412   2.798   8.472  1.3398  0.9059 -0.6130
 2810SOL     OW 9562   1.601   7.338   8.958 -0.1165 -0.4785  0.0048
 2810SOL    HW1 9563   1.609   7.250   8.994  0.1670  0.2169  1.7267
 2810SOL    HW2 9564   1.682   7.382   8.982 -1.6693  1.3371  2.4641
 2811SOL     OW 9565   4.499   4.329   6.823  0.4315 -0.3652 -0.0882
 2811SOL    HW1 9566   4.560   4.278   6.770  1.0864  1.4456 -1.1419
 2811SOL    HW2 9567   4.543   4.342   6.906  2.1058  1.9405 -1.2369
 2812SOL     OW 9568   0.000   0.631   3.434 -0.5408 -0.4546 -0.3100
 2812SOL    HW1 9569  -0.067   0.592   3.378 -0.6516 -0.1349 -0.4016
 2812SOL    HW2 9570  -0.047   0.655   3.514 -0.4424 -0.6405 -0.1946
 2813SOL     OW 9571   4.629   3.101   4.786 -0.1008 -0.4145  0.5101
 2813SOL    HW1 9572   4.631   3.084   4.880  1.0131 -2.6210  0.1518
 2813SOL    HW2 9573   4.637   3.015   4.745  1.4740  0.6160 -1.6028
 2814SOL     OW 9574   6.567   4.118   6.131 -0.2683  0.2501  0.1275
 2814SOL    HW1 9575   6.478   4.101   6.099 -0.2189 -0.4121  0.3295
 2814SOL    HW2 9576   6.615   4.039   6.110 -0.1342 -0.0552  1.5028
 2815SOL     OW 9577   3.633   5.266   7.580  0.9206  0.3223 -0.2218
 2815SOL    HW1 9578   3.586   5.308   7.652  1.6677  0.0495  0.4420
 2815SOL    HW2 9579   3.723   5.259   7.611  0.9594 -1.1377 -0.5897
 2816SOL     OW 9580   3.506   2.794   5.508 -0.1317 -0.7099  0.3281
 2816SOL    HW1 9581   3.556   2.873   5.529 -0.8635 -0.1545  0.0383
 2816SOL    HW2 9582   3.539   2.728   5.569  1.5522 -0.6203 -0.4105
 2817SOL     OW 9583   1.086   5.335   1.608 -0.3604 -0.0601 -0.3712
 2817SOL    HW1 9584   1.147   5.331   1.534  2.8907 -1.3214  2.1041
 2817SOL    HW2 9585   1.030   5.258   1.596 -1.5051  1.0135 -2.6224
 2818SOL     OW 9586   0.778   8.300   8.371  0.2285 -0.0409  0.1421
 2818SOL    HW1 9587   0.753   8.385   8.334 -0.8807 -0.8202 -0.9628
 2818SOL    HW2 9588   0.872   8.293   8.355 -0.0599  0.0452 -1.7643
 2819SOL     OW 9589   6.202   2.428   5.940  0.3615  0.0108  0.1998
 2819SOL    HW1 9590   6.251   2.487   5.997  2.0160  1.4031 -2.4588
 2819SOL    HW2 9591   6.267   2.393   5.879 -1.3808 -0.8461 -1.2815
 2820SOL     OW 9592   3.268   7.966   0.013 -0.1257  0.1194 -0.1483
 2820SOL    HW1 9593   3.277   7.925   0.100  2.1713 -0.6202 -0.6842
 2820SOL    HW2 9594   3.255   8.059   0.032 -2.6950 -0.3778  1.0243
 2821SOL     OW 9595   8.490   6.095   1.014  0.3231 -0.2616  0.7654
 2821SOL    HW1 9596   8.463   6.181   1.045  0.0548 -0.1695  0.2703
 2821SOL    HW2 9597   8.414   6.061   0.968 -0.0226 -1.2844  2.0095
 2822SOL     OW 9598   3.651   6.690   5.690  0.7123 -0.4387  0.3396
 2822SOL    HW1 9599   3.740   6.722   5.703  1.1159 -0.7422 -1.3257
 2822SOL    HW2 9600   3.628   6.646   5.772  1.0446  1.9540  1.7908
 2823SOL     OW 9601   2.298   3.400   2.837  0.1995  0.1163  0.6114
 2823SOL    HW1 9602   2.312   3.340   2.763  2.6959  1.5672 -0.2142
 2823SOL    HW2 9603   2.332   3.353   2.913 -0.3585 -0.5291  0.4738
 2824SOL     OW 9604   2.066   2.584   2.033 -0.0460  0.4630  0.5275
 2824SOL    HW1 9605   1.991   2.559   1.979  0.0559 -0.4856  0.8168
 2824SOL    HW2 9606   2.142   2.563   1.980  0.0668 -0.8871  1.1899
 2825SOL     OW 9607   2.155   4.415   6.568  0.2930 -0.0211  0.1080
 2825SOL    HW1 9608   2.133   4.372   6.486 -0.5958  0.4430  0.0897
 2825SOL    HW2 9609   2.070   4.438   6.607  0.5704 -2.0484  2.1467
 2826SOL     OW 9610   2.396   4.747   3.891  0.2353  0.1501  0.6301
 2826SOL    HW1 9611   2.434   4.810   3.953  0.6117 -0.4885  1.0594
 2826SOL    HW2 9612   2.423   4.661   3.924  1.7836 -0.1657 -1.2950
 2827SOL     OW 9613   4.379   4.534   4.031  0.5687 -0.1058  0.2500
 2827SOL    HW1 9614   4.444   4.472   3.999 -0.8104 -0.9517 -1.0328
 2827SOL    HW2 9615   4.296   4.486   4.029 -0.1773  1.0569  1.4748
 2828SOL     OW 9616   1.208   4.115   7.982 -0.2043 -0.1389 -0.7173
 2828SOL    HW1 9617   1.214   4.210   7.971 -1.0911  0.0789  0.4368
 2828SOL    HW2 9618   1.193   4.102   8.076  0.1112 -1.4374 -0.8204
 2829SOL     OW 9619   1.253   7.827   2.475  0.0968 -0.4871 -0.4333
 2829SOL    HW1 9620   1.301   7.748   2.450  1.0358  0.4323 -1.6605
 2829SOL    HW2 9621   1.251   7.825   2.570  1.3643 -1.2860 -0.4006
 2830SOL     OW 9622   8.564   8.850   7.929  0.2282 -0.3286  0.1024
 2830SOL    HW1 9623   8.495   8.828   7.867  0.1509 -1.5862  0.6034
 2830SOL    HW2 9624   8.525   8.916   7.986 -0.2498 -0.3533 -0.1894
 2831SOL     OW 9625   7.027   0.091   4.583  0.5254 -0.1172  0.4010
 2831SOL    HW1 9626   6.943   0.083   4.539  0.4464 -2.9255  0.8502
 2831SOL    HW2 9627   7.092   0.062   4.518  0.9459  0.2679  0.6381
 2832SOL     OW 9628   9.045   3.496   5.708 -0.4317  0.6896 -0.4418
 2832SOL    HW1 9629   9.098   3.503   5.787  0.8705 -0.0210 -1.2134
 2832SOL    HW2 9630   9.011   3.584   5.694 -1.4845  0.6218  1.4185
 2833SOL     OW 9631   7.037   1.229   5.496  0.0858  0.1002  0.1576
 2833SOL    HW1 9632   7.053   1.282   5.575  1.3848 -0.9890  0.6589
 2833SOL    HW2 9633   7.081   1.278   5.426  1.6750 -0.4863  0.7001
 2834SOL     OW 9634   6.362   0.253   3.489  0.2156 -0.5697  0.5267
 2834SOL    HW1 9635   6.335   0.294   3.407  0.3560  0.1113  0.8196
 2834SOL    HW2 9636   6.391   0.165   3.463  0.1585 -0.3984 -0.1354
 2835SOL     OW 9637   6.816   7.100   8.793  0.4210  0.6872 -0.1295
 2835SOL    HW1 9638   6.863   7.157   8.854  0.1009  1.1450 -0.3015
 2835SOL    HW2 9639   6.757   7.049   8.848  1.5068 -0.3119  0.1564
 2836SOL     OW 9640   1.577   7.978   1.581  0.1127 -0.1657  0.0628
 2836SOL    HW1 9641   1.580   7.947   1.672  0.2679 -1.1168 -0.2606
 2836SOL    HW2 9642   1.533   7.908   1.533  1.2933 -0.3201 -0.8462
 2837SOL     OW 9643   4.424   1.878   1.708 -0.5339  0.6733 -0.2987
 2837SOL    HW1 9644   4.456   1.877   1.618 -3.4723  0.9335 -1.4705
 2837SOL    HW2 9645   4.426   1.786   1.735  3.7051  0.8942  0.8385
 2838SOL     OW 9646   0.223   6.620   8.950 -0.4190  0.2443  0.6644
 2838SOL    HW1 9647   0.210   6.709   8.982 -0.3572 -0.2462  2.1184
 2838SOL    HW2 9648   0.227   6.629   8.855  2.6909  2.2246  0.8411
 2839SOL     OW 9649   6.626   3.125   1.986  0.2009 -0.0235 -0.0494
 2839SOL    HW1 9650   6.706   3.115   1.934  0.3748  0.8060  0.0341
 2839SOL    HW2 9651   6.570   3.181   1.932 -0.9606 -1.8444 -0.7957
 2840SOL     OW 9652   4.087   5.409   6.981  0.0747  0.6302  0.4740
 2840SOL    HW1 9653   4.047   5.495   6.970  0.3946  0.7084 -0.0786
 2840SOL    HW2 9654   4.103   5.402   7.075  0.6276  1.4357  0.4471
 2841SOL     OW 9655   2.812   7.218   1.272 -0.8984  0.0465 -0.5105
 2841SOL    HW1 9656   2.795   7.312   1.265 -1.9499 -0.2107 -1.6621
 2841SOL    HW2 9657   2.906   7.209   1.252 -0.9234  0.7887 -1.0012
 2842SOL     OW 9658   8.280   3.566   0.253  0.0126 -0.0304 -0.1327
 2842SOL    HW1 9659   8.258   3.658   0.264 -0.3395 -0.2457  1.1536
 2842SOL    HW2 9660   8.196   3.520   0.261  0.1517 -0.4633 -0.9643
 2843SOL     OW 9661   7.350   4.575   3.010  0.0765  0.8169 -0.5272
 2843SOL    HW1 9662   7.316   4.619   2.933  0.0715  1.0067 -0.4177
 2843SOL    HW2 9663   7.418   4.516   2.976  0.9140  1.7680 -0.5581
 2844SOL     OW 9664   7.221   5.991   1.310 -0.0203  0.0172  0.3365
 2844SOL    HW1 9665   7.238   5.900   1.336 -0.7674 -0.6870 -1.4684
 2844SOL    HW2 9666   7.138   5.987   1.262 -1.2316  2.0412  2.1080
 2845SOL     OW 9667   1.718   3.868   8.958  0.3687 -0.6035  0.5154
 2845SOL    HW1 9668   1.676   3.800   8.906  0.4912 -2.1327  2.3131
 2845SOL    HW2 9669   1.790   3.898   8.904  2.0052 -3.8485  0.6649
 2846SOL     OW 9670   8.554   8.779   0.847  0.5164 -0.2737 -0.0521
 2846SOL    HW1 9671   8.582   8.839   0.777  1.5262  1.2065  1.5520
 2846SOL    HW2 9672   8.591   8.694   0.822 -1.0069 -0.3332 -2.4157
 2847SOL     OW 9673   4.883   2.232   7.586 -0.2813  0.0807 -0.5122
 2847SOL    HW1 9674   4.860   2.254   7.496  0.4137  1.9683 -0.2559
 2847SOL    HW2 9675   4.812   2.175   7.616 -0.7343 -0.2195 -2.0977
 2848SOL     OW 9676   1.402   8.666   6.173 -0.5605 -0.0512  0.4901
 2848SOL    HW1 9677   1.384   8.609   6.099  1.0315  1.2290 -0.9600
 2848SOL    HW2 9678   1.435   8.607   6.241  1.4475 -0.8919 -1.1024
 2849SOL     OW 9679   5.822   0.582   1.787 -0.0282  0.0721 -0.1535
 2849SOL    HW1 9680   5.898   0.637   1.769 -1.5188  2.3475  0.0898
 2849SOL    HW2 9681   5.788   0.558   1.701 -0.9450  1.8893 -0.3267
 2850SOL     OW 9682   9.006   4.888   3.770 -0.1825  0.4358  0.0797
 2850SOL    HW1 9683   9.085   4.915   3.817  0.2681  1.6583 -1.3258
 2850SOL    HW2 9684   8.934   4.923   3.822  0.0092 -2.0729  2.2941
 2851SOL     OW 9685   1.617   1.414   2.583  0.4882  0.6968 -0.4306
 2851SOL    HW1 9686   1.624   1.349   2.512 -1.7262  0.1372 -0.2395
 2851SOL    HW2 9687   1.671   1.487   2.554  0.4323  0.0859 -2.2423
 2852SOL     OW 9688   1.583   2.802   0.188 -0.0069  0.2470  0.2744
 2852SOL    HW1 9689   1.649   2.850   0.237  0.7479 -0.4247 -0.0501
 2852SOL    HW2 9690   1.586   2.839   0.100 -0.3516  0.4833  0.3582
 2853SOL     OW 9691   0.443   4.568   0.090  0.5473  0.2968 -0.9596
 2853SOL    HW1 9692   0.430   4.626   0.165  0.0191 -0.0276 -0.7950
 2853SOL    HW2 9693   0.384   4.494   0.106  2.7304 -1.3609 -0.0943
 2854SOL     OW 9694   8.301   3.343   7.972 -0.0516  0.0225  0.0326
 2854SOL    HW1 9695   8.260   3.324   7.888  0.3031 -1.3979  0.1494
 2854SOL    HW2 9696   8.278   3.434   7.991 -0.6382  0.1680 -1.3057
 2855SOL     OW 9697   4.795   6.573   6.756  0.1980  0.1139  0.2610
 2855SOL    HW1 9698   4.830   6.566   6.845  1.0782  2.7243  0.2126
 2855SOL    HW2 9699   4.702   6.554   6.765  0.0558  1.3901  1.9677
 2856SOL     OW 9700   1.374   7.443   4.981 -0.4093 -0.3803 -0.2482
 2856SOL    HW1 9701   1.293   7.391   4.985 -0.6098 -0.2388 -1.7970
 2856SOL    HW2 9702   1.388   7.457   4.887  0.1257  1.6204  0.1031
 2857SOL     OW 9703   5.176   8.842   8.073  0.2431  0.2402  0.1656
 2857SOL    HW1 9704   5.087   8.821   8.045  0.7947 -1.2190 -0.6084
 2857SOL    HW2 9705   5.209   8.762   8.112  1.4337  0.5490 -0.1559
 2858SOL     OW 9706   4.210   4.188   0.154 -0.9558  0.1242  0.4512
 2858SOL    HW1 9707   4.263   4.262   0.182  1.4774 -1.5870  0.7098
 2858SOL    HW2 9708   4.189   4.142   0.236  0.2340 -1.1112  0.0991
 2859SOL     OW 9709   5.245   5.457   4.650 -0.6830  0.0183  0.1302
 2859SOL    HW1 9710   5.282   5.427   4.567 -1.3208  0.1212 -0.2005
 2859SOL    HW2 9711   5.275   5.393   4.714 -0.9774 -0.6130 -0.3479
 2860SOL     OW 9712   5.581   5.310   0.655 -0.0702 -0.1823 -0.2605
 2860SOL    HW1 9713   5.503   5.323   0.601 -1.1329 -1.1940  0.9517
 2860SOL    HW2 9714   5.561   5.231   0.706  0.8343  0.7704  1.6642
 2861SOL     OW 9715   6.057   1.054   7.981  0.0244  0.7721  0.0170
 2861SOL    HW1 9716   6.120   1.108   8.028  1.0600 -1.6588  1.6353
 2861SOL    HW2 9717   6.107   0.978   7.951 -1.6077  0.0211 -0.9771
 2862SOL     OW 9718   0.953   2.899   8.332 -0.0642  0.2360  0.4732
 2862SOL    HW1 9719   0.857   2.899   8.336 -0.0364  0.4729  1.7584
 2862SOL    HW2 9720   0.979   2.815   8.370  0.2370 -0.0584 -0.3612
 2863SOL     OW 9721   3.383   7.365   2.795 -0.6548 -0.5371 -0.5133
 2863SOL    HW1 9722   3.358   7.286   2.747  0.0791  0.2316 -2.2528
 2863SOL    HW2 9723   3.457   7.337   2.849 -2.4912 -1.8056  1.5171
 2864SOL     OW 9724   6.516   3.259   6.841 -0.5567  0.5233 -0.3002
 2864SOL    HW1 9725   6.500   3.298   6.755  0.0647  0.7587 -0.3183
 2864SOL    HW2 9726   6.600   3.297   6.869 -0.4883  0.0384  0.1732
 2865SOL     OW 9727   2.846   4.696   1.505  0.3626 -0.7166  0.1099
 2865SOL    HW1 9728   2.921   4.748   1.476 -1.3566  1.5546 -0.5262
 2865SOL    HW2 9729   2.863   4.680   1.598  1.8368 -0.6412 -0.1182
 2866SOL     OW 9730   5.051   7.012   3.066  0.8351 -0.0650 -0.1613
 2866SOL    HW1 9731   5.144   7.013   3.041  0.2237 -0.5971 -2.7045
 2866SOL    HW2 9732   5.051   6.977   3.156  3.1691  1.3407  0.4786
 2867SOL     OW 9733   5.340   6.573   2.939 -0.2272  0.2817 -0.3540
 2867SOL    HW1 9734   5.396   6.614   2.874  0.6348 -0.9884 -0.4637
 2867SOL    HW2 9735   5.279   6.519   2.888  0.2339 -0.4560 -0.1428
 2868SOL     OW 9736   0.014   4.740   5.564  0.7634 -0.4189  0.1207
 2868SOL    HW1 9737   0.037   4.761   5.654  0.3826  0.5712 -0.0057
 2868SOL    HW2 9738   0.060   4.805   5.511 -1.6002  1.1294 -0.1867
 2869SOL     OW 9739   0.898   1.718   4.362 -0.5627  0.0952  0.0407
 2869SOL    HW1 9740   0.824   1.777   4.379  0.3623  2.0970 -2.3593
 2869SOL    HW2 9741   0.857   1.631   4.356 -2.5898  0.9978 -0.2015
 2870SOL     OW 9742   8.282   5.725   5.082 -0.5537  0.4493 -0.2656
 2870SOL    HW1 9743   8.314   5.787   5.147  1.6696  0.3829 -1.1911
 2870SOL    HW2 9744   8.314   5.760   4.999  0.8793 -1.9627 -0.8094
 2871SOL     OW 9745   4.315   7.938   1.652  0.0626  0.0178  0.5920
 2871SOL    HW1 9746   4.247   7.873   1.635  1.1470 -1.2584  0.8512
 2871SOL    HW2 9747   4.314   7.949   1.747  0.0312  0.1988  0.5697
 2872SOL     OW 9748   6.750   1.074   4.527  0.6502  0.0371  0.1833
 2872SOL    HW1 9749   6.668   1.087   4.479  0.5499  0.5565  0.4901
 2872SOL    HW2 9750   6.727   1.087   4.619  1.0728  0.1575  0.2740
 2873SOL     OW 9751   4.055   2.843   2.747 -0.0640  0.7377 -0.1061
 2873SOL    HW1 9752   4.008   2.880   2.672  1.9108  1.8831 -0.8686
 2873SOL    HW2 9753   4.099   2.918   2.787  0.6586 -0.1920  0.8877
 2874SOL     OW 9754   2.621   6.335   2.478 -0.3872 -0.5980  0.6359
 2874SOL    HW1 9755   2.670   6.317   2.397 -0.4230 -0.1477  0.5142
 2874SOL    HW2 9756   2.680   6.390   2.530 -0.1826 -1.2477  1.1143
 2875SOL     OW 9757   2.079   0.284   7.792  0.3459  0.1305 -0.3938
 2875SOL    HW1 9758   2.010   0.221   7.810  0.6343 -0.4505 -1.2994
 2875SOL    HW2 9759   2.111   0.309   7.879  0.5334 -1.3031 -0.0221
 2876SOL     OW 9760   2.982   5.188   2.484  0.1020  0.0676 -0.6118
 2876SOL    HW1 9761   2.990   5.261   2.423  0.3458 -0.0982 -0.7791
 2876SOL    HW2 9762   2.996   5.110   2.431 -0.6520 -0.1297 -0.5282
 2877SOL     OW 9763   3.543   7.804   3.422  0.1384 -0.3045  0.1291
 2877SOL    HW1 9764   3.588   7.837   3.500  2.6292  1.1375 -1.7727
 2877SOL    HW2 9765   3.555   7.709   3.426 -1.6607 -0.5321  2.4908
 2878SOL     OW 9766   4.628   0.948   1.511 -0.0257 -0.5594  0.4163
 2878SOL    HW1 9767   4.672   1.027   1.542 -3.4272  0.7583  2.5191
 2878SOL    HW2 9768   4.636   0.951   1.416  1.6719  1.2067  0.5649
 2879SOL     OW 9769   6.721   5.832   5.021 -0.3886 -0.5272 -0.3477
 2879SOL    HW1 9770   6.805   5.874   5.001  1.0648 -2.5088  1.1526
 2879SOL    HW2 9771   6.671   5.898   5.067  0.5235  0.5505 -0.8560
 2880SOL     OW 9772   0.177   9.115   5.071  0.6592 -0.2228  0.0465
 2880SOL    HW1 9773   0.161   9.149   5.159  1.9233 -1.0721  0.6296
 2880SOL    HW2 9774   0.163   9.191   5.014  0.2576  0.4539  1.0054
 2881SOL     OW 9775   4.502   8.673   1.077 -0.0807 -0.1228 -0.4261
 2881SOL    HW1 9776   4.492   8.578   1.081 -1.2705 -0.0822 -1.7387
 2881SOL    HW2 9777   4.501   8.701   1.169 -3.9451 -1.0375  0.0144
 2882SOL     OW 9778   6.097   4.770   3.606  0.3712  0.5428 -0.0588
 2882SOL    HW1 9779   6.118   4.685   3.565  0.9271  0.9748 -0.7005
 2882SOL    HW2 9780   6.007   4.787   3.580 -0.2614 -0.5349  1.3032
 2883SOL     OW 9781   5.153   0.584   7.406  0.1095  0.0234  0.0614
 2883SOL    HW1 9782   5.097   0.583   7.484 -0.6133  2.7108 -0.3025
 2883SOL    HW2 9783   5.151   0.494   7.374  0.3141 -1.1613  3.0029
 2884SOL     OW 9784   4.010   8.371   5.497  0.1069  0.0273  0.4644
 2884SOL    HW1 9785   3.980   8.301   5.555 -2.3198  0.4304 -0.1510
 2884SOL    HW2 9786   4.005   8.450   5.550  0.6935  0.0188  0.5309
 2885SOL     OW 9787   7.847   1.815   5.979  0.1604  0.3966  0.3516
 2885SOL    HW1 9788   7.875   1.902   6.010 -1.3960  1.2318 -0.4586
 2885SOL    HW2 9789   7.861   1.818   5.885 -0.4637  0.0052  0.2425
 2886SOL     OW 9790   8.893   6.180   7.872 -0.0556  0.4750  0.2777
 2886SOL    HW1 9791   8.981   6.217   7.880  0.0876  0.1848  0.0538
 2886SOL    HW2 9792   8.878   6.172   7.777 -0.0940 -0.0195  0.3238
 2887SOL     OW 9793   9.111   8.007   8.990  0.1839  0.2248  0.1974
 2887SOL    HW1 9794   9.035   7.960   9.025  1.7857 -1.1475  2.0495
 2887SOL    HW2 9795   9.131   7.962   8.908  0.0435 -0.5616  0.5825
 2888SOL     OW 9796   2.766   6.874   3.469 -0.0989 -0.5601 -0.5546
 2888SOL    HW1 9797   2.835   6.808   3.462 -1.2724 -1.7238 -1.8808
 2888SOL    HW2 9798   2.721   6.870   3.384 -1.2051  0.8242 -0.0710
 2889SOL     OW 9799   5.553   1.928   3.189 -0.1838  0.3304 -0.4897
 2889SOL    HW1 9800   5.628   1.874   3.213 -0.0480  1.0606  0.8212
 2889SOL    HW2 9801   5.477   1.872   3.205 -0.0385  0.4634  0.7628
 2890SOL     OW 9802   6.428   5.578   0.429 -0.5304  0.1353  0.4452
 2890SOL    HW1 9803   6.367   5.651   0.432 -1.1513 -0.2694 -1.2969
 2890SOL    HW2 9804   6.392   5.519   0.363  1.3462 -0.4839 -0.0826
 2891SOL     OW 9805   9.087   2.366   8.122  0.2872 -0.1036  0.9090
 2891SOL    HW1 9806   9.064   2.427   8.192 -0.3185 -0.3344  0.9164
 2891SOL    HW2 9807   9.160   2.316   8.156  0.8072  0.6220  0.9005
 2892SOL     OW 9808   8.305   2.673   1.206  0.0206  0.0704 -0.1713
 2892SOL    HW1 9809   8.348   2.588   1.196 -1.7428 -0.9678  0.6737
 2892SOL    HW2 9810   8.310   2.712   1.118  1.5206 -0.5410 -0.3972
 2893SOL     OW 9811   3.525   1.338   4.900 -0.8970 -0.1873  0.0217
 2893SOL    HW1 9812   3.530   1.426   4.937  1.0680 -0.0385 -0.4670
 2893SOL    HW2 9813   3.546   1.350   4.807 -2.2882 -0.9855 -0.4343
 2894SOL     OW 9814   7.785   2.777   4.565 -0.7958  0.1098  0.9533
 2894SOL    HW1 9815   7.705   2.817   4.600 -1.8659  0.6233 -1.7842
 2894SOL    HW2 9816   7.766   2.684   4.560 -0.2873 -0.1013  2.4635
 2895SOL     OW 9817   0.421   6.123   3.587 -0.1933 -0.1752 -0.9204
 2895SOL    HW1 9818   0.516   6.128   3.594 -0.2562  0.7446 -0.5041
 2895SOL    HW2 9819   0.404   6.092   3.498  0.4901  0.4736 -1.2873
 2896SOL     OW 9820   4.673   1.205   7.113  0.5815 -0.4739 -1.0223
 2896SOL    HW1 9821   4.750   1.155   7.086  1.7467  0.4460  0.4779
 2896SOL    HW2 9822   4.707   1.279   7.162 -1.2466  0.1473 -0.5883
 2897SOL     OW 9823   7.631   4.283   6.139 -0.1278  0.2544  0.1108
 2897SOL    HW1 9824   7.621   4.367   6.094  0.0495  1.1236  1.6372
 2897SOL    HW2 9825   7.715   4.249   6.107  0.3226  1.1824  0.2750
 2898SOL     OW 9826   8.993   0.419   0.353 -0.2153 -0.5952  0.2484
 2898SOL    HW1 9827   8.904   0.383   0.351  0.3312 -1.9473 -0.9983
 2898SOL    HW2 9828   9.000   0.459   0.440 -2.6093  1.0889 -0.2001
 2899SOL     OW 9829   3.496   4.106   4.252 -0.7959  0.8216  0.7074
 2899SOL    HW1 9830   3.566   4.171   4.248  0.4848 -0.5743 -0.4094
 2899SOL    HW2 9831   3.535   4.030   4.294 -1.2652 -0.3636 -0.8847
 2900SOL     OW 9832   0.026   6.392   0.615  0.2154 -0.6353  0.8502
 2900SOL    HW1 9833  -0.054   6.339   0.608  0.0461 -0.1990 -0.9974
 2900SOL    HW2 9834   0.080   6.363   0.542 -0.1690  2.1567 -0.6561
 2901SOL     OW 9835   7.880   7.757   3.314  0.1083 -0.3310  0.3144
 2901SOL    HW1 9836   7.822   7.824   3.277 -0.0834 -0.6761 -0.0166
 2901SOL    HW2 9837   7.952   7.750   3.251 -0.6241 -1.4980 -0.4378
 2902SOL     OW 9838   7.146   7.758   5.078  0.3327 -0.5809  0.2184
 2902SOL    HW1 9839   7.113   7.844   5.054  0.7627 -0.2057  0.9296
 2902SOL    HW2 9840   7.198   7.774   5.157 -1.3231 -1.8015  1.6290
 2903SOL     OW 9841   8.973   6.551   2.170 -0.0865 -0.7208 -0.1620
 2903SOL    HW1 9842   9.018   6.624   2.128 -1.8509  0.6486  0.1815
 2903SOL    HW2 9843   8.963   6.485   2.101  1.4116 -0.6182 -0.5127
 2904SOL     OW 9844   0.187   1.083   6.213 -0.2294 -0.0466 -0.3660
 2904SOL    HW1 9845   0.187   1.126   6.299 -0.8097 -0.8092  0.0270
 2904SOL    HW2 9846   0.216   0.994   6.231  1.7068  0.3508 -1.2877
 2905SOL     OW 9847   9.015   1.660   3.910 -0.5533  0.1126 -0.8054
 2905SOL    HW1 9848   9.102   1.647   3.875 -0.3920 -0.6878 -0.1434
 2905SOL    HW2 9849   8.970   1.576   3.897 -0.9550  0.2578 -0.4247
 2906SOL     OW 9850   2.800   3.976   3.093  0.0793  0.1411 -0.2663
 2906SOL    HW1 9851   2.716   3.945   3.061 -0.0800  0.4078 -0.1155
 2906SOL    HW2 9852   2.777   4.039   3.163  0.3564  1.2876 -1.1778
 2907SOL     OW 9853   0.798   2.056   8.616 -0.1370  0.5455 -0.1839
 2907SOL    HW1 9854   0.796   1.983   8.555  1.7096  0.4393 -0.1444
 2907SOL    HW2 9855   0.873   2.039   8.673 -1.3082  1.0713  1.6041
 2908SOL     OW 9856   1.233   5.770   8.273  0.6185 -0.1710 -0.2183
 2908SOL    HW1 9857   1.147   5.753   8.311  0.3716  1.1666 -0.1226
 2908SOL    HW2 9858   1.278   5.686   8.277  0.2620 -0.3086  2.1121
 2909SOL     OW 9859   7.519   9.046   4.076  0.2348 -0.2760 -0.2085
 2909SOL    HW1 9860   7.445   9.043   4.015 -0.0822  0.7335  0.1081
 2909SOL    HW2 9861   7.487   9.097   4.150  1.4000  0.6238 -0.2938
 2910SOL     OW 9862   7.165   3.284   7.237  0.0887  0.0941 -0.0466
 2910SOL    HW1 9863   7.170   3.231   7.158  0.8372 -0.6623  0.4805
 2910SOL    HW2 9864   7.138   3.222   7.305  0.4534  0.5107  0.4835
 2911SOL     OW 9865   8.033   7.992   0.491  0.4815 -0.2144  0.9115
 2911SOL    HW1 9866   8.097   7.946   0.545  1.0399  0.4972  0.8740
 2911SOL    HW2 9867   8.033   7.944   0.408  0.3208 -0.7428  1.2173
 2912SOL     OW 9868   6.046   1.552   3.810 -0.3520 -0.0402 -0.0384
 2912SOL    HW1 9869   6.108   1.615   3.847 -0.2111 -1.1565  1.7471
 2912SOL    HW2 9870   5.971   1.554   3.869 -0.0492 -2.0223  0.4713
 2913SOL     OW 9871   4.359   6.398   0.740  0.0439 -0.3704  0.5171
 2913SOL    HW1 9872   4.273   6.375   0.704 -0.3446  0.3657  0.9545
 2913SOL    HW2 9873   4.355   6.370   0.832  0.1612 -0.0455  0.6215
 2914SOL     OW 9874   5.022   7.243   3.412  0.6669 -0.2659  0.0575
 2914SOL    HW1 9875   5.077   7.297   3.468 -0.0424  0.6504 -0.0952
 2914SOL    HW2 9876   4.972   7.307   3.359 -0.9599 -1.0327  0.5990
 2915SOL     OW 9877   0.964   7.832   2.433  0.1319  0.3947 -0.0344
 2915SOL    HW1 9878   0.923   7.766   2.489  0.4762  0.2181  0.0139
 2915SOL    HW2 9879   1.056   7.830   2.459  0.7926 -1.3621 -2.2086
 2916SOL     OW 9880   8.526   2.970   1.261 -0.3441  0.7555  0.2686
 2916SOL    HW1 9881   8.553   3.049   1.308 -1.9185 -0.4941  3.5882
 2916SOL    HW2 9882   8.550   2.898   1.320 -2.4854 -0.9627 -0.8147
 2917SOL     OW 9883   0.236   2.218   5.462  0.0653  0.0544 -0.0330
 2917SOL    HW1 9884   0.237   2.313   5.472  1.8606  0.1830 -1.0417
 2917SOL    HW2 9885   0.146   2.197   5.437 -0.7751  1.2686  1.7241
 2918SOL     OW 9886   2.616   2.287   5.878 -0.4150  0.0055  0.2457
 2918SOL    HW1 9887   2.699   2.270   5.923  0.2788  0.1193 -0.9396
 2918SOL    HW2 9888   2.606   2.382   5.881 -0.5394 -0.0139  0.4488
 2919SOL     OW 9889   0.605   1.407   3.986  0.0711  0.0432 -0.0652
 2919SOL    HW1 9890   0.542   1.448   3.926  0.2014 -0.6927 -0.7289
 2919SOL    HW2 9891   0.671   1.474   4.000  0.4672 -0.0213 -1.4198
 2920SOL     OW 9892   0.288   1.743   2.373 -0.3468  0.1218  0.3235
 2920SOL    HW1 9893   0.221   1.776   2.432 -1.1986 -0.5685 -0.2283
 2920SOL    HW2 9894   0.250   1.754   2.286  0.0652 -0.6942  0.0337
 2921SOL     OW 9895   0.317   8.652   8.702 -0.2811 -0.4899 -0.5427
 2921SOL    HW1 9896   0.397   8.640   8.753 -0.4368 -2.2618 -0.6713
 2921SOL    HW2 9897   0.258   8.583   8.733 -1.7470  0.7232 -0.5089
 2922SOL     OW 9898   4.238   5.509   5.581 -0.4562  1.3977 -0.5867
 2922SOL    HW1 9899   4.190   5.465   5.651  0.3692  0.1236 -0.8050
 2922SOL    HW2 9900   4.259   5.440   5.518  2.7370  1.6209  0.0659
 2923SOL     OW 9901   2.446   7.001   7.964  0.3271 -0.1376  0.1774
 2923SOL    HW1 9902   2.361   7.033   7.935  1.0693  0.3555 -1.6295
 2923SOL    HW2 9903   2.427   6.920   8.011 -1.1056 -0.3084 -0.6299
 2924SOL     OW 9904   4.526   3.559   8.115  0.4284  0.1297 -0.0963
 2924SOL    HW1 9905   4.456   3.548   8.050 -0.4363 -0.2008  0.8592
 2924SOL    HW2 9906   4.603   3.518   8.074  0.3332  1.3066 -1.5457
 2925SOL     OW 9907   7.219   2.717   7.710 -0.4703 -0.0440 -0.0320
 2925SOL    HW1 9908   7.230   2.631   7.669  1.8757 -0.5326  1.4521
 2925SOL    HW2 9909   7.237   2.702   7.803 -3.8128  1.3724  0.9779
 2926SOL     OW 9910   3.254   6.867   8.019  0.3389 -0.0266  0.3639
 2926SOL    HW1 9911   3.315   6.925   8.065  0.5774 -0.4283  0.5579
 2926SOL    HW2 9912   3.224   6.918   7.944 -0.8664  1.0548  1.5239
 2927SOL     OW 9913   7.393   0.652   4.742  0.4010 -0.2601 -0.2875
 2927SOL    HW1 9914   7.428   0.711   4.675  0.8477  0.7017  0.7398
 2927SOL    HW2 9915   7.435   0.681   4.823 -1.0864 -0.5361  0.6253
 2928SOL     OW 9916   3.044   2.662   5.521 -0.4001 -0.5608  0.5055
 2928SOL    HW1 9917   3.095   2.600   5.469 -0.3706 -0.7240  0.7270
 2928SOL    HW2 9918   3.101   2.682   5.596 -1.5678 -2.5681  2.0207
 2929SOL     OW 9919   7.834   9.104   1.443  0.3481  0.0663 -0.5870
 2929SOL    HW1 9920   7.786   9.110   1.360  1.4483  2.5861 -1.1410
 2929SOL    HW2 9921   7.766   9.099   1.510 -0.5715 -1.2734 -1.5692
 2930SOL     OW 9922   1.520   5.403   1.974  0.0642  0.0146  0.2739
 2930SOL    HW1 9923   1.434   5.383   1.937  0.2212 -0.4326  0.1401
 2930SOL    HW2 9924   1.501   5.455   2.052 -0.2661  1.1824 -0.5628
 2931SOL     OW 9925   7.145   1.283   2.233  0.5468 -0.4608 -0.3872
 2931SOL    HW1 9926   7.131   1.357   2.173  1.7962  0.7129  0.6951
 2931SOL    HW2 9927   7.125   1.206   2.180 -2.7423  0.6542 -0.9979
 2932SOL     OW 9928   2.468   4.527   3.994  0.1926 -0.3011  0.1731
 2932SOL    HW1 9929   2.466   4.432   4.002  0.6281 -0.2891  0.4834
 2932SOL    HW2 9930   2.548   4.553   4.039 -0.7893  0.3507  1.6069
 2933SOL     OW 9931   4.765   8.849   1.594  0.5425  0.0171 -0.6445
 2933SOL    HW1 9932   4.783   8.838   1.500  1.7995  0.3310 -0.4551
 2933SOL    HW2 9933   4.818   8.924   1.620 -0.5152  0.5246  0.1382
 2934SOL     OW 9934   2.348   1.574   0.289 -0.1121 -0.1032  0.0561
 2934SOL    HW1 9935   2.305   1.651   0.327  1.5982  1.2257 -0.5173
 2934SOL    HW2 9936   2.360   1.514   0.362 -0.2298  0.7927  0.8398
 2935SOL     OW 9937   8.252   2.283   5.784 -0.3292  0.1967  0.5716
 2935SOL    HW1 9938   8.228   2.191   5.797  2.3058 -0.9101 -1.3548
 2935SOL    HW2 9939   8.309   2.303   5.859 -0.7894  0.2168  0.9182
 2936SOL     OW 9940   8.334   7.711   8.059  0.1459  0.3826  0.1561
 2936SOL    HW1 9941   8.244   7.723   8.027  0.9756  0.7649 -2.2754
 2936SOL    HW2 9942   8.333   7.626   8.103 -0.4006 -2.3166 -4.3807
 2937SOL     OW 9943   7.828   7.246   4.621 -0.0235  0.3009 -0.4859
 2937SOL    HW1 9944   7.795   7.165   4.580 -0.6290  0.6262 -0.6536
 2937SOL    HW2 9945   7.826   7.228   4.715 -0.8756  0.3810 -0.4838
 2938SOL     OW 9946   0.443   6.448   9.004  0.0450  0.2636 -0.2323
 2938SOL    HW1 9947   0.384   6.521   8.986  2.2566  2.4485  0.7446
 2938SOL    HW2 9948   0.477   6.466   9.092  0.4859 -2.1085  0.1427
 2939SOL     OW 9949   2.303   7.341   9.014 -0.3615 -0.0180 -0.5305
 2939SOL    HW1 9950   2.260   7.322   9.098  0.0649  1.0418 -0.0623
 2939SOL    HW2 9951   2.389   7.301   9.023 -1.1455 -2.0739 -1.4392
 2940SOL     OW 9952   6.625   2.869   2.946 -0.1099  0.0023 -0.4864
 2940SOL    HW1 9953   6.698   2.859   2.885  0.5587 -1.0294  0.4497
 2940SOL    HW2 9954   6.547   2.850   2.894  0.4711 -1.1417 -0.9788
 2941SOL     OW 9955   7.735   5.105   5.973  0.4715 -0.0727 -0.4647
 2941SOL    HW1 9956   7.801   5.167   5.941  0.1385 -1.3749 -4.0802
 2941SOL    HW2 9957   7.784   5.023   5.985  0.3769  0.1239  1.6911
 2942SOL     OW 9958   6.826   4.707   5.430  0.2356 -0.5095  0.2451
 2942SOL    HW1 9959   6.894   4.766   5.396 -0.0436 -1.0099 -1.2549
 2942SOL    HW2 9960   6.753   4.764   5.452 -0.1074 -0.2750 -1.3882
 2943SOL     OW 9961   6.322   0.742   9.117 -0.1504  0.2240 -0.3062
 2943SOL    HW1 9962   6.260   0.764   9.048 -1.3367 -2.2788 -0.1531
 2943SOL    HW2 9963   6.398   0.708   9.071 -0.2188  0.2347 -0.4282
 2944SOL     OW 9964   0.878   1.607   3.305 -0.2515  0.6327  0.2531
 2944SOL    HW1 9965   0.868   1.673   3.373  1.2618  0.6085  0.5514
 2944SOL    HW2 9966   0.872   1.655   3.223 -0.1665  0.9819  0.4488
 2945SOL     OW 9967   6.290   7.254   2.896 -0.0854 -0.1512 -0.7270
 2945SOL    HW1 9968   6.255   7.324   2.951 -0.2419 -0.5460 -0.3132
 2945SOL    HW2 9969   6.308   7.296   2.812  0.6304  0.5825 -0.2230
 2946SOL     OW 9970   0.260   4.249   3.452 -0.0088  0.0489  0.1640
 2946SOL    HW1 9971   0.347   4.221   3.422 -0.1695 -1.6569  1.1058
 2946SOL    HW2 9972   0.221   4.293   3.377  2.0490  1.8471  0.0422
 2947SOL     OW 9973   2.473   6.883   6.069 -0.0563 -0.2599 -0.4452
 2947SOL    HW1 9974   2.482   6.846   5.980 -0.6308  0.9208 -1.0114
 2947SOL    HW2 9975   2.554   6.857   6.113 -0.9569 -3.3392 -0.3480
 2948SOL     OW 9976   6.616   5.376   7.110 -0.0939  0.5153 -0.2369
 2948SOL    HW1 9977   6.667   5.325   7.048  0.4359  0.0572  0.5599
 2948SOL    HW2 9978   6.575   5.311   7.167 -1.6789  0.8624 -0.9241
 2949SOL     OW 9979   4.821   4.494   6.846 -0.0996 -0.0075  0.4420
 2949SOL    HW1 9980   4.820   4.468   6.754 -0.4414  0.5457  0.2888
 2949SOL    HW2 9981   4.845   4.586   6.845 -2.2683  0.6162  0.7453
 2950SOL     OW 9982   5.699   1.730   0.020  0.7662 -0.4041 -0.2612
 2950SOL    HW1 9983   5.730   1.820   0.009 -1.7781  0.4020 -1.5095
 2950SOL    HW2 9984   5.710   1.690  -0.067 -0.4504 -0.4856 -0.3872
 2951SOL     OW 9985   1.876   4.274   6.216 -0.2931 -0.2647  0.3728
 2951SOL    HW1 9986   1.961   4.297   6.179  0.8006 -0.6655  2.4949
 2951SOL    HW2 9987   1.814   4.332   6.172  1.4681  2.0678  0.8261
 2952SOL     OW 9988   2.823   7.890   1.796  0.1647  0.1216  0.2648
 2952SOL    HW1 9989   2.901   7.945   1.810  0.2094  0.1131  0.0497
 2952SOL    HW2 9990   2.822   7.831   1.872  0.0114  0.5432  0.5982
 2953SOL     OW 9991   3.387   4.935   6.342 -0.0024 -0.4581 -0.2140
 2953SOL    HW1 9992   3.465   4.982   6.312  0.1026 -0.1606  0.5054
 2953SOL    HW2 9993   3.402   4.920   6.436  1.0086 -3.9306 -0.8022
 2954SOL     OW 9994   4.280   4.264   0.673 -0.1736  0.5482 -0.7123
 2954SOL    HW1 9995   4.321   4.249   0.587  1.0554 -1.4748  0.1489
 2954SOL    HW2 9996   4.197   4.307   0.652  0.8363  1.6749 -2.7761
 2955SOL     OW 9997   5.389   3.143   6.081  0.2948  0.3602  0.3478
 2955SOL    HW1 9998   5.295   3.145   6.099  0.4734 -0.6914  1.5903
 2955SOL    HW2 9999   5.413   3.234   6.068 -0.9369  0.6259 -0.2666
 2956SOL     OW10000   4.301   8.064   4.655  0.0259  0.0549 -0.1248
 2956SOL    HW110001   4.256   8.081   4.738 -0.4349 -0.1057 -0.3381
 2956SOL    HW210002   4.386   8.108   4.664  0.4084 -0.8541  0.8425
 2957SOL     OW10003   1.940   2.878   5.990  0.4669 -0.1850  0.1105
 2957SOL    HW110004   1.990   2.832   6.057  0.4724 -1.3226 -0.6485
 2957SOL    HW210005   1.889   2.943   6.039 -1.5898 -2.7099  1.6523
 2958SOL     OW10006   0.758   4.330   1.644  0.1440  0.5636 -0.0167
 2958SOL    HW110007   0.667   4.299   1.650  0.0718  0.5616 -1.0613
 2958SOL    HW210008   0.788   4.302   1.558  1.7157 -0.9420  0.9652
 2959SOL     OW10009   2.624   1.635   6.850 -0.5354  0.3623  0.5192
 2959SOL    HW110010   2.707   1.628   6.802 -0.7939  2.9442 -0.4940
 2959SOL    HW210011   2.645   1.605   6.938  0.6115 -2.0876 -0.4990
 2960SOL     OW10012   4.721   2.323   1.767  0.2574  0.4226 -0.0817
 2960SOL    HW110013   4.662   2.389   1.730 -1.4067  0.9611  3.2176
 2960SOL    HW210014   4.711   2.248   1.709 -4.6403  0.0934  0.7409
 2961SOL     OW10015   5.623   0.907   4.879  0.4515  0.0392  0.3265
 2961SOL    HW110016   5.670   0.953   4.949  0.4441  0.1357  0.2679
 2961SOL    HW210017   5.544   0.874   4.921 -0.6148  1.9041 -0.1065
 2962SOL     OW10018   0.280   2.538   5.622  0.2257  0.3001 -0.2630
 2962SOL    HW110019   0.216   2.503   5.560  1.0617 -1.4971 -0.1850
 2962SOL    HW210020   0.276   2.633   5.610 -1.2624  0.1322 -1.4178
 2963SOL     OW10021   1.120   3.387   7.890  0.3886 -0.1630 -0.0788
 2963SOL    HW110022   1.094   3.340   7.811  1.5020 -0.4353 -0.3053
 2963SOL    HW210023   1.156   3.319   7.947 -1.1831 -0.1144  1.0440
 2964SOL     OW10024   8.481   3.806   8.364  0.5884  0.6577 -0.5470
 2964SOL    HW110025   8.406   3.865   8.375  0.0550 -0.0808 -0.1954
 2964SOL    HW210026   8.548   3.861   8.322  0.3319  1.6935  0.3516
 2965SOL     OW10027   9.022   8.616   6.827  0.3184  0.1220 -0.0516
 2965SOL    HW110028   9.108   8.658   6.829 -0.2350  1.4357 -1.4902
 2965SOL    HW210029   8.965   8.681   6.785 -1.0361 -1.3153 -0.5340
 2966SOL     OW10030   1.091   1.582   2.816  0.5703  0.3640 -0.2119
 2966SOL    HW110031   1.102   1.675   2.799  0.9577  0.7023  1.6352
 2966SOL    HW210032   1.140   1.538   2.746  0.0463  1.5214 -1.3257
 2967SOL     OW10033   2.161   4.247   3.881 -0.5556  0.6928 -0.2734
 2967SOL    HW110034   2.166   4.323   3.939 -0.1049  1.4855 -1.3126
 2967SOL    HW210035   2.248   4.241   3.842 -0.6838 -0.1681 -0.4481
 2968SOL     OW10036   2.754   2.812   2.363 -0.4145  0.0756  0.0251
 2968SOL    HW110037   2.730   2.904   2.372 -1.5722 -0.0736 -1.2396
 2968SOL    HW210038   2.838   2.812   2.317  0.3525  0.5141  1.3740
 2969SOL     OW10039   8.455   3.645   8.640 -0.2517  0.0883 -0.0620
 2969SOL    HW110040   8.430   3.630   8.549  3.5003 -2.4378 -0.9424
 2969SOL    HW210041   8.517   3.718   8.637  0.8078 -0.7605  0.1756
 2970SOL     OW10042   2.542   1.396   0.172  0.7801 -0.2354  0.2790
 2970SOL    HW110043   2.476   1.460   0.199  1.5347  1.2367 -1.2427
 2970SOL    HW210044   2.494   1.335   0.116  0.6975  0.8645 -0.8765
 2971SOL     OW10045   3.008   7.152   8.346  0.5480  0.2996  0.1799
 2971SOL    HW110046   3.043   7.236   8.376  1.1704  0.3102 -0.5553
 2971SOL    HW210047   2.982   7.169   8.256  1.0960 -0.4191 -0.1153
 2972SOL     OW10048   8.709   7.512   4.901 -0.2188  0.1589 -0.1086
 2972SOL    HW110049   8.763   7.559   4.965  0.8142 -0.7618 -0.2587
 2972SOL    HW210050   8.626   7.496   4.946 -0.0125  0.7517  0.4970
 2973SOL     OW10051   8.374   4.777   0.454  0.2057  0.5711 -0.0866
 2973SOL    HW110052   8.410   4.696   0.418 -0.6462  0.3464 -0.4612
 2973SOL    HW210053   8.310   4.806   0.389  0.8700  1.8308 -0.2044
 2974SOL     OW10054   0.952   0.401   1.161  0.1242 -0.2008  0.1373
 2974SOL    HW110055   0.942   0.309   1.185 -1.8486 -0.2214 -0.6014
 2974SOL    HW210056   0.974   0.399   1.068 -0.0962  0.0699  0.0775
 2975SOL     OW10057   2.974   6.509   2.801 -0.1229  0.6358  0.1170
 2975SOL    HW110058   3.051   6.470   2.759 -0.7314 -1.0332  0.4978
 2975SOL    HW210059   3.012   6.566   2.869  0.8037 -0.5483  0.6407
 2976SOL     OW10060   3.457   0.574   6.136 -0.3560  0.3280  0.5704
 2976SOL    HW110061   3.434   0.659   6.174  0.3179  0.3185  1.0262
 2976SOL    HW210062   3.501   0.528   6.208  3.1793  1.2133 -0.8334
 2977SOL     OW10063   3.304   3.052   4.283 -1.0771  0.5008  0.0659
 2977SOL    HW110064   3.378   3.029   4.226 -1.5490 -0.1643 -0.2989
 2977SOL    HW210065   3.273   3.136   4.251 -0.6440  0.6560  0.0511
 2978SOL     OW10066   3.133   8.236   7.857 -0.3887  0.4889  0.9575
 2978SOL    HW110067   3.183   8.317   7.845 -0.2261  0.0727 -1.7039
 2978SOL    HW210068   3.183   8.169   7.811 -2.5620 -0.2532 -0.4732
 2979SOL     OW10069   5.668   6.150   0.086  0.1541 -0.0741  0.4267
 2979SOL    HW110070   5.590   6.140   0.033 -0.2833  0.4242  0.9604
 2979SOL    HW210071   5.739   6.112   0.033 -0.4478 -0.5591 -0.0385
 2980SOL     OW10072   8.018   8.606   6.148 -0.5449 -0.0375 -0.0327
 2980SOL    HW110073   7.985   8.583   6.235 -0.9714 -0.2122 -0.2386
 2980SOL    HW210074   8.109   8.630   6.163 -0.4883 -0.5028  0.3962
 2981SOL     OW10075   8.196   9.113   7.382 -0.3562 -0.5538  0.1799
 2981SOL    HW110076   8.220   9.160   7.462  0.5484  1.1769 -1.0732
 2981SOL    HW210077   8.125   9.165   7.344 -1.1891 -1.6875  0.1084
 2982SOL     OW10078   2.563   4.293   6.612  0.3794  0.0342 -0.2844
 2982SOL    HW110079   2.650   4.333   6.614  0.0523  0.7533 -0.1291
 2982SOL    HW210080   2.503   4.367   6.598 -0.2268 -0.4214 -0.1104
 2983SOL     OW10081   2.808   8.041   6.168  0.2068 -0.1316 -0.1364
 2983SOL    HW110082   2.775   8.042   6.078 -0.3008 -1.3396  0.0107
 2983SOL    HW210083   2.888   8.093   6.165  0.4761 -0.5876 -1.4023
 2984SOL     OW10084   7.801   3.318   0.856 -0.7327 -0.2051 -0.2622
 2984SOL    HW110085   7.723   3.374   0.848  0.0715  1.1480  1.0278
 2984SOL    HW210086   7.872   3.379   0.875  0.5717 -1.4817 -0.9006
 2985SOL     OW10087   0.797   8.178   2.242 -0.0464  0.1192 -0.2214
 2985SOL    HW110088   0.775   8.192   2.150  1.8476 -0.1598 -0.7522
 2985SOL    HW210089   0.889   8.204   2.249  0.1472 -0.8934  1.3414
 2986SOL     OW10090   5.609   8.572   7.010 -0.0675 -0.1291  0.0350
 2986SOL    HW110091   5.531   8.606   7.053 -0.0497  0.8774 -0.6870
 2986SOL    HW210092   5.675   8.571   7.079 -0.7988 -1.3516  0.7417
 2987SOL     OW10093   9.039   4.537   2.236 -0.0857  0.0702 -0.0382
 2987SOL    HW110094   9.023   4.627   2.262 -0.2564  0.6950 -2.1468
 2987SOL    HW210095   9.134   4.527   2.241 -0.0655  0.3577  0.1781
 2988SOL     OW10096   2.926   1.221   5.134 -0.4030  0.1328  0.4182
 2988SOL    HW110097   2.939   1.307   5.094  1.2470  0.1121  0.8303
 2988SOL    HW210098   2.914   1.240   5.227  1.2013 -0.1028  0.7127
 2989SOL     OW10099   3.749   1.475   2.668  0.2691 -0.8179 -0.1716
 2989SOL    HW110100   3.745   1.499   2.575 -0.4487 -0.0709  0.0449
 2989SOL    HW210101   3.760   1.380   2.667  0.5208 -0.7903 -1.0204
 2990SOL     OW10102   1.061   1.899   6.298  0.6095  0.7524 -0.1437
 2990SOL    HW110103   1.129   1.947   6.346  0.2978  1.9563 -0.8632
 2990SOL    HW210104   1.078   1.919   6.206 -0.8345  1.2387 -0.3302
 2991SOL     OW10105   5.925   2.804   0.307  0.7082 -0.0136 -0.2022
 2991SOL    HW110106   5.931   2.898   0.327  2.4412 -0.2964  0.8152
 2991SOL    HW210107   5.929   2.800   0.212 -3.5435  1.1285 -0.6179
 2992SOL     OW10108   3.619   5.884   8.485 -0.0387 -0.1229 -0.3544
 2992SOL    HW110109   3.665   5.961   8.519 -1.3474  0.2386  0.7298
 2992SOL    HW210110   3.540   5.920   8.444 -0.8217 -0.8758  0.4354
 2993SOL     OW10111   6.886   6.565   3.476  0.6129  0.5872  0.1250
 2993SOL    HW110112   6.865   6.534   3.564  0.1431  1.9159  0.5044
 2993SOL    HW210113   6.982   6.569   3.475  0.6767 -0.6524  0.1249
 2994SOL     OW10114   2.183   3.716   1.516  0.4863 -0.6177  0.3316
 2994SOL    HW110115   2.209   3.625   1.531 -0.6298 -1.3264 -1.6400
 2994SOL    HW210116   2.219   3.738   1.430 -0.8221  0.1504 -0.0556
 2995SOL     OW10117   1.129   2.252   3.677  0.2633  0.4551 -0.0296
 2995SOL    HW110118   1.207   2.251   3.620  0.3782  0.7780  0.1234
 2995SOL    HW210119   1.162   2.223   3.762  0.0105 -0.4473 -0.2214
 2996SOL     OW10120   1.811   8.607   6.962  0.5610 -0.0770 -0.2386
 2996SOL    HW110121   1.805   8.522   7.006  0.7753  0.0939  0.1281
 2996SOL    HW210122   1.905   8.621   6.950  0.6306  0.8072  1.0977
 2997SOL     OW10123   6.685   8.660   0.980  0.2169 -0.1252  0.3728
 2997SOL    HW110124   6.650   8.579   0.943  2.0094 -0.3823 -0.8805
 2997SOL    HW210125   6.768   8.634   1.019  1.8831  1.4157 -1.9317
 2998SOL     OW10126   4.252   8.518   0.753 -0.4140  0.3636 -0.4222
 2998SOL    HW110127   4.295   8.464   0.687 -0.8598  1.5011 -1.6730
 2998SOL    HW210128   4.309   8.594   0.764  0.7401 -0.7442  2.0806
 2999SOL     OW10129   8.601   2.879   3.974 -0.7197  0.3223 -0.5173
 2999SOL    HW110130   8.528   2.924   3.931 -0.2298  2.2013  0.4872
 2999SOL    HW210131   8.559   2.826   4.041 -1.2224  0.7382 -0.4886
 3000SOL     OW10132   1.460   3.366   7.574 -0.3222 -0.6790 -0.0599
 3000SOL    HW110133   1.414   3.352   7.491  0.7379  0.4274 -0.8675
 3000SOL    HW210134   1.414   3.441   7.614 -0.5411 -0.9163  0.1348
 3001SOL     OW10135   6.261   7.141   6.968 -0.2888 -0.4351  0.3897
 3001SOL    HW110136   6.213   7.202   7.024  1.0219 -0.7346  1.9138
 3001SOL    HW210137   6.231   7.054   6.995 -0.3493 -0.5616 -0.0652
 3002SOL     OW10138   6.171   8.375   2.956 -0.3019  0.5915 -0.0523
 3002SOL    HW110139   6.179   8.290   2.913 -0.1484  1.3463 -1.5742
 3002SOL    HW210140   6.211   8.361   3.042 -0.5471 -0.9405 -0.1482
 3003SOL     OW10141   3.990   4.620   6.754 -0.6515  0.4923 -0.1018
 3003SOL    HW110142   3.940   4.593   6.677 -0.1573 -1.0758  0.1016
 3003SOL    HW210143   3.956   4.566   6.825  1.0190 -0.3067  0.1274
 3004SOL     OW10144   8.367   8.990   0.761  0.0137 -0.3074  0.0246
 3004SOL    HW110145   8.441   8.963   0.815 -0.0858 -0.1692  0.2342
 3004SOL    HW210146   8.295   8.934   0.789  0.0119 -0.3678 -0.1016
 3005SOL     OW10147   0.233   3.440   3.380 -0.1594 -0.0971 -0.3407
 3005SOL    HW110148   0.194   3.499   3.444  0.7851  0.6862 -0.4650
 3005SOL    HW210149   0.158   3.402   3.333 -0.7811  1.4294 -0.6287
 3006SOL     OW10150   4.565   5.956   6.844 -0.0780 -0.5884 -0.1770
 3006SOL    HW110151   4.609   5.875   6.871  0.6954 -0.2234 -0.3193
 3006SOL    HW210152   4.567   6.010   6.923  0.3849 -0.2890 -0.3949
 3007SOL     OW10153   7.660   1.441   7.925 -0.4748  0.1706  0.4590
 3007SOL    HW110154   7.741   1.392   7.943  0.1335  1.0666  0.2378
 3007SOL    HW210155   7.599   1.374   7.895  0.6946 -0.3136 -0.9855
 3008SOL     OW10156   2.677   6.198   3.221 -0.4730  0.0553 -0.2014
 3008SOL    HW110157   2.619   6.169   3.150 -1.1247  0.4782  0.1437
 3008SOL    HW210158   2.624   6.260   3.271 -0.2483 -0.7301  1.0499
 3009SOL     OW10159   5.427   5.368   8.489 -0.3919  0.5852  0.5074
 3009SOL    HW110160   5.365   5.440   8.504  0.0624  1.7483 -2.4862
 3009SOL    HW210161   5.373   5.296   8.456 -0.7470 -0.2749  2.8089
 3010SOL     OW10162   4.957   3.733   5.949 -0.0810 -0.6122 -0.4890
 3010SOL    HW110163   4.894   3.662   5.934 -0.4228 -0.1448 -1.4319
 3010SOL    HW210164   5.042   3.690   5.954 -0.1951 -1.0418 -1.8183
 3011SOL     OW10165   0.526   3.746   8.240  0.0415  0.5418 -0.0468
 3011SOL    HW110166   0.479   3.762   8.158 -1.7038 -2.0447  0.3172
 3011SOL    HW210167   0.499   3.817   8.298  0.4784  1.8248 -1.3635
 3012SOL     OW10168   8.747   2.950   0.752 -0.3579  0.0643 -0.2278
 3012SOL    HW110169   8.705   2.924   0.834  0.6841  2.1746  1.0444
 3012SOL    HW210170   8.768   2.867   0.708 -4.1565 -1.1362 -0.1334
 3013SOL     OW10171   3.191   7.997   7.055  0.1423 -0.2800  0.5008
 3013SOL    HW110172   3.182   7.992   7.150 -0.5739 -3.6204  0.3755
 3013SOL    HW210173   3.132   7.929   7.022  1.4675 -0.2121 -2.2515
 3014SOL     OW10174   0.571   5.939   5.883  0.2184  0.5612  0.4026
 3014SOL    HW110175   0.505   6.008   5.888 -1.0754 -0.6033  0.1672
 3014SOL    HW210176   0.521   5.858   5.886  1.7426 -0.3925  1.4236
 3015SOL     OW10177   0.708   1.268   2.760 -0.2951  0.2525  0.8561
 3015SOL    HW110178   0.624   1.298   2.726  0.5871  1.6876 -0.1456
 3015SOL    HW210179   0.750   1.347   2.795 -0.0012 -0.7112  2.8231
 3016SOL     OW10180   5.815   5.642   5.154  0.1151  0.1288 -0.2120
 3016SOL    HW110181   5.742   5.591   5.118 -1.4428  1.5995  0.6997
 3016SOL    HW210182   5.832   5.603   5.239  0.6703 -0.4569 -0.5853
 3017SOL     OW10183   5.374   2.440   8.502 -0.1207  0.1057  0.5347
 3017SOL    HW110184   5.400   2.355   8.538 -0.5563 -0.0696  0.4329
 3017SOL    HW210185   5.367   2.425   8.408  0.6797  0.4800  0.3998
 3018SOL     OW10186   5.144   7.916   1.218 -0.1908 -0.5343 -0.0240
 3018SOL    HW110187   5.182   7.943   1.135  1.4038 -1.0344  0.4968
 3018SOL    HW210188   5.198   7.959   1.284 -1.0711 -0.5968  0.7523
 3019SOL     OW10189   2.451   7.340   7.334 -0.2887 -0.2224 -0.3620
 3019SOL    HW110190   2.428   7.324   7.242 -3.0446 -1.1957  0.4040
 3019SOL    HW210191   2.415   7.264   7.381  1.4322  0.0392  1.5000
 3020SOL     OW10192   4.364   8.735   5.114  0.5072  0.0515  0.1342
 3020SOL    HW110193   4.450   8.765   5.084  0.0529  1.9726  0.5729
 3020SOL    HW210194   4.343   8.794   5.187  0.4968 -2.8727  2.6870
 3021SOL     OW10195   5.989   4.593   0.231  0.1033  0.4468  0.6221
 3021SOL    HW110196   5.980   4.550   0.316 -2.9319  0.5223  0.4741
 3021SOL    HW210197   6.015   4.682   0.252 -1.0703  0.5945  1.5673
 3022SOL     OW10198   1.487   5.675   5.656  0.4569  0.3216 -0.0882
 3022SOL    HW110199   1.531   5.636   5.581 -0.5406 -0.2170 -0.3991
 3022SOL    HW210200   1.408   5.622   5.669  0.6712  0.3159  1.4238
 3023SOL     OW10201   2.714   5.441   7.330  0.7773  0.2619 -0.1523
 3023SOL    HW110202   2.738   5.533   7.336  0.4706  0.6566 -3.3225
 3023SOL    HW210203   2.789   5.400   7.284  0.5232 -0.8895  0.4209
 3024SOL     OW10204   6.699   4.090   0.496 -0.0934  0.6259  0.0326
 3024SOL    HW110205   6.680   4.053   0.410  2.0264  0.5443 -0.4400
 3024SOL    HW210206   6.618   4.135   0.521 -1.2451 -0.6224 -1.3069
 3025SOL     OW10207   9.084   5.691   3.455 -0.7667 -0.3420  0.3458
 3025SOL    HW110208   9.151   5.661   3.517 -1.3384 -0.3725  0.9605
 3025SOL    HW210209   9.125   5.681   3.369 -0.0243 -0.4693  0.7061
 3026SOL     OW10210   3.196   8.216   1.814  0.1144  0.2113 -0.6411
 3026SOL    HW110211   3.208   8.292   1.758  0.2011 -1.5759 -3.2539
 3026SOL    HW210212   3.223   8.142   1.759  3.6186 -1.4896  2.8933
 3027SOL     OW10213   4.804   6.756   4.611  0.4555 -0.1969 -0.0647
 3027SOL    HW110214   4.878   6.815   4.595  0.1543  0.2445  0.1540
 3027SOL    HW210215   4.742   6.777   4.541 -0.0485  0.3994  0.5522
 3028SOL     OW10216   2.478   3.312   4.777  0.2064 -0.1046 -0.4207
 3028SOL    HW110217   2.454   3.392   4.823  1.5025  0.1729 -0.1961
 3028SOL    HW210218   2.537   3.340   4.707  0.4429 -0.8214 -0.5229
 3029SOL     OW10219   8.647   9.016   6.445  0.3125  0.1557 -0.1762
 3029SOL    HW110220   8.596   8.936   6.460  0.7380 -0.1502 -0.3288
 3029SOL    HW210221   8.588   9.087   6.468 -0.6982 -0.1284 -1.7364
 3030SOL     OW10222   8.247   0.358   1.655  0.7925 -0.2673 -0.9874
 3030SOL    HW110223   8.182   0.328   1.591  1.2255 -1.1470 -1.0292
 3030SOL    HW210224   8.244   0.293   1.725  0.5515  0.5208 -0.2599
 3031SOL     OW10225   1.136   1.148   0.795  0.1839  0.2192  0.4823
 3031SOL    HW110226   1.116   1.096   0.872 -2.4610 -1.1603 -0.9714
 3031SOL    HW210227   1.179   1.087   0.735 -0.0702  0.5749 -0.0730
 3032SOL     OW10228   2.486   2.774   8.990 -0.1226  0.1225  0.0298
 3032SOL    HW110229   2.563   2.823   9.018  1.4779 -0.8054 -2.3614
 3032SOL    HW210230   2.513   2.682   8.997 -1.0192 -0.2147 -0.7518
 3033SOL     OW10231   5.126   4.635   1.253  0.2513  0.1615  0.6024
 3033SOL    HW110232   5.222   4.634   1.253  0.2514  0.1411  0.5310
 3033SOL    HW210233   5.103   4.670   1.339  0.3410  3.0586 -0.4418
 3034SOL     OW10234   8.358   5.723   8.899  0.1480 -0.5882 -0.1289
 3034SOL    HW110235   8.361   5.632   8.867  1.7332 -0.6644  0.1580
 3034SOL    HW210236   8.354   5.714   8.994  0.4896 -0.3566 -0.0937
 3035SOL     OW10237   0.695   1.598   6.967  0.1007 -0.1728  0.1298
 3035SOL    HW110238   0.783   1.588   7.002  0.0942  0.2491  0.2797
 3035SOL    HW210239   0.705   1.659   6.893 -0.2896  1.2367  1.1872
 3036SOL     OW10240   0.000   5.175   0.649 -0.5465 -0.1057 -0.4127
 3036SOL    HW110241  -0.003   5.270   0.644 -0.4436 -0.0740  0.0358
 3036SOL    HW210242   0.003   5.146   0.558 -2.0692  0.2546 -0.6012
 3037SOL     OW10243   8.918   7.732   7.510 -0.3987  0.1535  0.1283
 3037SOL    HW110244   8.858   7.802   7.534 -0.4017  0.2049 -0.0296
 3037SOL    HW210245   8.938   7.688   7.592 -1.0918 -0.2070  0.1100
 3038SOL     OW10246   2.194   5.482   1.947  0.1486 -0.0160  0.2069
 3038SOL    HW110247   2.108   5.445   1.969  0.5131 -1.0841 -0.0825
 3038SOL    HW210248   2.176   5.544   1.877 -0.2295 -1.3858 -0.9637
 3039SOL     OW10249   3.389   2.536   3.374 -0.3124 -0.0232 -0.0080
 3039SOL    HW110250   3.399   2.475   3.302 -1.8081  0.3429 -0.5787
 3039SOL    HW210251   3.423   2.619   3.340  1.5360 -0.4443  0.6989
 3040SOL     OW10252   6.155   3.381   7.631  0.2562 -0.4447  0.5601
 3040SOL    HW110253   6.104   3.359   7.553  2.8114  0.8911 -1.6573
 3040SOL    HW210254   6.095   3.433   7.685 -0.7408  1.2370 -1.9924
 3041SOL     OW10255   7.675   6.810   7.434  0.0907 -0.2654 -0.4093
 3041SOL    HW110256   7.607   6.762   7.388 -0.0342 -0.9474  0.4688
 3041SOL    HW210257   7.754   6.798   7.380 -0.4656  0.5392 -1.4344
 3042SOL     OW10258   3.336   3.717   5.169 -0.3209 -0.2095 -0.1390
 3042SOL    HW110259   3.357   3.626   5.189 -0.5161  0.1162  1.7691
 3042SOL    HW210260   3.241   3.718   5.159 -0.1810 -0.4543 -1.6888
 3043SOL     OW10261   5.596   3.730   8.293  0.4316 -0.0716  0.6061
 3043SOL    HW110262   5.646   3.783   8.230 -1.0226  0.0841 -0.4730
 3043SOL    HW210263   5.656   3.661   8.319  0.5386 -1.2518 -2.3913
 3044SOL     OW10264   2.884   7.295   0.295  0.7536  0.0218  0.2748
 3044SOL    HW110265   2.803   7.326   0.256  0.8815  1.4698  1.0956
 3044SOL    HW210266   2.871   7.303   0.389  0.9269 -2.1866  0.5336
 3045SOL     OW10267   5.469   5.024   3.358 -0.1130  0.1399  0.0243
 3045SOL    HW110268   5.459   5.022   3.453 -1.7738 -0.5527 -0.1310
 3045SOL    HW210269   5.389   5.066   3.326  1.1080  1.8161 -1.0224
 3046SOL     OW10270   4.542   3.878   8.223 -0.1821 -0.1651 -0.5475
 3046SOL    HW110271   4.479   3.818   8.262  1.6542 -1.9380 -0.1531
 3046SOL    HW210272   4.506   3.965   8.241 -3.5040 -1.0473 -2.1061
 3047SOL     OW10273   6.438   5.797   8.588 -0.0520 -0.1542  0.2322
 3047SOL    HW110274   6.414   5.735   8.519 -0.2274  2.2367 -1.9891
 3047SOL    HW210275   6.359   5.847   8.603  0.4729  0.4748  0.9489
 3048SOL     OW10276   2.055   1.593   0.945 -0.4864 -0.0632 -0.8081
 3048SOL    HW110277   2.138   1.545   0.936  1.1153  2.5627 -1.1592
 3048SOL    HW210278   2.019   1.593   0.856  0.8943  1.5935 -1.4274
 3049SOL     OW10279   5.129   5.049   3.624 -0.4442  0.4377  0.0136
 3049SOL    HW110280   5.100   5.044   3.715 -1.5601 -0.9102 -0.3765
 3049SOL    HW210281   5.223   5.035   3.628 -0.4437  0.6293  0.9721
 3050SOL     OW10282   6.552   2.667   3.970 -0.0692 -0.2063 -0.5613
 3050SOL    HW110283   6.563   2.607   4.043  2.3380 -2.4122 -2.5152
 3050SOL    HW210284   6.600   2.745   3.995  0.3197 -0.7304  0.3730
 3051SOL     OW10285   5.904   4.188   0.553 -0.8929 -0.5771 -0.0885
 3051SOL    HW110286   5.830   4.243   0.528 -0.4221  0.0539 -0.1069
 3051SOL    HW210287   5.865   4.102   0.570 -2.1226  0.4254  2.8370
 3052SOL     OW10288   2.431   5.144   8.614 -0.1069  0.4073 -0.2374
 3052SOL    HW110289   2.450   5.201   8.540  1.7134  0.9315  0.5852
 3052SOL    HW210290   2.458   5.057   8.585  1.2974  0.7330  0.0357
 3053SOL     OW10291   4.954   1.576   3.732  0.6670  0.0280 -0.4597
 3053SOL    HW110292   4.903   1.551   3.809  1.6560 -1.3996 -0.2333
 3053SOL    HW210293   5.021   1.635   3.767 -0.2966  1.2449 -0.6246
 3054SOL     OW10294   0.962   0.588   6.582  0.1297  0.4263 -0.1293
 3054SOL    HW110295   0.879   0.620   6.547  0.3400 -0.6488 -1.7310
 3054SOL    HW210296   0.945   0.496   6.604  0.9560  0.1110 -0.7607
 3055SOL     OW10297   4.586   9.084   1.081 -0.3206  0.0078  0.0777
 3055SOL    HW110298   4.542   9.013   1.127  2.1088 -0.2813  2.1661
 3055SOL    HW210299   4.661   9.042   1.038  0.5577  1.1169  0.4617
 3056SOL     OW10300   1.015   2.284   3.144  0.5720 -0.2726 -0.0075
 3056SOL    HW110301   0.941   2.266   3.086  0.2784 -0.0418  0.2887
 3056SOL    HW210302   1.092   2.273   3.088  0.3079 -0.3355 -0.3669
 3057SOL     OW10303   6.491   1.544   3.579 -0.0719 -0.0039 -0.3087
 3057SOL    HW110304   6.462   1.626   3.620  0.5070  0.2885 -0.4807
 3057SOL    HW210305   6.552   1.507   3.642  0.4516  0.2074 -0.6867
 3058SOL     OW10306   2.231   6.150   1.077 -0.2294  0.5671 -0.1136
 3058SOL    HW110307   2.276   6.231   1.055  0.0534 -0.2349 -2.7555
 3058SOL    HW210308   2.166   6.176   1.143 -0.0918  2.9119 -0.8156
 3059SOL     OW10309   3.942   2.820   1.318  0.4601 -0.6615  0.1110
 3059SOL    HW110310   3.869   2.876   1.345  0.3847 -1.2207  1.1235
 3059SOL    HW210311   4.020   2.870   1.339  0.3931 -0.9252  1.0356
 3060SOL     OW10312   3.762   5.144   4.284 -0.3531 -0.0963 -0.2641
 3060SOL    HW110313   3.792   5.224   4.327 -0.6219  0.4380 -1.0566
 3060SOL    HW210314   3.670   5.159   4.264 -0.1304 -0.1378 -1.4316
 3061SOL     OW10315   1.250   4.403   7.953  0.2923 -0.0582 -0.8019
 3061SOL    HW110316   1.188   4.477   7.957  0.5996  0.1622  0.1061
 3061SOL    HW210317   1.297   4.416   7.871  0.1604  0.6071 -0.7804
 3062SOL     OW10318   2.206   0.287   2.735  0.7218  0.0677  0.7388
 3062SOL    HW110319   2.130   0.243   2.772 -0.2984  0.9523 -0.2315
 3062SOL    HW210320   2.175   0.376   2.716  1.9861  0.4293  0.2919
 3063SOL     OW10321   2.904   6.461   7.270  0.2024  0.0546 -0.2490
 3063SOL    HW110322   2.953   6.511   7.204 -0.4507  1.1963  0.1051
 3063SOL    HW210323   2.919   6.508   7.352 -2.7457  1.4791 -0.3708
 3064SOL     OW10324   3.463   2.200   4.587 -0.1038 -0.6084  1.1026
 3064SOL    HW110325   3.490   2.123   4.638 -1.2411 -0.9689  1.1749
 3064SOL    HW210326   3.538   2.218   4.530  0.8169 -0.7648  2.2336
 3065SOL     OW10327   2.063   0.651   0.180 -0.3884 -0.5718 -0.0055
 3065SOL    HW110328   1.985   0.707   0.180 -0.7831 -1.1091  0.0118
 3065SOL    HW210329   2.100   0.663   0.093 -0.3711 -0.1541  0.0551
 3066SOL     OW10330   2.448   5.128   1.491 -0.0058 -0.1107 -0.4143
 3066SOL    HW110331   2.422   5.038   1.508 -0.0135  0.2056  1.5564
 3066SOL    HW210332   2.366   5.176   1.483 -0.0006 -0.1584 -0.7769
 3067SOL     OW10333   2.764   6.736   1.379 -0.4543 -0.0800 -0.6518
 3067SOL    HW110334   2.774   6.742   1.474 -0.7244 -1.4386 -0.5162
 3067SOL    HW210335   2.854   6.741   1.345 -0.1898 -1.3239 -0.1891
 3068SOL     OW10336   6.403   5.399   6.558 -0.0757 -0.1458 -0.5468
 3068SOL    HW110337   6.445   5.419   6.642 -0.6570 -0.8243 -0.0924
 3068SOL    HW210338   6.316   5.438   6.565 -0.1667 -0.3033 -0.7905
 3069SOL     OW10339   0.587   0.521   5.631  0.4615  0.1122 -0.0675
 3069SOL    HW110340   0.547   0.479   5.707  2.8192  0.6324  1.5704
 3069SOL    HW210341   0.631   0.451   5.584 -0.4390 -0.1014 -0.6206
 3070SOL     OW10342   6.018   8.000   1.612 -1.1047 -0.6233  0.0085
 3070SOL    HW110343   6.050   7.988   1.522 -2.2293  0.8948 -0.6487
 3070SOL    HW210344   6.080   8.062   1.651 -1.6045  0.1094 -0.3331
 3071SOL     OW10345   3.939   2.233   4.285 -0.4250 -0.6404  0.0480
 3071SOL    HW110346   3.868   2.218   4.224  0.1540 -0.2792 -0.7281
 3071SOL    HW210347   4.003   2.164   4.267 -0.9352 -1.5015  1.3342
 3072SOL     OW10348   2.777   8.497   0.077  0.6484  1.0862 -0.2369
 3072SOL    HW110349   2.860   8.532   0.109 -0.2188  1.6372  1.5744
 3072SOL    HW210350   2.729   8.574   0.045  0.5619  0.8768 -0.6167
 3073SOL     OW10351   4.452   2.500   4.519  0.2428 -0.1690 -0.2241
 3073SOL    HW110352   4.474   2.525   4.429  1.9331 -0.9955 -0.0648
 3073SOL    HW210353   4.362   2.531   4.530  0.1038  0.2344 -2.0862
 3074SOL     OW10354   8.627   6.588   6.750 -0.7363 -0.4729  0.6406
 3074SOL    HW110355   8.666   6.551   6.671 -0.8056 -0.1713  0.4637
 3074SOL    HW210356   8.637   6.520   6.816  0.4677 -0.2632  0.7107
 3075SOL     OW10357   2.743   8.445   3.110  0.2042  0.7745  0.1679
 3075SOL    HW110358   2.819   8.400   3.074 -0.0678 -0.0807  0.6310
 3075SOL    HW210359   2.777   8.530   3.140  0.6196  1.1167 -1.1928
 3076SOL     OW10360   3.175   4.714   6.987  0.2339 -0.2587 -0.3896
 3076SOL    HW110361   3.254   4.767   6.975 -0.8581  1.2257 -1.3643
 3076SOL    HW210362   3.204   4.639   7.039  2.3048  0.1614 -0.8550
 3077SOL     OW10363   5.021   0.107   1.290 -0.0877 -0.4386  1.1255
 3077SOL    HW110364   5.050   0.037   1.230  1.4714  0.0811  1.2421
 3077SOL    HW210365   4.940   0.073   1.329  0.6108 -2.1634  1.1437
 3078SOL     OW10366   0.869   6.024   8.369 -0.2185  0.4849  0.0453
 3078SOL    HW110367   0.906   6.100   8.415 -0.4995  1.8079 -1.8406
 3078SOL    HW210368   0.877   6.045   8.276 -0.5063 -1.7181 -0.5415
 3079SOL     OW10369   9.056   4.525   6.843  0.4061 -0.5461  0.2124
 3079SOL    HW110370   9.124   4.581   6.881  0.1467 -0.1073  0.0357
 3079SOL    HW210371   9.055   4.547   6.750 -2.0828  1.7677  0.6662
 3080SOL     OW10372   8.446   3.719   3.504  0.1813  0.0535  0.0411
 3080SOL    HW110373   8.397   3.709   3.422  2.1348  0.5052 -1.2572
 3080SOL    HW210374   8.470   3.630   3.528  0.5576 -0.0127 -0.5369
 3081SOL     OW10375   0.752   3.544   1.606 -0.0889 -0.4368 -0.2485
 3081SOL    HW110376   0.657   3.547   1.600 -0.1338 -1.6160 -0.3610
 3081SOL    HW210377   0.773   3.451   1.616  1.0403 -0.1818 -0.0694
 3082SOL     OW10378   7.541   4.722   6.298  0.1870 -0.0315 -0.5153
 3082SOL    HW110379   7.474   4.737   6.231 -0.5535 -1.0224 -0.0104
 3082SOL    HW210380   7.492   4.706   6.379  1.0547  0.2261  0.0755
 3083SOL     OW10381   6.844   0.258   5.738  0.6756  0.0857  0.4635
 3083SOL    HW110382   6.922   0.263   5.793  1.0428 -0.8262  0.0607
 3083SOL    HW210383   6.794   0.185   5.775  1.2204 -0.9356 -0.7500
 3084SOL     OW10384   2.415   5.694   8.591  0.0930 -0.3905 -0.0548
 3084SOL    HW110385   2.461   5.778   8.591 -2.5085  1.1535 -0.6936
 3084SOL    HW210386   2.416   5.666   8.683 -0.9456  1.5439  0.6040
 3085SOL     OW10387   0.180   3.182   6.306 -0.5518 -0.4398 -0.0301
 3085SOL    HW110388   0.263   3.134   6.315 -0.6639 -0.4401  1.1108
 3085SOL    HW210389   0.193   3.261   6.358 -1.0256 -0.1141 -0.4093
 3086SOL     OW10390   4.253   6.118   6.256  0.4381  0.2308 -0.0191
 3086SOL    HW110391   4.238   6.114   6.162  1.1946 -0.3272 -0.1221
 3086SOL    HW210392   4.234   6.030   6.287  0.6905  0.2785  0.2727
 3087SOL     OW10393   3.939   5.137   7.366  0.1970 -0.2875  0.7481
 3087SOL    HW110394   3.958   5.045   7.349  0.2622 -0.0011 -0.9603
 3087SOL    HW210395   3.914   5.173   7.280  0.8362  1.4350  1.2293
 3088SOL     OW10396   4.228   1.271   7.554  0.1762 -0.7367  0.3703
 3088SOL    HW110397   4.137   1.242   7.559  0.1914 -1.1340 -1.0574
 3088SOL    HW210398   4.222   1.365   7.533 -0.0112 -1.3468 -2.8121
 3089SOL     OW10399   8.409   7.702   6.060  0.5814 -0.1385 -0.0172
 3089SOL    HW110400   8.327   7.682   6.105  0.4669  1.6228  0.6406
 3089SOL    HW210401   8.388   7.698   5.967 -0.2368  0.1742  0.1461
 3090SOL     OW10402   4.937   8.090   7.754  0.1670 -0.2048  0.2475
 3090SOL    HW110403   4.951   8.184   7.754  0.9114 -0.3080  0.4234
 3090SOL    HW210404   4.869   8.075   7.688 -0.9116  0.5813  1.1599
 3091SOL     OW10405   2.744   2.817   1.657 -0.1017 -0.0807  0.7306
 3091SOL    HW110406   2.821   2.766   1.679  3.0531  2.4076 -3.0739
 3091SOL    HW210407   2.731   2.801   1.563 -3.8466  0.2139  1.0666
 3092SOL     OW10408   4.633   5.964   6.290  0.2906 -0.4543 -0.2418
 3092SOL    HW110409   4.639   6.022   6.366  3.8780  1.4450 -1.7343
 3092SOL    HW210410   4.590   6.017   6.223 -0.1731 -1.0633 -0.4384
 3093SOL     OW10411   6.475   7.668   0.272 -0.2490  0.1043  0.1993
 3093SOL    HW110412   6.442   7.583   0.241  0.6854 -0.4019  0.5534
 3093SOL    HW210413   6.537   7.696   0.205  0.2673 -0.0261  0.6168
 3094SOL     OW10414   4.380   0.931   1.183 -0.2830 -0.1484  0.0324
 3094SOL    HW110415   4.468   0.964   1.199 -0.0793  0.0486 -1.3636
 3094SOL    HW210416   4.389   0.877   1.104 -1.4146 -0.0916 -0.1520
 3095SOL     OW10417   7.396   7.930   6.715  0.3150 -0.0226 -0.1095
 3095SOL    HW110418   7.401   8.024   6.699 -1.4952 -0.1718 -1.8918
 3095SOL    HW210419   7.387   7.923   6.810 -0.7662  1.6940 -0.0447
 3096SOL     OW10420   9.053   4.482   0.282  0.1436  0.7149  0.3983
 3096SOL    HW110421   9.145   4.481   0.307  0.2904 -1.2932  0.0145
 3096SOL    HW210422   9.052   4.511   0.191  0.4839  0.2016  0.2238
 3097SOL     OW10423   6.822   4.306   5.129  0.8908  0.1971 -0.4757
 3097SOL    HW110424   6.889   4.244   5.158 -0.0077 -0.9266 -0.7193
 3097SOL    HW210425   6.797   4.353   5.208 -0.2518 -1.5721  0.2647
 3098SOL     OW10426   7.543   4.790   4.152  0.0834  0.2370  0.0677
 3098SOL    HW110427   7.500   4.849   4.214  1.2451  0.1173  1.0382
 3098SOL    HW210428   7.511   4.703   4.177 -1.1536  0.3757 -0.9630
 3099SOL     OW10429   8.056   6.427   3.997  0.3244 -0.4420 -0.5242
 3099SOL    HW110430   7.968   6.426   3.961  0.1440  0.9407 -0.1741
 3099SOL    HW210431   8.087   6.337   3.989 -1.9313 -1.4764  1.3552
 3100SOL     OW10432   2.612   7.945   7.855 -0.0602 -0.0191 -0.5072
 3100SOL    HW110433   2.570   7.915   7.775 -1.1270 -2.0062  0.7313
 3100SOL    HW210434   2.668   7.872   7.882 -2.1078 -0.7742  2.1723
 3101SOL     OW10435   6.447   3.529   4.738  0.4236  0.1216  0.1559
 3101SOL    HW110436   6.383   3.595   4.712  0.2389 -0.4925 -0.9951
 3101SOL    HW210437   6.415   3.497   4.823 -0.7276 -0.0719 -0.3263
 3102SOL     OW10438   7.864   2.823   7.186  0.0255  0.3268 -0.8599
 3102SOL    HW110439   7.807   2.752   7.156  0.1446  0.1143 -0.5867
 3102SOL    HW210440   7.921   2.841   7.111 -0.1033  0.2367 -0.9808
 3103SOL     OW10441   3.970   7.027   1.006 -0.1600  0.9073 -0.2782
 3103SOL    HW110442   4.016   6.974   1.070 -0.5126  0.0098 -0.7420
 3103SOL    HW210443   3.968   7.114   1.044 -0.1541  0.4480  0.8178
 3104SOL     OW10444   8.240   5.619   1.194  0.3065  0.2984  0.7313
 3104SOL    HW110445   8.169   5.590   1.136  0.2704  1.1958  0.3105
 3104SOL    HW210446   8.298   5.543   1.201 -0.8451 -0.5626  1.3347
 3105SOL     OW10447   2.385   2.933   2.218 -0.4944  0.0413  0.2120
 3105SOL    HW110448   2.293   2.932   2.195 -1.0449  0.6345  2.2001
 3105SOL    HW210449   2.391   2.879   2.297  1.1952 -1.5052 -0.8839
 3106SOL     OW10450   2.780   0.276   2.230  0.3704 -0.5851 -0.2020
 3106SOL    HW110451   2.757   0.322   2.150  1.4183 -0.1187 -0.2495
 3106SOL    HW210452   2.792   0.185   2.203  0.3607 -0.4993 -0.4989
 3107SOL     OW10453   3.973   4.660   4.508  0.2176  0.0608 -0.1423
 3107SOL    HW110454   3.966   4.747   4.546 -1.7886  0.0903 -0.4899
 3107SOL    HW210455   3.959   4.673   4.414 -0.9748 -0.7133 -0.0938
 3108SOL     OW10456   8.236   6.568   3.158 -0.2770 -0.1451 -0.4639
 3108SOL    HW110457   8.164   6.610   3.110 -0.0128 -0.8312 -1.4883
 3108SOL    HW210458   8.259   6.631   3.226 -1.4491  0.3455 -0.4922
 3109SOL     OW10459   7.104   9.097   1.525 -0.6360 -0.2208 -0.8507
 3109SOL    HW110460   7.052   9.040   1.582 -1.2632  0.9775 -0.1865
 3109SOL    HW210461   7.039   9.138   1.467 -0.3674  0.8326 -0.4165
 3110SOL     OW10462   0.991   6.787   0.245  0.5575 -0.2706  0.4611
 3110SOL    HW110463   0.963   6.835   0.323 -0.8267 -0.3365  0.0432
 3110SOL    HW210464   0.920   6.801   0.182  1.3482 -0.7469 -0.5591
 3111SOL     OW10465   7.244   5.773   0.975 -0.3818  0.4871  0.3109
 3111SOL    HW110466   7.159   5.819   0.977 -0.6898 -0.0763  0.4398
 3111SOL    HW210467   7.220   5.681   0.968  0.2198  0.2976  0.7174
 3112SOL     OW10468   5.570   1.563   0.920  0.3737  0.1040 -0.1426
 3112SOL    HW110469   5.660   1.531   0.926 -0.5829 -3.2322 -1.0126
 3112SOL    HW210470   5.553   1.572   0.827  0.0567  1.7194  0.0395
 3113SOL     OW10471   6.211   1.855   4.926  0.3948  0.0645  0.4215
 3113SOL    HW110472   6.251   1.870   4.841 -1.4189  0.7549 -0.3467
 3113SOL    HW210473   6.208   1.942   4.967  0.9975 -0.2175  1.0964
 3114SOL     OW10474   8.099   0.711   6.554  0.5598 -0.5309 -0.2516
 3114SOL    HW110475   8.074   0.793   6.598 -0.8458 -0.5975 -0.8876
 3114SOL    HW210476   8.105   0.647   6.625  0.2723 -0.2011  0.0775
 3115SOL     OW10477   7.080   7.549   2.114  0.5296  0.3572 -0.2338
 3115SOL    HW110478   7.029   7.508   2.044 -3.0952 -0.6576  2.7082
 3115SOL    HW210479   7.100   7.478   2.174  2.6025  1.3893  0.4018
 3116SOL     OW10480   0.478   3.219   7.449 -0.2708  0.2238 -0.4030
 3116SOL    HW110481   0.418   3.267   7.393  0.6497  0.5034 -1.1718
 3116SOL    HW210482   0.521   3.157   7.391 -2.6623 -2.8627  0.8439
 3117SOL     OW10483   7.633   1.898   6.490 -0.1690  0.4399 -0.0502
 3117SOL    HW110484   7.560   1.846   6.457  1.2324 -1.4480 -0.3952
 3117SOL    HW210485   7.611   1.988   6.468 -0.9110 -0.3715 -3.1074
 3118SOL     OW10486   6.487   5.195   8.059 -0.3120 -0.7282  0.4400
 3118SOL    HW110487   6.576   5.172   8.031 -0.9716 -0.9132 -1.6405
 3118SOL    HW210488   6.490   5.290   8.069  0.1136 -0.7317  0.3821
 3119SOL     OW10489   3.234   1.588   1.665  0.3820  0.2106  0.4516
 3119SOL    HW110490   3.200   1.569   1.753 -2.0953  0.0787 -0.4597
 3119SOL    HW210491   3.286   1.668   1.676 -1.2329  1.1417  1.7976
 3120SOL     OW10492   3.028   4.819   0.132 -0.0328  0.3982  0.2753
 3120SOL    HW110493   2.994   4.905   0.108 -0.6288  0.2123  0.4434
 3120SOL    HW210494   3.061   4.782   0.050 -2.3901 -0.3959 -0.4131
 3121SOL     OW10495   7.946   8.640   4.719 -0.1362 -0.0493  0.1963
 3121SOL    HW110496   7.944   8.707   4.787 -0.5921  0.7154 -0.5559
 3121SOL    HW210497   7.945   8.557   4.768  3.7587  0.3461  1.2815
 3122SOL     OW10498   5.033   5.143   1.176  0.2233 -0.5395 -0.3287
 3122SOL    HW110499   4.970   5.206   1.141  0.5884  0.4172  0.6760
 3122SOL    HW210500   5.061   5.093   1.099 -0.1417  0.4571 -1.1457
 3123SOL     OW10501   8.156   0.460   6.760 -0.4780  0.3940  0.3599
 3123SOL    HW110502   8.080   0.469   6.702 -0.4146 -0.8229  0.0684
 3123SOL    HW210503   8.117   0.443   6.846 -0.5674  2.0428  0.6832
 3124SOL     OW10504   0.125   3.735   8.257  0.2555  0.0076 -0.0146
 3124SOL    HW110505   0.207   3.733   8.208 -0.4834 -0.2209 -1.3020
 3124SOL    HW210506   0.103   3.828   8.262  0.9293  0.1270  0.9484
 3125SOL     OW10507   0.385   4.681   1.530 -0.6083  0.6754  0.2924
 3125SOL    HW110508   0.324   4.683   1.456 -0.1962  1.1157 -0.0482
 3125SOL    HW210509   0.413   4.590   1.535  1.1447  1.0124 -1.6339
 3126SOL     OW10510   7.381   2.173   2.527 -0.7942  0.1318  0.2722
 3126SOL    HW110511   7.444   2.133   2.467 -1.2089  0.1689 -0.2039
 3126SOL    HW210512   7.416   2.157   2.614  0.5853  1.3571 -0.0263
 3127SOL     OW10513   4.871   2.087   1.387 -0.4877 -0.4495  0.3765
 3127SOL    HW110514   4.826   2.169   1.363 -2.0177 -1.5268 -0.5922
 3127SOL    HW210515   4.824   2.019   1.339  1.6366 -1.7687  0.0581
 3128SOL     OW10516   3.811   3.401   1.185 -0.0694  0.1390 -0.2007
 3128SOL    HW110517   3.901   3.396   1.152 -0.0719 -0.5412 -0.1191
 3128SOL    HW210518   3.758   3.359   1.117 -0.1380 -0.7909  0.4098
 3129SOL     OW10519   4.288   0.923   6.469  0.4423 -0.0875 -0.1860
 3129SOL    HW110520   4.302   0.873   6.549  1.4830  1.3282  0.5463
 3129SOL    HW210521   4.232   0.866   6.415 -0.7943 -0.8047  1.7673
 3130SOL     OW10522   0.346   0.740   2.136 -0.4480  0.2523 -0.2516
 3130SOL    HW110523   0.356   0.685   2.058  1.2710  1.1964 -0.7535
 3130SOL    HW210524   0.260   0.717   2.171 -0.2173 -1.9665 -1.0227
 3131SOL     OW10525   3.100   7.669   1.585 -0.3161 -0.0437 -0.6660
 3131SOL    HW110526   3.122   7.700   1.497 -1.6838 -0.2975 -1.1247
 3131SOL    HW210527   3.005   7.661   1.584 -0.4009  0.3982  0.9990
 3132SOL     OW10528   1.924   6.866   3.248 -0.1649 -0.3281  0.0385
 3132SOL    HW110529   1.902   6.959   3.255  0.9978 -0.1470  2.1695
 3132SOL    HW210530   1.848   6.827   3.205 -0.7279  1.5775 -0.7966
 3133SOL     OW10531   7.303   5.214   8.806  0.4720 -0.9033 -0.3940
 3133SOL    HW110532   7.317   5.227   8.900 -0.2635  1.0499 -0.5192
 3133SOL    HW210533   7.327   5.297   8.766 -0.6115 -1.2212 -1.7844
 3134SOL     OW10534   4.287   4.145   7.542 -0.4619  0.3113  0.0982
 3134SOL    HW110535   4.263   4.217   7.601  3.1416  2.3706 -0.6584
 3134SOL    HW210536   4.348   4.092   7.594 -0.5562 -0.3117 -0.4238
 3135SOL     OW10537   6.304   8.133   7.456  0.7468  0.2849  0.2252
 3135SOL    HW110538   6.299   8.156   7.363  2.0126  1.3051  0.3832
 3135SOL    HW210539   6.305   8.037   7.456  0.9071  0.2677 -0.8179
 3136SOL     OW10540   4.541   2.069   0.093 -0.4891 -0.0189 -0.0362
 3136SOL    HW110541   4.471   2.123   0.054 -0.7767 -0.3363  0.0370
 3136SOL    HW210542   4.507   2.044   0.178 -0.1938 -0.0039  0.0860
 3137SOL     OW10543   9.082   7.939   3.075  0.1600 -0.4191 -0.1095
 3137SOL    HW110544   9.095   8.016   3.130  0.2823  0.0225 -0.7442
 3137SOL    HW210545   8.996   7.952   3.035  0.6333 -0.0607 -1.0558
 3138SOL     OW10546   6.255   5.128   0.613 -0.3721  0.2457  0.0004
 3138SOL    HW110547   6.224   5.173   0.692  1.2438  1.1950  0.1320
 3138SOL    HW210548   6.292   5.046   0.645 -1.2067 -0.1232  0.0323
 3139SOL     OW10549   7.776   7.680   4.796  0.6374  0.5567  0.6125
 3139SOL    HW110550   7.765   7.775   4.802  0.6064  0.5282  1.0780
 3139SOL    HW210551   7.713   7.645   4.860  1.2807  0.2632  1.0974
 3140SOL     OW10552   7.699   4.782   7.659 -0.3695  0.2575 -0.0624
 3140SOL    HW110553   7.776   4.794   7.715  1.6860 -1.7858 -2.2338
 3140SOL    HW210554   7.625   4.782   7.720  1.4940  0.3242  2.3603
 3141SOL     OW10555   2.258   4.416   5.942  0.3312  0.0040  0.1544
 3141SOL    HW110556   2.207   4.496   5.954  0.2569 -0.2816  2.1388
 3141SOL    HW210557   2.334   4.443   5.892 -1.4509  0.5458 -2.4525
 3142SOL     OW10558   8.825   5.837   0.129 -0.6833 -0.3678 -0.3411
 3142SOL    HW110559   8.918   5.836   0.108 -0.3159  0.7120  1.0960
 3142SOL    HW210560   8.786   5.776   0.067  0.4956  1.5403 -3.1559
 3143SOL     OW10561   8.997   1.599   2.543 -0.3065  0.1198  0.2235
 3143SOL    HW110562   9.041   1.527   2.590  0.2301  0.9464  1.0316
 3143SOL    HW210563   8.930   1.629   2.604 -0.9066 -0.0482 -0.3416
 3144SOL     OW10564   7.704   4.534   6.415 -0.0555 -0.0508 -0.5457
 3144SOL    HW110565   7.656   4.579   6.345 -2.4565 -0.5094  0.7086
 3144SOL    HW210566   7.748   4.604   6.463 -1.5440  0.7352 -0.2493
 3145SOL     OW10567   5.039   8.711   6.721  0.5518 -0.5140  0.3551
 3145SOL    HW110568   5.108   8.674   6.775  0.5856 -3.2020 -1.3493
 3145SOL    HW210569   5.085   8.774   6.664  1.0201  0.0032  1.2814
 3146SOL     OW10570   0.321   2.003   2.911 -0.3135 -0.4679  0.0762
 3146SOL    HW110571   0.335   1.932   2.849 -0.6243 -1.3489  0.9992
 3146SOL    HW210572   0.241   2.046   2.881  0.1054 -0.2167 -0.7303
 3147SOL     OW10573   5.922   0.525   0.764 -0.2350  0.4105 -0.2132
 3147SOL    HW110574   5.946   0.560   0.850 -1.1854 -1.4160  0.8364
 3147SOL    HW210575   5.943   0.432   0.769 -0.1099  0.3068 -2.0585
 3148SOL     OW10576   6.990   8.524   2.709 -0.2291 -0.1393 -0.7644
 3148SOL    HW110577   7.004   8.453   2.771  0.7514  1.5736  1.0808
 3148SOL    HW210578   7.012   8.486   2.624  1.7834 -1.6530  0.3470
 3149SOL     OW10579   1.921   6.653   8.612  0.8751 -0.0817  0.0182
 3149SOL    HW110580   1.965   6.683   8.691  1.1087 -0.3493 -0.0084
 3149SOL    HW210581   1.846   6.711   8.602 -0.9913 -1.9724  2.1655
 3150SOL     OW10582   2.317   8.676   8.122  0.2446 -0.3301 -0.3299
 3150SOL    HW110583   2.321   8.734   8.199  0.5113  0.0546 -0.6304
 3150SOL    HW210584   2.297   8.734   8.049 -0.8968 -0.8132 -0.4342
 3151SOL     OW10585   2.044   5.794   7.646  0.0253  0.3619  0.6693
 3151SOL    HW110586   1.975   5.757   7.702  0.0061 -1.0838 -0.2683
 3151SOL    HW210587   2.111   5.726   7.642  0.1687  0.5597 -0.7968
 3152SOL     OW10588   3.560   3.384   4.882  0.2875  0.0197 -0.5269
 3152SOL    HW110589   3.506   3.455   4.918 -1.1831 -1.7505  0.9561
 3152SOL    HW210590   3.528   3.305   4.927  0.7706 -1.8322 -3.2449
 3153SOL     OW10591   8.912   8.620   0.777 -0.1916  0.1978 -0.0344
 3153SOL    HW110592   8.908   8.707   0.737 -0.9177  0.7890  1.2614
 3153SOL    HW210593   8.867   8.563   0.714 -0.8498  1.0055 -0.3115
 3154SOL     OW10594   9.079   6.719   1.987 -0.0121 -0.0017 -0.1010
 3154SOL    HW110595   9.061   6.668   1.908  2.6740  0.0488 -0.8308
 3154SOL    HW210596   9.102   6.806   1.954  1.6198 -0.1132  0.6734
 3155SOL     OW10597   6.082   2.377   2.756  0.4782 -0.0894 -0.3299
 3155SOL    HW110598   6.174   2.358   2.742  0.6494  0.6279 -0.2119
 3155SOL    HW210599   6.035   2.306   2.711  1.0942 -1.3760  0.9679
 3156SOL     OW10600   2.864   1.714   0.277  0.3973  0.2201  0.2100
 3156SOL    HW110601   2.778   1.716   0.319  0.2508 -2.0385  0.1504
 3156SOL    HW210602   2.890   1.622   0.280  3.1030  0.9087  0.7306
 3157SOL     OW10603   2.963   7.152   5.803 -0.0948  0.2549  0.1067
 3157SOL    HW110604   2.917   7.150   5.719  1.1285  0.7004 -0.6049
 3157SOL    HW210605   3.051   7.182   5.781  0.2281  0.4545  1.5693
 3158SOL     OW10606   0.121   3.455   6.707  0.1746  0.1553  0.5523
 3158SOL    HW110607   0.153   3.466   6.618 -0.3417  0.1984  0.3735
 3158SOL    HW210608   0.184   3.396   6.748 -0.8460 -1.7345 -0.5125
 3159SOL     OW10609   2.415   0.709   1.804 -0.2319  0.0079  0.5232
 3159SOL    HW110610   2.335   0.751   1.773 -0.1682 -0.1410  0.1568
 3159SOL    HW210611   2.390   0.667   1.887 -0.7767 -0.8861 -0.0839
 3160SOL     OW10612   1.880   2.060   1.430 -0.0767  0.3147 -0.5702
 3160SOL    HW110613   1.806   2.087   1.485  1.1677 -0.9257  1.8927
 3160SOL    HW210614   1.957   2.094   1.475  0.9363  1.5066 -3.0285
 3161SOL     OW10615   3.632   2.279   5.719  0.1909  0.1752  0.2828
 3161SOL    HW110616   3.539   2.293   5.700 -0.0569 -1.7276 -0.1099
 3161SOL    HW210617   3.677   2.304   5.638 -0.5022 -3.8034 -1.5605
 3162SOL     OW10618   4.999   3.022   5.500  0.1146 -0.0459  0.3887
 3162SOL    HW110619   4.968   3.103   5.461  0.8639  0.8065  1.4733
 3162SOL    HW210620   5.073   2.995   5.445  0.4052  0.4830  0.5163
 3163SOL     OW10621   3.072   1.887   8.961  0.0874  0.0221 -0.2207
 3163SOL    HW110622   3.141   1.946   8.928 -0.5534  0.7064 -0.3488
 3163SOL    HW210623   3.068   1.905   9.055 -1.6046  1.8110 -0.5723
 3164SOL     OW10624   9.089   5.956   4.447  0.2908  0.2029  0.4874
 3164SOL    HW110625   9.035   5.994   4.378 -0.0451 -1.2896 -0.1093
 3164SOL    HW210626   9.085   6.020   4.519 -1.5782  0.5211  0.1396
 3165SOL     OW10627   0.123   4.621   1.726 -1.0804  0.3393  0.0398
 3165SOL    HW110628   0.146   4.528   1.730  2.3532  0.8785 -2.6489
 3165SOL    HW210629   0.072   4.629   1.645  1.3054  1.1098 -1.4860
 3166SOL     OW10630   2.253   2.021   3.055 -0.2750 -0.3787  0.0183
 3166SOL    HW110631   2.228   2.096   3.000  2.4063  1.1826  0.7004
 3166SOL    HW210632   2.243   2.053   3.145 -0.0946 -1.2263  0.3513
 3167SOL     OW10633   5.268   1.020   7.779  0.4131 -0.5069  0.1884
 3167SOL    HW110634   5.201   0.994   7.716  0.3041  0.1950  0.0032
 3167SOL    HW210635   5.253   0.962   7.854  1.3721 -2.2149 -0.8971
 3168SOL     OW10636   7.833   2.885   3.501  0.4193 -0.3605 -0.5136
 3168SOL    HW110637   7.792   2.799   3.517 -0.9303  0.0393 -1.5660
 3168SOL    HW210638   7.798   2.941   3.570  0.8460 -0.5107 -0.1715
 3169SOL     OW10639   8.306   3.411   4.345  0.3172 -0.3555 -0.6043
 3169SOL    HW110640   8.355   3.346   4.396 -0.5520 -1.0311 -0.6093
 3169SOL    HW210641   8.217   3.405   4.378 -0.4316 -1.2832 -2.6148
 3170SOL     OW10642   8.767   7.292   5.464  0.2355  0.5686  0.3289
 3170SOL    HW110643   8.728   7.204   5.467  0.3593  0.4757 -0.6705
 3170SOL    HW210644   8.859   7.277   5.443  0.4327  0.9031  0.9140
 3171SOL     OW10645   2.027   1.757   8.541 -0.2809  0.5693  0.0546
 3171SOL    HW110646   2.083   1.710   8.480  1.5257  0.2061  1.8634
 3171SOL    HW210647   2.060   1.847   8.539 -1.3224  0.9560 -0.6976
 3172SOL     OW10648   8.746   7.141   8.382 -0.0535  0.1478  0.4742
 3172SOL    HW110649   8.748   7.054   8.423  1.2428  0.1457  0.4397
 3172SOL    HW210650   8.715   7.125   8.293  2.5122 -0.6773 -0.3541
 3173SOL     OW10651   7.471   2.439   1.856 -0.5095 -0.2467  0.1298
 3173SOL    HW110652   7.497   2.350   1.834  0.1885 -0.2375  0.8906
 3173SOL    HW210653   7.502   2.492   1.783  0.5087 -0.4075  0.4393
 3174SOL     OW10654   8.740   9.067   1.509 -0.1448  0.1051  0.4343
 3174SOL    HW110655   8.682   9.000   1.472  1.6639 -0.8554 -0.7962
 3174SOL    HW210656   8.704   9.150   1.478 -2.0192 -0.2784  1.4052
 3175SOL     OW10657   5.037   2.332   0.542 -0.2728  0.3130  0.0344
 3175SOL    HW110658   5.040   2.313   0.636  1.2049 -2.5137 -0.4908
 3175SOL    HW210659   4.948   2.366   0.528 -1.1495 -0.8850  2.1734
 3176SOL     OW10660   2.137   4.019   6.676  0.1356 -0.4691 -0.2860
 3176SOL    HW110661   2.174   4.007   6.764  1.3863 -0.7263 -0.8279
 3176SOL    HW210662   2.049   4.053   6.692 -0.0502 -1.4989  1.0875
 3177SOL     OW10663   7.335   3.585   4.405  0.2606 -0.1176 -0.1323
 3177SOL    HW110664   7.300   3.673   4.421 -0.6097 -0.2838 -1.0974
 3177SOL    HW210665   7.430   3.598   4.406  0.1659  0.6829  0.5384
 3178SOL     OW10666   4.825   6.971   7.749  0.1942 -0.3994  0.5018
 3178SOL    HW110667   4.836   7.062   7.778 -0.3326 -0.2513  0.2488
 3178SOL    HW210668   4.886   6.921   7.803  0.0614  0.0298  1.0627
 3179SOL     OW10669   6.047   6.555   3.198 -0.9737  0.0111 -0.1805
 3179SOL    HW110670   6.139   6.549   3.173 -0.6941  0.9621  0.5562
 3179SOL    HW210671   6.024   6.646   3.183 -1.4227  0.0805  0.8407
 3180SOL     OW10672   0.408   6.803   2.219 -0.3336 -0.7960 -0.5378
 3180SOL    HW110673   0.486   6.748   2.219  0.9117  0.9156 -0.1206
 3180SOL    HW210674   0.378   6.801   2.310 -0.9397 -1.6264 -0.7400
 3181SOL     OW10675   1.603   5.464   7.093  0.2582  0.9351  0.2703
 3181SOL    HW110676   1.572   5.457   7.184 -0.4553 -0.0418 -0.0349
 3181SOL    HW210677   1.566   5.546   7.061  0.1425  1.0659  0.7301
 3182SOL     OW10678   8.700   8.713   5.048  0.2105  0.3471 -0.1437
 3182SOL    HW110679   8.631   8.708   5.114 -0.3744  2.8314 -0.4653
 3182SOL    HW210680   8.656   8.691   4.965  0.2224  0.2456 -0.1233
 3183SOL     OW10681   2.721   8.368   2.495  0.2807  0.0159  0.0700
 3183SOL    HW110682   2.724   8.304   2.566 -0.8486 -0.7861 -0.5825
 3183SOL    HW210683   2.661   8.330   2.431 -1.1783  2.1353  0.0695
 3184SOL     OW10684   1.851   0.155   0.731  0.5569  0.1230  0.1154
 3184SOL    HW110685   1.887   0.090   0.791 -0.5530 -0.5156  0.1149
 3184SOL    HW210686   1.777   0.111   0.690  1.0465  0.6824 -1.4409
 3185SOL     OW10687   7.668   1.762   4.187 -0.9909 -0.2337 -0.0312
 3185SOL    HW110688   7.587   1.813   4.190 -1.5400 -1.1014  0.5278
 3185SOL    HW210689   7.678   1.727   4.275 -0.8714 -1.4220 -0.4844
 3186SOL     OW10690   1.500   4.574   4.056 -0.9220 -0.0310  0.6392
 3186SOL    HW110691   1.539   4.489   4.073 -0.8158 -0.1430 -0.1379
 3186SOL    HW210692   1.408   4.556   4.036 -0.6146 -0.1103 -0.8049
 3187SOL     OW10693   7.330   6.987   6.916  0.1672  0.6256 -0.5324
 3187SOL    HW110694   7.305   7.044   6.842  0.2952 -0.3508 -1.3431
 3187SOL    HW210695   7.414   6.950   6.890  0.4890  0.7117  0.3697
 3188SOL     OW10696   6.368   4.381   1.604  0.0239 -0.1951 -0.4755
 3188SOL    HW110697   6.358   4.475   1.619 -0.5959 -0.3162 -0.0834
 3188SOL    HW210698   6.308   4.340   1.666 -0.0492 -0.8370 -0.9552
 3189SOL     OW10699   0.353   6.675   8.232  0.0200 -0.2466  0.8023
 3189SOL    HW110700   0.292   6.739   8.196  2.4464  0.3540 -2.7808
 3189SOL    HW210701   0.402   6.723   8.299  2.1312  2.1048 -2.1411
 3190SOL     OW10702   7.953   6.306   2.259  0.1216 -0.3546 -0.1496
 3190SOL    HW110703   7.891   6.235   2.279 -0.5417  0.6227  1.5123
 3190SOL    HW210704   7.899   6.376   2.224  0.2105  0.5558  1.4322
 3191SOL     OW10705   6.332   2.330   1.296 -0.3395 -0.2058  0.1411
 3191SOL    HW110706   6.281   2.395   1.344 -0.3503  0.3434 -0.6052
 3191SOL    HW210707   6.325   2.250   1.349 -0.5136  0.3313  0.9453
 3192SOL     OW10708   5.092   1.009   0.212 -0.0906 -0.1044  0.0081
 3192SOL    HW110709   5.107   1.100   0.190  0.1053 -0.6830 -2.4753
 3192SOL    HW210710   5.175   0.979   0.250  0.6233  0.1769 -1.2938
 3193SOL     OW10711   5.041   7.869   7.879 -0.2200  0.3589  0.1969
 3193SOL    HW110712   5.043   7.888   7.972  0.1220 -0.2506  0.3195
 3193SOL    HW210713   4.994   7.943   7.840 -1.3017  0.0972  0.9653
 3194SOL     OW10714   5.955   3.513   2.232  0.0554 -0.4028  0.8547
 3194SOL    HW110715   5.861   3.502   2.249 -0.1058  1.5112  1.3883
 3194SOL    HW210716   5.995   3.515   2.319  0.5552 -0.8184  0.6395
 3195SOL     OW10717   1.709   1.250   3.153  0.3680 -0.5082  0.0531
 3195SOL    HW110718   1.662   1.239   3.070  2.1868 -0.6169 -1.0170
 3195SOL    HW210719   1.780   1.187   3.149 -0.2594 -1.4465  2.3174
 3196SOL     OW10720   2.409   7.502   8.353  0.1688 -0.1138  0.0302
 3196SOL    HW110721   2.452   7.543   8.278  0.0783  0.2820  0.1929
 3196SOL    HW210722   2.320   7.486   8.324  0.2060 -0.1980 -0.0358
 3197SOL     OW10723   5.874   7.223   8.500 -0.5874  0.0301 -0.1513
 3197SOL    HW110724   5.874   7.310   8.540  0.7564 -0.4938  1.0797
 3197SOL    HW210725   5.842   7.165   8.569 -0.6527 -0.5762 -0.6814
 3198SOL     OW10726   0.689   8.878   7.343  0.4144 -0.3645 -0.0868
 3198SOL    HW110727   0.726   8.796   7.376  0.6303 -0.3273 -0.2305
 3198SOL    HW210728   0.760   8.916   7.290 -0.6177 -1.4916 -2.4186
 3199SOL     OW10729   2.435   5.374   3.309  0.2048 -0.0250 -0.5995
 3199SOL    HW110730   2.356   5.415   3.272  0.4438  0.3495 -0.7007
 3199SOL    HW210731   2.440   5.288   3.266 -0.1728 -0.0668 -0.5608
 3200SOL     OW10732   2.373   5.828   7.093 -0.5646 -0.1327 -0.4008
 3200SOL    HW110733   2.418   5.794   7.015 -0.1647  1.0429 -0.7090
 3200SOL    HW210734   2.287   5.856   7.060 -0.9964 -1.0442 -0.0945
 3201SOL     OW10735   4.819   5.302   6.096  0.3821 -0.8713  0.0694
 3201SOL    HW110736   4.841   5.359   6.023 -0.6516  1.5950  1.5567
 3201SOL    HW210737   4.893   5.311   6.156 -0.2491 -0.2261  0.7713
 3202SOL     OW10738   1.375   7.872   7.996 -0.6293 -0.9254 -0.2260
 3202SOL    HW110739   1.321   7.915   7.930 -0.1372 -0.1960 -0.1733
 3202SOL    HW210740   1.365   7.926   8.074 -0.3781 -1.1819 -0.0118
 3203SOL     OW10741   4.950   1.924   4.327  0.1926  0.1779  0.0684
 3203SOL    HW110742   4.881   1.870   4.364  0.4499  0.1860  0.5744
 3203SOL    HW210743   4.921   2.014   4.341  0.8995  0.2225  1.5187
 3204SOL     OW10744   3.554   0.672   0.060 -0.0961 -0.4758  0.2091
 3204SOL    HW110745   3.506   0.655  -0.021 -0.6835 -0.4804  0.5556
 3204SOL    HW210746   3.560   0.768   0.065 -1.6301 -0.3991  1.0558
 3205SOL     OW10747   7.725   3.105   0.159 -0.2490  0.1778  0.2320
 3205SOL    HW110748   7.780   3.049   0.214  1.1427 -0.2483 -1.4972
 3205SOL    HW210749   7.646   3.053   0.142 -0.1070 -0.2079  0.7490
 3206SOL     OW10750   8.924   0.712   4.570  0.7842  0.6127 -0.6309
 3206SOL    HW110751   8.977   0.643   4.612  0.9965  0.0633 -1.7676
 3206SOL    HW210752   8.861   0.737   4.637  1.1451 -0.2088  0.0425
 3207SOL     OW10753   6.351   6.809   8.189  0.0459  0.6016 -0.8873
 3207SOL    HW110754   6.290   6.874   8.156 -1.4111 -1.3400 -2.1903
 3207SOL    HW210755   6.437   6.849   8.178 -0.7579  2.0251 -2.2748
 3208SOL     OW10756   6.283   0.262   4.858 -0.9199 -0.1052 -0.2324
 3208SOL    HW110757   6.367   0.219   4.874 -0.8824 -0.7930 -2.0190
 3208SOL    HW210758   6.260   0.302   4.942  0.0283 -1.9061  0.9585
 3209SOL     OW10759   8.277   8.516   0.319 -0.0183 -0.3922 -0.2680
 3209SOL    HW110760   8.230   8.445   0.362 -0.4904  0.0176 -0.0912
 3209SOL    HW210761   8.246   8.514   0.228 -2.5492  1.5699  0.4025
 3210SOL     OW10762   8.873   8.911   5.024 -0.3417 -0.5683 -0.7288
 3210SOL    HW110763   8.810   8.840   5.008 -1.4460  0.2279 -0.0491
 3210SOL    HW210764   8.852   8.942   5.112 -0.4257  1.1365 -1.3171
 3211SOL     OW10765   7.229   7.171   5.322 -0.1636  0.2811 -0.1997
 3211SOL    HW110766   7.184   7.222   5.389 -1.1029 -0.9447  0.1314
 3211SOL    HW210767   7.257   7.236   5.258  0.5357  1.4673  1.2205
 3212SOL     OW10768   0.911   5.425   0.205  0.1520 -0.3993 -0.1220
 3212SOL    HW110769   0.939   5.334   0.197  0.9829 -0.1273 -0.4301
 3212SOL    HW210770   0.989   5.472   0.232 -0.2201  0.2557 -0.1573
 3213SOL     OW10771   8.034   7.896   6.701 -0.7206 -0.2131  0.3788
 3213SOL    HW110772   8.075   7.818   6.664  0.5450  0.7427 -0.3016
 3213SOL    HW210773   7.948   7.866   6.729 -0.4356 -1.7520 -0.2674
 3214SOL     OW10774   1.105   8.516   0.402 -0.3867 -0.7720  0.1396
 3214SOL    HW110775   1.161   8.576   0.353  0.5520 -2.8082 -1.4120
 3214SOL    HW210776   1.016   8.540   0.376  0.0584 -1.3568 -2.1326
 3215SOL     OW10777   3.673   3.167   0.338  0.1644 -0.6300  0.7790
 3215SOL    HW110778   3.734   3.094   0.343  1.7125  0.4649 -0.8116
 3215SOL    HW210779   3.729   3.245   0.340 -1.4452  0.5669  2.7121
 3216SOL     OW10780   3.284   3.278   2.847  0.3602  0.0041  0.2860
 3216SOL    HW110781   3.341   3.318   2.913  1.4370 -0.4086 -0.3682
 3216SOL    HW210782   3.212   3.340   2.837  1.4847  1.3037  0.0128
 3217SOL     OW10783   8.618   5.708   9.110 -0.2726  0.4351 -0.5111
 3217SOL    HW110784   8.672   5.630   9.125  0.0158  0.8087  0.5079
 3217SOL    HW210785   8.541   5.694   9.165  0.4357  1.4941  0.7931
 3218SOL     OW10786   0.890   7.707   5.865 -0.4528 -0.3323  0.3640
 3218SOL    HW110787   0.847   7.788   5.892  1.6041  2.2063 -3.1230
 3218SOL    HW210788   0.960   7.694   5.929  0.6747  2.0936 -0.2869
 3219SOL     OW10789   7.868   1.237   7.055  0.2348  0.1965 -0.1540
 3219SOL    HW110790   7.955   1.229   7.094 -0.3975  0.4662  1.3861
 3219SOL    HW210791   7.821   1.159   7.086 -0.0014 -0.0767 -1.1799
 3220SOL     OW10792   4.266   6.831   3.274 -0.2702  0.5181 -0.1509
 3220SOL    HW110793   4.286   6.865   3.361 -0.8588  0.8156 -0.1240
 3220SOL    HW210794   4.344   6.782   3.249  0.6982  2.0390 -0.2610
 3221SOL     OW10795   5.699   7.736   2.463 -0.1567 -0.1011 -0.0928
 3221SOL    HW110796   5.694   7.782   2.379 -0.2873 -0.2172 -0.1494
 3221SOL    HW210797   5.630   7.670   2.458  0.9553 -1.2775 -0.6066
 3222SOL     OW10798   3.618   3.138   3.733  0.3682 -0.2640  0.1424
 3222SOL    HW110799   3.568   3.199   3.788  0.5541 -0.7019  0.8084
 3222SOL    HW210800   3.593   3.051   3.765  0.3380 -0.5328 -0.5973
 3223SOL     OW10801   1.643   2.423   3.619 -0.0647 -0.6286  0.3042
 3223SOL    HW110802   1.602   2.478   3.553  0.6374 -1.2616 -0.6802
 3223SOL    HW210803   1.593   2.441   3.699 -1.6414 -0.6680 -0.6261
 3224SOL     OW10804   6.839   2.207   8.896 -0.0047 -0.1802  0.6831
 3224SOL    HW110805   6.827   2.279   8.834  0.0252 -0.4902  0.3166
 3224SOL    HW210806   6.793   2.236   8.975 -0.4740 -0.0004  0.3472
 3225SOL     OW10807   2.154   7.967   6.226  0.3747  0.8855 -0.0338
 3225SOL    HW110808   2.213   7.897   6.252  0.1828  1.5308  2.5135
 3225SOL    HW210809   2.067   7.926   6.225  0.4338  0.7570  0.0480
 3226SOL     OW10810   4.955   7.198   5.965  0.6309 -0.4044 -0.3530
 3226SOL    HW110811   5.046   7.182   5.991  0.7668  0.5003 -0.2651
 3226SOL    HW210812   4.950   7.170   5.874  0.8073 -1.1286 -0.1508
 3227SOL     OW10813   5.350   7.025   3.399 -0.1985 -0.5546  0.8700
 3227SOL    HW110814   5.372   7.110   3.361 -1.4865 -0.8911 -0.7612
 3227SOL    HW210815   5.433   6.980   3.410  0.3953  0.4571  0.5981
 3228SOL     OW10816   8.666   3.584   1.213  0.1144 -0.2241  0.2803
 3228SOL    HW110817   8.724   3.526   1.163 -0.7272  1.5601 -3.0220
 3228SOL    HW210818   8.627   3.642   1.148  0.0233  3.3925  3.2149
 3229SOL     OW10819   7.773   6.980   4.755  0.3416  0.2589 -0.0430
 3229SOL    HW110820   7.695   6.974   4.700 -1.3409 -0.0662  2.2428
 3229SOL    HW210821   7.819   6.897   4.740  0.4766  0.5979 -1.6780
 3230SOL     OW10822   0.200   0.685   8.130  0.2535  0.1514  0.2058
 3230SOL    HW110823   0.183   0.711   8.221 -2.3808  0.8564 -0.4024
 3230SOL    HW210824   0.277   0.737   8.105 -0.1734  1.4544  1.4293
 3231SOL     OW10825   1.777   8.262   2.630  0.1053 -0.0019 -0.0692
 3231SOL    HW110826   1.872   8.275   2.628  0.4261 -1.7923  1.1107
 3231SOL    HW210827   1.753   8.276   2.722 -0.5668 -0.6647 -0.1301
 3232SOL     OW10828   0.988   3.662   0.801 -0.8994 -0.4597  0.7064
 3232SOL    HW110829   1.025   3.714   0.730 -0.6671 -0.8183  0.5578
 3232SOL    HW210830   1.049   3.673   0.874 -0.3352 -1.2641  0.3768
 3233SOL     OW10831   2.071   2.585   1.136 -0.4615 -0.0674 -0.2075
 3233SOL    HW110832   2.100   2.533   1.211  0.6210 -0.1461 -0.6641
 3233SOL    HW210833   2.006   2.529   1.092 -1.4024  0.1446  0.8768
 3234SOL     OW10834   0.798   7.648   6.578  0.0793 -0.5056 -0.4919
 3234SOL    HW110835   0.842   7.688   6.503  1.7450 -1.7846 -0.2541
 3234SOL    HW210836   0.825   7.556   6.576 -0.4186 -0.7299  1.2606
 3235SOL     OW10837   0.761   3.281   1.593  0.3822  0.1061  0.5933
 3235SOL    HW110838   0.844   3.252   1.631  0.8508 -1.0560 -1.2122
 3235SOL    HW210839   0.745   3.220   1.521 -0.5469  2.0699 -0.9610
 3236SOL     OW10840   0.074   2.825   3.252  0.0399  0.0546  0.1284
 3236SOL    HW110841   0.140   2.777   3.202 -0.2207  0.0990 -0.2733
 3236SOL    HW210842   0.123   2.887   3.305  0.2916  0.5955 -0.7143
 3237SOL     OW10843   6.988   1.859   5.918  0.3601  0.1093 -0.0737
 3237SOL    HW110844   6.933   1.912   5.975  1.6261  1.2028  0.1631
 3237SOL    HW210845   7.076   1.896   5.927  1.0348 -1.2006 -0.9144
 3238SOL     OW10846   2.930   0.717   2.021  0.2463 -0.3191  0.1058
 3238SOL    HW110847   2.869   0.751   2.087  0.2418 -0.5275  0.2095
 3238SOL    HW210848   2.906   0.624   2.012 -0.9011  0.0851 -1.4463
 3239SOL     OW10849   1.899   6.460   5.562 -0.0486  0.2278  0.0134
 3239SOL    HW110850   1.865   6.466   5.473 -0.2865  2.5883  0.2074
 3239SOL    HW210851   1.874   6.543   5.603  1.2489 -0.2292  1.8515
 3240SOL     OW10852   2.954   5.439   5.908 -0.1689  0.9002  0.0480
 3240SOL    HW110853   2.883   5.392   5.865  0.0779  1.1958 -0.6897
 3240SOL    HW210854   3.011   5.469   5.837  1.0588  0.1124  0.6517
 3241SOL     OW10855   8.350   4.789   8.552  0.8469  0.0841  0.1929
 3241SOL    HW110856   8.299   4.866   8.578  1.6356  1.0052 -0.8739
 3241SOL    HW210857   8.285   4.728   8.517  0.3619  0.8447 -0.2669
 3242SOL     OW10858   3.918   7.313   3.600  0.0765  0.1333  0.1843
 3242SOL    HW110859   3.956   7.392   3.639  0.7928 -0.5400  0.8728
 3242SOL    HW210860   3.993   7.257   3.579 -0.4827 -1.6105  2.4105
 3243SOL     OW10861   8.172   4.681   1.000  0.3848  0.3924 -0.3780
 3243SOL    HW110862   8.129   4.649   1.080  0.3449 -0.2086 -0.6314
 3243SOL    HW210863   8.164   4.776   1.004  1.4568  0.4523  0.9372
 3244SOL     OW10864   6.825   6.832   0.810  0.2261  0.9041  0.1909
 3244SOL    HW110865   6.906   6.850   0.763  0.9757 -0.9127  0.7263
 3244SOL    HW210866   6.812   6.909   0.866 -0.5853  3.0472 -2.6761
 3245SOL     OW10867   3.996   5.488   3.153  0.1566  0.8290 -0.3082
 3245SOL    HW110868   3.947   5.550   3.099  0.0839  1.2723  0.2603
 3245SOL    HW210869   3.982   5.403   3.111 -1.3495  0.8976  0.0004
 3246SOL     OW10870   1.746   9.066   8.847 -0.1264 -0.2757 -0.3135
 3246SOL    HW110871   1.793   8.991   8.809 -1.7776 -2.3207  1.4108
 3246SOL    HW210872   1.685   9.027   8.909  0.2486  2.6712  2.1269
 3247SOL     OW10873   2.503   6.641   8.280  0.0225 -0.3901 -0.1031
 3247SOL    HW110874   2.549   6.558   8.274  1.4763  0.2258  1.6230
 3247SOL    HW210875   2.415   6.619   8.311 -0.1564 -1.3813 -1.2410
 3248SOL     OW10876   4.968   1.069   5.886  0.3715  0.5767 -0.5032
 3248SOL    HW110877   4.876   1.046   5.892  0.0338  2.0178  0.2403
 3248SOL    HW210878   5.014   0.985   5.889 -0.8377 -0.0843  0.8414
 3249SOL     OW10879   7.047   8.456   1.355 -0.0862 -0.1756  0.4276
 3249SOL    HW110880   7.066   8.365   1.376  2.6050 -0.0426 -1.0627
 3249SOL    HW210881   7.095   8.506   1.421 -0.3807  0.1866  0.3682
 3250SOL     OW10882   1.682   1.695   0.734  0.1584 -0.0020 -0.0139
 3250SOL    HW110883   1.619   1.682   0.663 -0.6399 -0.4665  0.7629
 3250SOL    HW210884   1.761   1.649   0.705  0.2923  0.9141 -1.1715
 3251SOL     OW10885   3.307   0.022   7.940  0.9127  0.3191 -0.0908
 3251SOL    HW110886   3.381   0.016   7.879  1.7080  0.1811  0.8579
 3251SOL    HW210887   3.346   0.057   8.020 -0.2184  0.9959  0.1762
 3252SOL     OW10888   1.706   7.414   3.672  0.2388 -0.6126  0.1381
 3252SOL    HW110889   1.738   7.504   3.669  1.7924 -1.1705 -0.8089
 3252SOL    HW210890   1.642   7.408   3.601 -0.0660 -0.2054  0.3724
 3253SOL     OW10891   0.702   2.781   7.596  0.2556  0.0390 -0.4196
 3253SOL    HW110892   0.777   2.835   7.624  1.0291 -1.1391 -0.1428
 3253SOL    HW210893   0.724   2.693   7.626  0.1993 -0.9370 -3.0380
 3254SOL     OW10894   2.976   3.556   7.248  0.1489  0.5434  0.1389
 3254SOL    HW110895   2.913   3.578   7.317 -0.1218 -0.3790  0.1980
 3254SOL    HW210896   2.930   3.573   7.166 -0.4256 -0.7035  0.1713
 3255SOL     OW10897   8.127   0.990   1.463  0.4124  0.3215  0.0396
 3255SOL    HW110898   8.206   0.990   1.408 -0.1678 -0.9573 -0.8336
 3255SOL    HW210899   8.128   0.906   1.507 -0.5281  0.2475 -0.0632
 3256SOL     OW10900   2.414   4.021   3.550 -0.0787  1.0881  0.0162
 3256SOL    HW110901   2.456   4.084   3.492 -0.3769  0.4874 -0.8835
 3256SOL    HW210902   2.343   3.984   3.497  0.4470 -0.4205  0.3046
 3257SOL     OW10903   0.569   2.407   1.219 -0.2122 -0.2057  0.0066
 3257SOL    HW110904   0.661   2.413   1.193 -0.2293 -2.5993 -0.9206
 3257SOL    HW210905   0.550   2.313   1.213 -2.0191 -0.0920  2.6930
 3258SOL     OW10906   4.523   0.942   6.871  0.0367 -0.3575  0.5127
 3258SOL    HW110907   4.495   0.927   6.961 -0.7626 -1.0809  0.1624
 3258SOL    HW210908   4.478   0.874   6.821  0.7294 -0.1639 -0.3861
 3259SOL     OW10909   5.141   6.655   7.195  0.4572 -0.4325 -0.1417
 3259SOL    HW110910   5.054   6.617   7.181 -0.4196  1.3115  0.2227
 3259SOL    HW210911   5.198   6.610   7.133 -0.9655 -0.7617 -1.2580
 3260SOL     OW10912   6.450   8.727   5.630  0.0887  0.5742  0.2369
 3260SOL    HW110913   6.420   8.806   5.585 -0.0154  0.5967  0.3443
 3260SOL    HW210914   6.469   8.665   5.560 -0.8420  0.3318  0.1845
 3261SOL     OW10915   4.369   0.453   8.940 -0.5870 -0.7444 -0.0905
 3261SOL    HW110916   4.416   0.534   8.960 -2.1514  0.5187 -1.2737
 3261SOL    HW210917   4.348   0.415   9.025 -1.7872  1.2861  0.5682
 3262SOL     OW10918   8.104   8.300   0.192  0.0085 -0.2428  0.1099
 3262SOL    HW110919   8.060   8.380   0.163  0.9827  0.3185  0.1253
 3262SOL    HW210920   8.061   8.277   0.274 -0.3999  0.1721  0.0126
 3263SOL     OW10921   7.876   0.732   4.257  0.1133  0.0422 -0.0436
 3263SOL    HW110922   7.801   0.673   4.266  1.5902 -1.9143 -0.0359
 3263SOL    HW210923   7.898   0.730   4.165  0.6850 -0.0649  0.0940
 3264SOL     OW10924   2.736   2.300   8.151 -0.0456 -0.1344  0.4789
 3264SOL    HW110925   2.713   2.389   8.124  0.4330  0.5642  2.2459
 3264SOL    HW210926   2.815   2.279   8.100 -0.1441  0.4691  0.0775
 3265SOL     OW10927   8.176   0.766   8.072 -0.1908  0.0555 -0.1539
 3265SOL    HW110928   8.233   0.689   8.071 -1.8111 -1.1892 -1.2530
 3265SOL    HW210929   8.224   0.830   8.124  0.1037 -2.5351  3.0369
 3266SOL     OW10930   0.793   5.015   4.659 -0.8106 -0.4851 -0.1280
 3266SOL    HW110931   0.800   5.016   4.755 -2.4890 -2.4557  0.0722
 3266SOL    HW210932   0.710   5.060   4.641 -0.0596  0.7132 -0.7751
 3267SOL     OW10933   3.036   8.805   6.900 -0.6700  0.2129 -0.0402
 3267SOL    HW110934   2.964   8.762   6.946 -0.6111  0.9108  0.7266
 3267SOL    HW210935   3.106   8.740   6.900 -0.9685 -0.1155  0.0689
 3268SOL     OW10936   5.545   2.454   7.907  0.0667 -0.3735  0.1083
 3268SOL    HW110937   5.489   2.498   7.843 -0.6464 -1.7200 -0.2399
 3268SOL    HW210938   5.535   2.504   7.987 -1.4821 -0.4540 -0.0095
 3269SOL     OW10939   1.362   6.108   1.300 -0.6144 -0.6103 -0.0981
 3269SOL    HW110940   1.381   6.020   1.334 -1.0140 -0.5309  0.3468
 3269SOL    HW210941   1.304   6.092   1.225 -1.5901 -0.6854  0.6480
 3270SOL     OW10942   2.113   5.598   7.419  0.3568 -0.2144 -0.0874
 3270SOL    HW110943   2.035   5.606   7.364 -0.0132 -1.9772  0.1432
 3270SOL    HW210944   2.174   5.663   7.382 -1.6022  2.1133  0.5087
 3271SOL     OW10945   6.361   8.883   8.219 -0.8132  0.0527  0.2660
 3271SOL    HW110946   6.332   8.969   8.189  0.7838  0.3502 -0.4825
 3271SOL    HW210947   6.279   8.837   8.239 -1.8644  0.7351 -2.0623
 3272SOL     OW10948   4.010   3.763   1.333 -0.4903  0.4080 -0.0498
 3272SOL    HW110949   4.035   3.847   1.295 -0.5975  1.8319  2.8072
 3272SOL    HW210950   4.087   3.734   1.381 -0.9507 -0.4014  0.2270
 3273SOL     OW10951   7.458   2.977   1.002 -0.1112  0.1179 -0.3045
 3273SOL    HW110952   7.448   3.033   1.080 -0.0607 -0.4081  0.0841
 3273SOL    HW210953   7.463   2.888   1.037 -2.2011 -0.3369 -1.0140
 3274SOL     OW10954   3.097   7.648   1.286 -0.0943  0.5317  0.3633
 3274SOL    HW110955   3.164   7.595   1.328 -0.5240 -0.9038 -0.6983
 3274SOL    HW210956   3.015   7.602   1.304 -0.4562  0.7186 -0.7005
 3275SOL     OW10957   1.108   6.964   0.000  0.2723  0.3831  0.3000
 3275SOL    HW110958   1.124   7.018   0.078 -1.2955  1.1954  0.0987
 3275SOL    HW210959   1.145   6.879   0.023  0.8297  0.9118  1.4996
 3276SOL     OW10960   4.544   4.865   7.487  0.3106  0.0401  0.2370
 3276SOL    HW110961   4.496   4.841   7.408 -1.0869 -0.7028  1.2708
 3276SOL    HW210962   4.506   4.949   7.514 -2.5169 -1.7710  2.5477
 3277SOL     OW10963   0.730   7.493   7.256 -0.4255  0.1391 -0.5213
 3277SOL    HW110964   0.777   7.569   7.290 -0.3397 -0.5150  0.9024
 3277SOL    HW210965   0.668   7.471   7.326  1.3052 -2.6299  0.2961
 3278SOL     OW10966   5.202   4.783   6.839  0.7737 -0.2491  0.0059
 3278SOL    HW110967   5.268   4.728   6.797  0.2326 -0.8133 -0.1302
 3278SOL    HW210968   5.201   4.863   6.788  1.3633 -0.2291  0.0217
 3279SOL     OW10969   8.065   2.318   6.730 -0.1792 -0.0596  0.0733
 3279SOL    HW110970   8.157   2.339   6.745 -0.2414 -0.2108  0.6617
 3279SOL    HW210971   8.055   2.228   6.760 -0.3958 -0.2344 -0.5055
 3280SOL     OW10972   2.724   3.123   4.093  0.3943 -0.1209  0.3283
 3280SOL    HW110973   2.719   3.166   4.178  0.2366  0.4085  0.0550
 3280SOL    HW210974   2.632   3.112   4.066  0.3609 -1.8873  1.0078
 3281SOL     OW10975   1.962   7.386   3.415 -0.0328  0.1607  0.3707
 3281SOL    HW110976   2.011   7.458   3.456  0.5018 -0.4397  0.8114
 3281SOL    HW210977   2.027   7.340   3.362 -0.6793  0.8065 -1.0199
 3282SOL     OW10978   8.451   0.184   7.079  0.1680  0.4033 -0.1210
 3282SOL    HW110979   8.438   0.202   6.987  1.4572  0.0877 -0.3939
 3282SOL    HW210980   8.447   0.088   7.086  0.4034  0.4070  0.0907
 3283SOL     OW10981   5.441   4.920   7.993  0.4877 -0.2304  0.0670
 3283SOL    HW110982   5.417   4.859   7.923 -0.9784 -0.4882  0.7501
 3283SOL    HW210983   5.533   4.903   8.010 -0.0396 -2.8668  0.7561
 3284SOL     OW10984   6.055   4.053   1.711  0.1148  0.2262  0.5052
 3284SOL    HW110985   6.127   4.110   1.739 -1.0332  1.0750  1.8625
 3284SOL    HW210986   6.021   4.016   1.791 -1.9378  1.0672  0.0860
 3285SOL     OW10987   0.647   9.035   3.348  0.1091 -0.0684  0.5923
 3285SOL    HW110988   0.572   8.985   3.316  1.0060 -0.8041 -0.4021
 3285SOL    HW210989   0.626   9.051   3.441 -0.8866 -0.9875  0.5520
 3286SOL     OW10990   8.119   1.445   0.042 -0.5959  0.2079 -0.2912
 3286SOL    HW110991   8.034   1.458   0.001 -1.1798  1.6939  1.2923
 3286SOL    HW210992   8.181   1.487  -0.018 -0.9551 -0.6628 -1.3194
 3287SOL     OW10993   3.054   1.978   5.092 -0.3751  0.0596  0.0164
 3287SOL    HW110994   3.028   2.070   5.092 -1.3999 -0.2062 -1.5747
 3287SOL    HW210995   3.050   1.953   5.185  0.4485  1.7329  0.5432
 3288SOL     OW10996   0.021   2.914   1.818  0.0790 -0.1645 -0.0779
 3288SOL    HW110997   0.008   2.841   1.757  0.2923  0.0462 -0.3797
 3288SOL    HW210998  -0.047   2.977   1.794  1.4197  0.8236 -1.4807
 3289SOL     OW10999   7.829   5.479   0.093  0.0744  0.5488 -0.3159
 3289SOL    HW111000   7.791   5.566   0.098  1.1312  0.9692  1.1493
 3289SOL    HW211001   7.898   5.487   0.027 -0.7212  0.4243 -1.1907
 3290SOL     OW11002   1.140   4.588   7.151 -0.1481 -0.1601  0.0439
 3290SOL    HW111003   1.076   4.583   7.222 -1.7159  1.3979 -1.2117
 3290SOL    HW211004   1.225   4.584   7.196 -1.0145 -2.6501  1.7201
 3291SOL     OW11005   0.886   3.262   0.954  0.0273  0.2123 -0.9171
 3291SOL    HW111006   0.837   3.343   0.935  0.4326  0.5019 -0.7437
 3291SOL    HW211007   0.975   3.281   0.926  0.9398  1.0587  2.1679
 3292SOL     OW11008   3.911   8.596   1.278 -0.2200  0.0852 -0.4399
 3292SOL    HW111009   3.895   8.656   1.351  2.0775  0.1115  0.0999
 3292SOL    HW211010   4.006   8.587   1.275 -0.4404 -2.5862 -1.3021
 3293SOL     OW11011   0.515   0.966   2.118  0.1126 -0.0755  0.1287
 3293SOL    HW111012   0.453   0.898   2.093  0.9037 -0.2402 -1.5173
 3293SOL    HW211013   0.551   0.937   2.202  0.2201 -1.5390 -0.3997
 3294SOL     OW11014   1.720   7.136   6.042 -0.5669 -0.1146 -0.0436
 3294SOL    HW111015   1.775   7.133   6.120 -2.5100  0.1960  1.4260
 3294SOL    HW211016   1.734   7.223   6.006  0.2279 -0.2009  0.0356
 3295SOL     OW11017   1.702   2.735   5.215 -0.3917  0.1679  0.3282
 3295SOL    HW111018   1.628   2.783   5.177  0.1654  0.1127 -0.8885
 3295SOL    HW211019   1.779   2.775   5.175  0.2402  0.1802  1.5283
 3296SOL     OW11020   8.762   0.073   7.202  0.5110  0.0173 -0.0721
 3296SOL    HW111021   8.701   0.017   7.250  1.8104 -2.4777 -1.1934
 3296SOL    HW211022   8.847   0.030   7.210  1.5513  1.7480 -1.1316
 3297SOL     OW11023   1.709   2.051   0.240  0.2379 -0.1299  0.4511
 3297SOL    HW111024   1.620   2.023   0.220  0.2856 -0.6861  0.9844
 3297SOL    HW211025   1.764   1.978   0.213  0.4166 -0.3153  1.2752
 3298SOL     OW11026   7.970   6.034   8.999 -0.1027 -0.3059  0.0195
 3298SOL    HW111027   7.998   6.094   9.067  1.0118 -0.3622 -0.3826
 3298SOL    HW211028   7.949   6.090   8.924 -0.5724 -0.3044  0.1492
 3299SOL     OW11029   3.753   1.023   3.838  0.3939 -0.6511 -0.0492
 3299SOL    HW111030   3.716   1.102   3.799 -1.8833 -1.9122 -0.5793
 3299SOL    HW211031   3.808   0.986   3.769 -0.2422 -0.6380 -0.5766
 3300SOL     OW11032   6.745   7.521   7.846 -0.0452  0.0882  0.2613
 3300SOL    HW111033   6.836   7.504   7.871 -0.3579 -0.6887  0.9049
 3300SOL    HW211034   6.724   7.452   7.783 -0.6340 -0.6626  1.2366
 3301SOL     OW11035   0.979   4.714   5.261 -0.0532 -0.5782 -0.6888
 3301SOL    HW111036   0.894   4.758   5.255  1.0441  1.9871  0.8843
 3301SOL    HW211037   1.030   4.751   5.190  0.6261  0.1460  0.1481
 3302SOL     OW11038   6.700   5.053   2.031  0.5626 -0.5852 -0.5556
 3302SOL    HW111039   6.738   4.997   1.963 -0.4974 -1.6405 -0.3088
 3302SOL    HW211040   6.607   5.058   2.010  0.4123 -0.0219  0.1999
 3303SOL     OW11041   8.605   1.429   0.642 -0.2637  0.5238 -0.7202
 3303SOL    HW111042   8.697   1.444   0.620  0.4004  0.0789  1.4674
 3303SOL    HW211043   8.594   1.334   0.637  0.4512  0.1653  2.3647
 3304SOL     OW11044   0.824   0.795   1.105 -0.3718 -0.5053  0.5291
 3304SOL    HW111045   0.901   0.764   1.153 -0.7397 -1.6450  0.3955
 3304SOL    HW211046   0.850   0.791   1.013  0.1818  1.2754  0.5564
 3305SOL     OW11047   9.027   5.239   1.670  0.3844  0.5909 -0.7106
 3305SOL    HW111048   8.991   5.182   1.603 -0.6315  0.9254 -0.4634
 3305SOL    HW211049   8.973   5.224   1.747  1.8389 -0.1557  0.2165
 3306SOL     OW11050   7.786   1.166   3.453 -0.3979 -0.2086 -0.4408
 3306SOL    HW111051   7.727   1.117   3.511  0.0619 -0.8619 -0.5079
 3306SOL    HW211052   7.731   1.191   3.379 -0.5218 -1.1340 -0.6818
 3307SOL     OW11053   5.319   2.644   1.134  0.1833  0.2996 -0.5069
 3307SOL    HW111054   5.244   2.589   1.155  0.7635 -0.0493  0.7565
 3307SOL    HW211055   5.351   2.674   1.219  1.2856  0.6810 -1.0408
 3308SOL     OW11056   8.309   5.487   4.770 -0.8818  0.1033  0.4325
 3308SOL    HW111057   8.320   5.404   4.817 -1.9625  0.2608  0.9976
 3308SOL    HW211058   8.220   5.516   4.792 -0.7210  1.1440 -0.1950
 3309SOL     OW11059   3.347   0.797   8.067 -0.5258 -0.1135  0.3651
 3309SOL    HW111060   3.388   0.773   7.984 -1.7031  0.8292 -0.5326
 3309SOL    HW211061   3.291   0.723   8.090 -0.5310 -0.1953  0.0883
 3310SOL     OW11062   6.278   1.117   2.338  0.1697  0.1202  0.3403
 3310SOL    HW111063   6.263   1.192   2.395 -1.3669  0.3612 -0.3405
 3310SOL    HW211064   6.324   1.154   2.262  1.3902 -0.0410  0.9771
 3311SOL     OW11065   0.471   3.775   4.632 -0.0443  0.4201 -0.1021
 3311SOL    HW111066   0.389   3.772   4.681 -0.0759 -1.3799 -0.2029
 3311SOL    HW211067   0.539   3.755   4.696  0.0649 -0.4389 -0.4729
 3312SOL     OW11068   3.312   2.894   7.320 -0.1969  0.7215  0.4619
 3312SOL    HW111069   3.346   2.828   7.259 -2.1565  1.7719 -1.9705
 3312SOL    HW211070   3.226   2.861   7.345 -1.0757  2.1113 -0.5426
 3313SOL     OW11071   0.086   1.032   2.204 -0.4175 -0.0663 -0.1197
 3313SOL    HW111072   0.123   0.981   2.132 -1.6507 -1.5146  0.2081
 3313SOL    HW211073  -0.003   1.052   2.175 -0.4645  0.5508  0.4330
 3314SOL     OW11074   6.818   7.309   3.335  0.0521 -0.3741 -0.0877
 3314SOL    HW111075   6.840   7.400   3.317  1.7400 -0.8715 -0.8215
 3314SOL    HW211076   6.794   7.307   3.428  1.2241  0.6326  0.2648
 3315SOL     OW11077   8.061   4.021   0.757  0.0895 -0.3268  0.4109
 3315SOL    HW111078   8.081   4.104   0.713 -0.5449 -1.1314 -1.5511
 3315SOL    HW211079   8.145   3.975   0.761  0.1028 -0.3720 -0.2800
 3316SOL     OW11080   7.343   6.411   0.819  0.2498 -0.1008  0.6693
 3316SOL    HW111081   7.288   6.486   0.842  2.2424  1.0339  2.0443
 3316SOL    HW211082   7.394   6.440   0.743 -0.5171 -0.9062 -0.1868
 3317SOL     OW11083   3.742   2.307   5.478 -0.2139  0.7025  0.6142
 3317SOL    HW111084   3.796   2.239   5.517  0.3941  0.9923  0.2950
 3317SOL    HW211085   3.805   2.374   5.451 -0.6132  0.5307 -0.8055
 3318SOL     OW11086   3.643   5.358   4.924  0.0928 -0.3829 -0.2531
 3318SOL    HW111087   3.584   5.422   4.884  0.7537 -0.4942 -1.4678
 3318SOL    HW211088   3.685   5.405   4.995 -0.4476  0.1073 -0.2501
 3319SOL     OW11089   3.447   4.653   1.050 -0.8396  0.1289 -0.0904
 3319SOL    HW111090   3.385   4.583   1.033 -0.3147 -0.4037  0.1582
 3319SOL    HW211091   3.392   4.728   1.074 -1.4754  0.2611 -1.8473
 3320SOL     OW11092   3.913   0.890   2.602 -0.3916 -0.1231 -0.2378
 3320SOL    HW111093   3.959   0.927   2.677  0.9292  0.3127 -1.2182
 3320SOL    HW211094   3.821   0.891   2.628  0.0825 -0.7000  1.6553
 3321SOL     OW11095   0.892   1.060   6.476  0.5423  0.1053  0.0685
 3321SOL    HW111096   0.934   1.141   6.507 -0.5718  1.0964 -0.9118
 3321SOL    HW211097   0.800   1.084   6.466  0.0028 -1.5846  0.6908
 3322SOL     OW11098   7.492   0.202   1.122 -0.0395 -0.4662  0.2116
 3322SOL    HW111099   7.477   0.290   1.157  1.8364 -0.9592  2.5348
 3322SOL    HW211100   7.441   0.145   1.179  0.0752 -1.0284 -0.2360
 3323SOL     OW11101   2.730   8.341   6.314 -0.3988  0.4132 -0.1825
 3323SOL    HW111102   2.749   8.269   6.375  0.7304  1.4069  0.6803
 3323SOL    HW211103   2.747   8.304   6.227  0.0747 -0.3849  0.2368
 3324SOL     OW11104   1.887   3.202   8.743  0.1560 -0.0018 -0.2907
 3324SOL    HW111105   1.915   3.122   8.697 -1.2986 -0.0172 -1.2281
 3324SOL    HW211106   1.795   3.186   8.763  0.1055  1.0651  0.3654
 3325SOL     OW11107   8.199   6.166   4.076 -0.2946 -0.1986 -0.1885
 3325SOL    HW111108   8.273   6.183   4.135  1.0100  1.5646 -2.2163
 3325SOL    HW211109   8.207   6.073   4.056 -1.3295 -1.1280  2.9839
 3326SOL     OW11110   2.134   4.723   1.344  0.1135 -0.7132  0.0223
 3326SOL    HW111111   2.066   4.669   1.304  0.0769 -0.6277 -0.0301
 3326SOL    HW211112   2.086   4.780   1.404 -0.0781  0.6216 -1.3473
 3327SOL     OW11113   5.694   1.426   8.929  1.1173 -0.2744 -0.1113
 3327SOL    HW111114   5.692   1.496   8.864  0.1320  0.5735  0.7986
 3327SOL    HW211115   5.760   1.453   8.992  0.9364 -0.3084  0.0921
 3328SOL     OW11116   1.639   2.875   8.297  0.2493 -0.0937  0.0402
 3328SOL    HW111117   1.734   2.891   8.291  0.2511 -0.0584  0.1549
 3328SOL    HW211118   1.633   2.786   8.332  0.2447 -0.8840 -1.8387
 3329SOL     OW11119   5.216   0.338   5.926  0.4280 -0.3547 -0.0565
 3329SOL    HW111120   5.218   0.285   6.006  0.1815 -0.6583 -0.2507
 3329SOL    HW211121   5.185   0.278   5.858 -1.2336  0.4046 -0.0041
 3330SOL     OW11122   9.054   3.986   4.076 -0.0418 -0.8521  0.2875
 3330SOL    HW111123   8.974   4.035   4.094  0.6038  1.6580 -2.8812
 3330SOL    HW211124   9.113   4.009   4.148 -0.6234  1.0431  0.1922
 3331SOL     OW11125   2.007   5.563   5.117 -0.5974  0.6633  0.1287
 3331SOL    HW111126   2.088   5.528   5.154 -0.7036  1.8457  1.5644
 3331SOL    HW211127   1.968   5.489   5.071  1.5289  0.2006 -1.0684
 3332SOL     OW11128   5.036   8.763   3.940 -0.9418 -0.3937 -0.4012
 3332SOL    HW111129   5.004   8.801   4.022  1.4432 -0.1839  0.5007
 3332SOL    HW211130   5.055   8.839   3.885  2.3940 -0.1177  0.8575
 3333SOL     OW11131   4.462   4.367   4.999 -0.3979 -0.6014 -0.2453
 3333SOL    HW111132   4.470   4.411   4.915 -1.0609 -0.9303 -0.4795
 3333SOL    HW211133   4.545   4.321   5.009 -0.1262 -0.1787 -0.4921
 3334SOL     OW11134   8.903   6.112   9.010 -0.2702 -0.3450  0.0263
 3334SOL    HW111135   8.961   6.165   8.957 -0.7857  1.2386  0.9740
 3334SOL    HW211136   8.954   6.034   9.032  0.4302 -0.3637 -1.5795
 3335SOL     OW11137   4.117   5.272   7.526 -0.1091  0.1893 -0.1095
 3335SOL    HW111138   4.200   5.225   7.519 -0.3994 -0.3113 -0.2624
 3335SOL    HW211139   4.056   5.222   7.472 -0.5522  0.4620  0.1270
 3336SOL     OW11140   0.493   9.111   2.608 -0.4922  0.1264  0.0284
 3336SOL    HW111141   0.481   9.074   2.521 -2.2889 -1.8236  0.9836
 3336SOL    HW211142   0.412   9.088   2.655 -0.1151  2.1555  1.8671
 3337SOL     OW11143   2.836   3.484   3.740  0.4653 -0.1203 -0.0378
 3337SOL    HW111144   2.810   3.574   3.720 -0.5939 -0.4772 -0.3377
 3337SOL    HW211145   2.911   3.493   3.799  0.6602  0.9535 -0.4306
 3338SOL     OW11146   5.486   1.100   7.599  0.2838  0.2652  0.4352
 3338SOL    HW111147   5.456   1.101   7.508 -0.0860  1.0552  0.5530
 3338SOL    HW211148   5.433   1.033   7.641  0.4739 -0.1206  0.0651
 3339SOL     OW11149   3.868   1.558   8.052 -0.0777 -0.5374 -0.0949
 3339SOL    HW111150   3.898   1.501   8.123 -0.1945 -0.7330 -0.2013
 3339SOL    HW211151   3.879   1.505   7.973  0.8013 -0.0439 -0.3225
 3340SOL     OW11152   7.216   6.948   8.066  0.2745  0.4646  0.4462
 3340SOL    HW111153   7.212   6.887   8.139 -0.1509 -1.3518 -1.0252
 3340SOL    HW211154   7.146   7.011   8.083 -0.3312 -0.3953  1.1971
 3341SOL     OW11155   0.202   7.335   6.053  0.2431  0.3233  0.2627
 3341SOL    HW111156   0.117   7.307   6.086  0.7583  0.4548  1.7878
 3341SOL    HW211157   0.203   7.430   6.064  0.8816  0.2376  1.0198
 3342SOL     OW11158   0.558   2.840   3.549  0.3817  0.0272 -0.0424
 3342SOL    HW111159   0.531   2.927   3.581 -0.0365  0.4044 -1.3737
 3342SOL    HW211160   0.586   2.855   3.459  0.6622 -1.1648 -0.1652
 3343SOL     OW11161   1.027   2.879   8.950  0.1915  0.3632  0.4791
 3343SOL    HW111162   1.098   2.930   8.989  0.9177  0.0988 -0.4445
 3343SOL    HW211163   1.071   2.826   8.883 -0.6692 -0.8473  0.8358
 3344SOL     OW11164   5.297   2.073   0.216 -0.5509 -0.2959  0.2460
 3344SOL    HW111165   5.365   2.059   0.283 -0.2032 -0.7000 -0.1814
 3344SOL    HW211166   5.236   2.000   0.229 -0.6671 -0.1801  0.3468
 3345SOL     OW11167   5.443   4.180   8.703  0.0062  0.5266 -0.1233
 3345SOL    HW111168   5.371   4.215   8.650 -0.0580  1.8010  0.7686
 3345SOL    HW211169   5.514   4.165   8.640 -0.3523  1.1947 -0.7026
 3346SOL     OW11170   3.395   7.280   3.916  0.3600 -0.2588  0.3832
 3346SOL    HW111171   3.333   7.322   3.856  0.0051 -3.0729 -1.3644
 3346SOL    HW211172   3.478   7.325   3.899 -0.0460 -0.0272 -1.1880
 3347SOL     OW11173   4.509   8.362   0.672  0.3615 -0.3156 -0.0130
 3347SOL    HW111174   4.483   8.290   0.728  0.4458 -0.4988 -0.2081
 3347SOL    HW211175   4.550   8.426   0.730 -1.7923  0.6365  0.5693
 3348SOL     OW11176   0.754   4.064   8.974  0.2892  0.0938  0.0049
 3348SOL    HW111177   0.698   4.137   8.946  1.4996  1.0012 -0.1213
 3348SOL    HW211178   0.788   4.090   9.059  0.5040 -0.4661  0.0962
 3349SOL     OW11179   0.385   0.369   7.030  0.1616  0.2215 -0.6914
 3349SOL    HW111180   0.326   0.382   6.956 -0.3354 -0.6191 -0.4538
 3349SOL    HW211181   0.471   0.392   6.996 -0.3142  1.8236 -0.9459
 3350SOL     OW11182   0.586   8.931   1.761  0.0618  0.2646  0.0323
 3350SOL    HW111183   0.535   8.934   1.680  0.1182 -0.8249 -0.0579
 3350SOL    HW211184   0.523   8.907   1.829 -0.0802  1.6416  0.4095
 3351SOL     OW11185   7.343   2.930   4.488  0.1141  0.1151 -0.0834
 3351SOL    HW111186   7.269   2.987   4.508  0.0666 -0.1946  0.6335
 3351SOL    HW211187   7.419   2.979   4.520  0.0330 -0.4040  0.9332
 3352SOL     OW11188   4.590   0.263   6.906  0.2467  0.4877 -0.2951
 3352SOL    HW111189   4.603   0.335   6.968 -2.7664 -0.5835  1.8153
 3352SOL    HW211190   4.529   0.298   6.841  1.9797  1.0309 -1.6999
 3353SOL     OW11191   1.409   2.715   3.205 -0.0089  0.3797 -0.2883
 3353SOL    HW111192   1.417   2.810   3.202 -1.6936  0.6824  1.8696
 3353SOL    HW211193   1.343   2.694   3.138  0.3274  0.7155 -0.7288
 3354SOL     OW11194   5.094   2.199   6.041 -0.0818 -0.2591 -0.2871
 3354SOL    HW111195   5.176   2.200   5.992  0.3550 -0.0974  0.4436
 3354SOL    HW211196   5.028   2.174   5.976  0.4817 -0.0118 -0.9666
 3355SOL     OW11197   0.592   4.990   3.251  0.1004  0.4478 -0.1061
 3355SOL    HW111198   0.667   5.027   3.205 -0.7737  0.9414 -1.1940
 3355SOL    HW211199   0.630   4.941   3.324  1.3955  1.9319  0.2845
 3356SOL     OW11200   5.632   5.780   3.995 -0.6287  0.1397  0.3375
 3356SOL    HW111201   5.562   5.779   4.060 -0.4775  2.0369  0.5635
 3356SOL    HW211202   5.586   5.785   3.911 -0.7961 -1.4301  0.2954
 3357SOL     OW11203   7.028   3.978   4.665  0.3164  0.2016 -0.6870
 3357SOL    HW111204   7.111   4.015   4.696 -0.1128  0.3320  0.3262
 3357SOL    HW211205   6.993   4.043   4.605  0.1469  0.9081  0.1646
 3358SOL     OW11206   8.198   1.863   5.647  0.7920 -0.5097 -0.9135
 3358SOL    HW111207   8.131   1.796   5.658 -0.8286  1.0012 -1.0358
 3358SOL    HW211208   8.204   1.906   5.732  0.1186  0.6305 -1.4061
 3359SOL     OW11209   8.179   3.006   2.520  0.2698 -0.8159 -0.3284
 3359SOL    HW111210   8.110   3.070   2.503  0.4210 -0.8999 -1.3621
 3359SOL    HW211211   8.133   2.931   2.559  0.0149 -0.2897  0.3873
 3360SOL     OW11212   8.418   7.191   5.064 -0.3186  0.2504  0.0707
 3360SOL    HW111213   8.428   7.197   4.969  2.7419  0.8580  0.3084
 3360SOL    HW211214   8.493   7.240   5.099 -1.4756  0.2488  2.8201
 3361SOL     OW11215   0.745   4.249   4.910  0.6132  0.4230  0.0469
 3361SOL    HW111216   0.830   4.292   4.907  0.4582  0.7486  0.2842
 3361SOL    HW211217   0.756   4.171   4.855  0.5189  1.4283 -1.4680
 3362SOL     OW11218   3.353   8.432   5.006  0.6600  0.0361  0.1125
 3362SOL    HW111219   3.302   8.462   5.081 -0.9499  0.5916 -1.1661
 3362SOL    HW211220   3.442   8.421   5.041 -0.1732 -0.3836  2.2461
 3363SOL     OW11221   6.055   4.757   8.193 -0.7934  1.2865 -0.0861
 3363SOL    HW111222   6.113   4.703   8.247 -0.4641  1.5838 -0.1327
 3363SOL    HW211223   5.968   4.741   8.228 -0.6020  1.3398  0.4229
 3364SOL     OW11224   8.051   5.425   4.860  0.1061  0.3550 -0.0823
 3364SOL    HW111225   8.037   5.334   4.834 -4.0590  1.0680 -1.0005
 3364SOL    HW211226   8.005   5.434   4.943  2.5610  1.1498  1.2832
 3365SOL     OW11227   4.985   6.549   6.547  0.3520 -0.5569  0.3845
 3365SOL    HW111228   4.906   6.504   6.575 -1.1160  1.5887 -0.0144
 3365SOL    HW211229   4.954   6.613   6.483  2.1799  1.3502  1.2851
 3366SOL     OW11230   3.133   6.473   7.586 -1.2763  0.1126  0.4246
 3366SOL    HW111231   3.180   6.470   7.669 -1.8068 -1.4268  0.6976
 3366SOL    HW211232   3.192   6.518   7.526 -0.3564  0.1016  1.3026
 3367SOL     OW11233   4.540   5.039   1.426 -0.3443  0.3140 -0.3761
 3367SOL    HW111234   4.532   5.127   1.388 -2.1500 -0.2082 -1.3295
 3367SOL    HW211235   4.523   4.980   1.352 -0.4512 -0.8224  0.5361
 3368SOL     OW11236   7.432   7.486   6.004 -0.0354 -0.4940  0.0964
 3368SOL    HW111237   7.344   7.512   5.978  0.2397  0.6621  0.2872
 3368SOL    HW211238   7.424   7.462   6.096  0.1162  1.0489  0.5369
 3369SOL     OW11239   3.279   1.850   1.197  0.4678  0.4476 -0.4647
 3369SOL    HW111240   3.368   1.885   1.198 -0.7904  4.1373 -1.2855
 3369SOL    HW211241   3.282   1.780   1.132  2.8144  0.1723 -0.1597
 3370SOL     OW11242   4.893   2.660   7.645  0.3272 -0.2928 -0.4034
 3370SOL    HW111243   4.888   2.657   7.550 -0.2513  0.7646 -0.4243
 3370SOL    HW211244   4.936   2.578   7.670  0.4830 -0.5771 -1.5664
 3371SOL     OW11245   6.324   7.750   1.183  0.3498 -0.1696 -0.0363
 3371SOL    HW111246   6.274   7.757   1.102  1.2667 -1.7524 -0.8020
 3371SOL    HW211247   6.318   7.657   1.207 -0.7854  0.4257  2.3424
 3372SOL     OW11248   7.720   4.226   4.823 -0.0681  0.4703 -0.5821
 3372SOL    HW111249   7.719   4.159   4.891  1.4407 -0.8332 -1.7617
 3372SOL    HW211250   7.643   4.280   4.841 -0.4737 -0.6531  1.3105
 3373SOL     OW11251   2.695   2.521   3.689  0.0462  0.5513  0.0658
 3373SOL    HW111252   2.750   2.578   3.743 -0.4082  1.4019 -0.3453
 3373SOL    HW211253   2.711   2.551   3.600  1.5331 -1.4731 -0.4100
 3374SOL     OW11254   6.861   1.536   8.588 -0.4471 -0.2723  0.0363
 3374SOL    HW111255   6.923   1.562   8.519  0.1810  0.4008  0.8250
 3374SOL    HW211256   6.775   1.537   8.545 -0.1692  0.9562 -0.5443
 3375SOL     OW11257   1.799   6.969   3.767 -0.0024 -0.1166 -0.0314
 3375SOL    HW111258   1.766   6.938   3.683  0.6374 -0.5642 -0.1231
 3375SOL    HW211259   1.863   7.037   3.744 -0.6620  0.5772  0.1382
 3376SOL     OW11260   2.379   5.180   3.790  0.0844  0.1210  0.0342
 3376SOL    HW111261   2.325   5.120   3.841  0.3291 -0.3877 -0.3013
 3376SOL    HW211262   2.384   5.259   3.844 -1.3941  0.3692 -0.1329
 3377SOL     OW11263   1.187   0.121   1.483  0.1145  1.1005  0.3670
 3377SOL    HW111264   1.240   0.064   1.539 -0.4884 -0.7613 -0.8453
 3377SOL    HW211265   1.117   0.152   1.541 -1.4301 -2.0547  0.4124
 3378SOL     OW11266   8.212   5.145   1.269  0.2898  0.1389  0.2006
 3378SOL    HW111267   8.307   5.140   1.263  0.3050  1.2668 -0.6695
 3378SOL    HW211268   8.188   5.067   1.320  1.7174  0.1915  1.0205
 3379SOL     OW11269   8.314   1.803   2.138  0.4683  0.0012  0.4556
 3379SOL    HW111270   8.359   1.794   2.222 -1.4538  1.9684  1.7982
 3379SOL    HW211271   8.344   1.886   2.102  0.0161 -0.0250 -0.0041
 3380SOL     OW11272   0.768   0.253   9.074 -0.1917 -0.2768 -0.1275
 3380SOL    HW111273   0.821   0.181   9.041 -0.7706 -0.6364 -0.2878
 3380SOL    HW211274   0.831   0.313   9.113  0.5669  0.2713 -2.0663
 3381SOL     OW11275   2.913   5.118   6.918  0.4511  0.0942 -0.6480
 3381SOL    HW111276   2.856   5.193   6.932  1.6251  0.9532 -0.3176
 3381SOL    HW211277   2.923   5.112   6.823 -0.6688 -0.4568 -0.7470
 3382SOL     OW11278   5.313   5.775   6.739 -0.2066 -0.0486  0.5938
 3382SOL    HW111279   5.368   5.817   6.805  1.2395 -0.2010 -0.4849
 3382SOL    HW211280   5.328   5.826   6.659 -0.5850 -0.9206 -0.0525
 3383SOL     OW11281   2.827   3.145   0.860  0.0243 -0.1045 -0.5283
 3383SOL    HW111282   2.896   3.131   0.925  1.1033  0.9681 -1.3872
 3383SOL    HW211283   2.874   3.175   0.782 -1.3191 -0.4687 -1.5116
 3384SOL     OW11284   2.054   2.193   0.221 -0.5462 -0.8524  0.0663
 3384SOL    HW111285   2.096   2.205   0.135  0.7462 -0.4632  0.7199
 3384SOL    HW211286   2.124   2.212   0.284 -1.3550 -1.5457  1.2078
 3385SOL     OW11287   2.156   6.177   5.572  0.4164 -0.1708  0.0809
 3385SOL    HW111288   2.183   6.092   5.608  1.2231 -0.6172 -1.4798
 3385SOL    HW211289   2.111   6.220   5.644  0.7707 -1.5627  1.1869
 3386SOL     OW11290   1.211   6.447   3.428  0.0559  0.0120 -0.4003
 3386SOL    HW111291   1.269   6.377   3.458  0.8477  0.6623 -0.3924
 3386SOL    HW211292   1.264   6.498   3.368 -0.5741  0.5156 -0.5447
 3387SOL     OW11293   6.614   4.655   1.686 -0.3499 -0.1158  0.4842
 3387SOL    HW111294   6.580   4.601   1.757 -0.8245  0.3570  0.6220
 3387SOL    HW211295   6.549   4.648   1.616 -0.1644 -0.1254  0.3093
 3388SOL     OW11296   7.086   2.714   3.910 -0.3324  0.1498  0.5003
 3388SOL    HW111297   7.081   2.799   3.954 -0.6281  0.0410  0.6838
 3388SOL    HW211298   7.098   2.651   3.981 -0.7591 -0.0211  0.4233
 3389SOL     OW11299   6.114   1.712   1.848 -0.3633 -0.5940  0.6217
 3389SOL    HW111300   6.188   1.651   1.858 -0.2435 -0.3220  1.4673
 3389SOL    HW211301   6.100   1.717   1.753  0.4557 -0.9460  0.4718
 3390SOL     OW11302   6.374   5.693   4.166  0.1869  0.0634 -0.2219
 3390SOL    HW111303   6.282   5.673   4.151 -0.1547  1.7489 -0.6578
 3390SOL    HW211304   6.420   5.652   4.093 -0.1751 -0.9851  0.1208
 3391SOL     OW11305   4.564   6.837   0.713 -0.2779  0.0709 -0.0594
 3391SOL    HW111306   4.565   6.932   0.700  0.5385  0.0806  0.0761
 3391SOL    HW211307   4.656   6.812   0.715 -0.4964 -0.8450 -0.9210
 3392SOL     OW11308   1.068   8.891   1.575  0.3717 -0.1665  0.2522
 3392SOL    HW111309   0.991   8.944   1.593  0.7072  0.5976 -0.4653
 3392SOL    HW211310   1.034   8.805   1.549 -0.1973 -0.1061  0.7991
 3393SOL     OW11311   5.120   0.683   6.088 -0.0139  0.1963  0.7361
 3393SOL    HW111312   5.036   0.660   6.127  0.4606  0.3495  1.8913
 3393SOL    HW211313   5.121   0.638   6.003 -1.3684  0.4238  0.5810
 3394SOL     OW11314   1.098   0.472   6.238  0.0418 -0.0906  0.1778
 3394SOL    HW111315   1.183   0.500   6.273 -0.6751  2.0013  0.4289
 3394SOL    HW211316   1.066   0.408   6.301  0.5284  0.6682  1.2424
 3395SOL     OW11317   3.909   3.144   7.659 -0.8335  0.5711  0.2743
 3395SOL    HW111318   3.944   3.230   7.680  0.8148 -0.0289  0.1356
 3395SOL    HW211319   3.891   3.147   7.565  0.6613  0.3118 -0.0397
 3396SOL     OW11320   4.890   5.376   1.043 -0.3132  0.2654  0.3941
 3396SOL    HW111321   4.857   5.425   1.118  0.3463  0.1187  0.7890
 3396SOL    HW211322   4.912   5.443   0.978  0.4133  0.4936  0.8615
 3397SOL     OW11323   4.611   1.149   6.711 -0.3492  0.2627 -0.1952
 3397SOL    HW111324   4.588   1.222   6.768 -0.5162  0.5032 -0.5771
 3397SOL    HW211325   4.565   1.074   6.750 -0.9170  0.5329 -0.3340
 3398SOL     OW11326   3.829   8.362   2.306 -0.3221  0.1203 -0.2491
 3398SOL    HW111327   3.781   8.297   2.358 -1.1040  1.5708  0.9469
 3398SOL    HW211328   3.920   8.336   2.313 -0.4168  0.1526  1.7817
 3399SOL     OW11329   2.417   1.935   6.931  0.0043 -0.3673 -0.2884
 3399SOL    HW111330   2.455   1.939   6.843 -0.9093  0.4097 -0.6679
 3399SOL    HW211331   2.479   1.983   6.986  0.0881  0.0117 -0.7057
 3400SOL     OW11332   0.879   4.691   6.530  0.5376 -0.0019 -0.0480
 3400SOL    HW111333   0.939   4.710   6.458 -1.5777  0.2743 -1.8174
 3400SOL    HW211334   0.799   4.659   6.488 -0.6379 -0.2260  2.1977
 3401SOL     OW11335   0.318   7.786   6.713  0.2587 -0.0878  0.3294
 3401SOL    HW111336   0.291   7.757   6.626  0.6246 -1.4046  0.6264
 3401SOL    HW211337   0.414   7.780   6.711  0.2736 -0.0397  0.7892
 3402SOL     OW11338   8.783   1.417   7.941  0.2918 -0.1116  0.0314
 3402SOL    HW111339   8.767   1.510   7.925  0.7591 -0.1593 -0.7913
 3402SOL    HW211340   8.852   1.394   7.878 -1.1948 -1.4836 -1.1950
 3403SOL     OW11341   0.218   0.693   2.480 -0.2016 -0.0750 -0.0746
 3403SOL    HW111342   0.306   0.699   2.443 -0.2242 -1.3738 -0.3914
 3403SOL    HW211343   0.205   0.600   2.497 -0.3182  0.3837  2.9727
 3404SOL     OW11344   7.209   2.009   3.315  0.1751  0.0102  0.1639
 3404SOL    HW111345   7.292   2.045   3.346  1.3784 -2.9465  0.7094
 3404SOL    HW211346   7.168   1.973   3.394 -0.9224  0.1478 -0.3290
 3405SOL     OW11347   3.642   8.818   2.567  0.2452  0.3538 -0.5527
 3405SOL    HW111348   3.671   8.906   2.591  0.7505 -0.0410  0.3508
 3405SOL    HW211349   3.713   8.782   2.515  0.6022  0.0436  0.1293
 3406SOL     OW11350   1.089   3.194   0.544 -0.5195 -0.8138  0.1583
 3406SOL    HW111351   1.082   3.107   0.583 -0.4015 -1.4888 -1.2459
 3406SOL    HW211352   1.055   3.183   0.455  0.9553  0.1869 -0.5692
 3407SOL     OW11353   6.375   5.818   8.952 -0.0203 -0.0675 -0.1404
 3407SOL    HW111354   6.308   5.816   8.883 -0.6168  0.9260  0.3699
 3407SOL    HW211355   6.424   5.737   8.942  0.0714  0.1785 -1.8879
 3408SOL     OW11356   8.156   7.013   8.581 -0.2651 -0.3256 -0.2269
 3408SOL    HW111357   8.087   6.998   8.645  0.1201  0.9434  0.5376
 3408SOL    HW211358   8.134   7.098   8.542  0.7149 -0.0196 -0.1380
 3409SOL     OW11359   3.380   1.931   3.712 -0.3266 -0.1025 -0.5332
 3409SOL    HW111360   3.352   1.843   3.686 -2.0715  0.4280 -0.5731
 3409SOL    HW211361   3.322   1.990   3.664  0.3156  1.0493  0.0655
 3410SOL     OW11362   4.709   2.014   2.540  0.0793 -0.7976 -0.4565
 3410SOL    HW111363   4.734   2.058   2.621 -0.2555 -2.1230  0.3924
 3410SOL    HW211364   4.651   2.076   2.496  1.2239  0.4427 -0.2936
 3411SOL     OW11365   6.123   6.755   6.898 -0.5463  0.2696 -0.3226
 3411SOL    HW111366   6.155   6.676   6.942 -1.2336 -0.4153 -1.0023
 3411SOL    HW211367   6.103   6.816   6.969  0.8364  0.1802  0.1751
 3412SOL     OW11368   3.145   1.559   1.923  0.6018  0.2833  0.5001
 3412SOL    HW111369   3.138   1.519   2.010 -0.8622 -0.0361  0.2647
 3412SOL    HW211370   3.057   1.549   1.886  1.2167  0.3928 -1.0276
 3413SOL     OW11371   6.002   8.876   3.302  0.2940  0.5967  0.0417
 3413SOL    HW111372   6.011   8.846   3.212 -0.6533  1.4390 -0.3647
 3413SOL    HW211373   6.052   8.958   3.305 -1.3237  1.6581 -0.3296
 3414SOL     OW11374   7.233   4.811   5.087 -0.1353 -0.3121  0.4084
 3414SOL    HW111375   7.283   4.888   5.062  1.9004 -1.2190  1.4681
 3414SOL    HW211376   7.207   4.828   5.177 -1.1608 -0.1706  0.1013
 3415SOL     OW11377   6.819   7.804   8.004  0.0429 -0.4489 -0.7094
 3415SOL    HW111378   6.754   7.874   7.993 -1.1580 -1.5137 -0.5503
 3415SOL    HW211379   6.819   7.759   7.920  1.2424  0.0590 -1.0105
 3416SOL     OW11380   4.107   3.588   4.878 -0.2210 -0.1721 -0.1702
 3416SOL    HW111381   4.040   3.630   4.825 -0.4054 -1.8580 -1.3729
 3416SOL    HW211382   4.182   3.578   4.819  0.4879  0.1577  0.6505
 3417SOL     OW11383   0.086   3.924   7.779  0.7590  0.6065  0.1839
 3417SOL    HW111384   0.095   3.880   7.694 -1.9607 -0.1093  0.1739
 3417SOL    HW211385   0.019   3.873   7.825  1.3016  1.7053  2.2858
 3418SOL     OW11386   5.951   1.217   0.504  0.8179  0.3577 -0.0446
 3418SOL    HW111387   5.974   1.132   0.465 -1.3085 -0.6818  0.7906
 3418SOL    HW211388   5.914   1.194   0.589 -2.2806  1.8520 -0.8728
 3419SOL     OW11389   0.906   8.282   0.037 -0.2172  0.5614  0.0790
 3419SOL    HW111390   0.994   8.270   0.001 -0.8081  0.6317 -1.4643
 3419SOL    HW211391   0.885   8.198   0.078  0.7889  0.7401  0.9925
 3420SOL     OW11392   0.176   2.200   0.621  0.2073 -0.1029  0.0771
 3420SOL    HW111393   0.102   2.231   0.568  0.4654 -0.5907 -0.5810
 3420SOL    HW211394   0.248   2.258   0.598  0.0664  0.3115  0.6478
 3421SOL     OW11395   4.523   1.955   3.983 -0.4544 -0.1486  1.1141
 3421SOL    HW111396   4.454   1.904   4.025 -1.9421  1.3168  0.5491
 3421SOL    HW211397   4.477   2.027   3.940  0.7248 -1.9382 -3.8469
 3422SOL     OW11398   0.244   8.574   4.653 -0.0498 -0.1445  0.1056
 3422SOL    HW111399   0.191   8.496   4.636  1.8763 -1.2868 -0.9913
 3422SOL    HW211400   0.227   8.632   4.578 -1.6951  0.6740  1.0583
 3423SOL     OW11401   2.734   8.264   8.423 -0.3487  0.4353 -0.0127
 3423SOL    HW111402   2.672   8.193   8.406 -0.8083  0.7673  0.2457
 3423SOL    HW211403   2.775   8.241   8.506  0.6853 -0.3395 -0.7089
 3424SOL     OW11404   7.090   5.858   0.640  0.2677  0.7223 -0.1175
 3424SOL    HW111405   7.028   5.786   0.656  2.1821 -0.8215  0.7927
 3424SOL    HW211406   7.044   5.936   0.672 -1.2142 -0.3567  0.5357
 3425SOL     OW11407   5.282   2.651   7.780  0.3160  0.5830 -0.1937
 3425SOL    HW111408   5.304   2.725   7.725  3.4978  0.2644  0.4325
 3425SOL    HW211409   5.240   2.588   7.722  0.2596  1.6897 -1.3765
 3426SOL     OW11410   7.932   3.839   4.305 -0.2326  0.2041 -0.3443
 3426SOL    HW111411   7.939   3.862   4.213  0.3190 -1.0317 -0.6274
 3426SOL    HW211412   7.931   3.743   4.306  0.0671  0.1981  0.9492
 3427SOL     OW11413   5.689   0.375   8.723  0.3345  0.0684  0.1437
 3427SOL    HW111414   5.775   0.386   8.764  0.3456  0.2212  0.0770
 3427SOL    HW211415   5.708   0.363   8.630  0.3452 -0.7900  0.2483
 3428SOL     OW11416   7.510   2.472   2.863 -0.3089 -0.3724 -0.7192
 3428SOL    HW111417   7.555   2.420   2.797 -1.5918  0.6421 -2.5181
 3428SOL    HW211418   7.514   2.562   2.829 -3.3964 -0.1875 -0.9305
 3429SOL     OW11419   0.101   3.570   7.880  0.1261 -0.1779  0.1521
 3429SOL    HW111420   0.143   3.600   7.961  0.4742 -0.2570 -0.0014
 3429SOL    HW211421   0.140   3.625   7.812 -1.2462  0.9466  0.2113
 3430SOL     OW11422   2.021   8.007   8.548  0.3073  0.9119 -0.6589
 3430SOL    HW111423   1.934   8.039   8.523 -0.1884  0.6475  0.6880
 3430SOL    HW211424   2.005   7.945   8.618  1.5899  0.8670 -0.3862
 3431SOL     OW11425   5.833   1.034   2.261  0.3495  0.2894 -0.2019
 3431SOL    HW111426   5.759   1.041   2.321  0.0162 -1.2802 -0.3843
 3431SOL    HW211427   5.900   0.986   2.311  1.5333  2.2421  0.1894
 3432SOL     OW11428   7.716   5.189   7.887  0.3914 -0.5098 -0.0339
 3432SOL    HW111429   7.805   5.224   7.886 -0.2349  1.2199  0.9025
 3432SOL    HW211430   7.695   5.175   7.795  0.7624  1.4179 -0.4566
 3433SOL     OW11431   4.183   4.830   1.932  0.1317 -0.5538  0.1652
 3433SOL    HW111432   4.237   4.771   1.879 -0.0320  0.1831 -0.8617
 3433SOL    HW211433   4.235   4.911   1.936 -0.4100 -0.2013  0.0895
 3434SOL     OW11434   1.502   7.308   0.148 -0.3265  0.1290 -0.4258
 3434SOL    HW111435   1.566   7.376   0.129  0.1368 -0.4532 -0.9788
 3434SOL    HW211436   1.535   7.230   0.103 -0.7587 -0.5121  0.3470
 3435SOL     OW11437   6.742   2.052   4.804  0.2607  0.4969  0.1727
 3435SOL    HW111438   6.678   2.064   4.734  0.9991 -0.1351 -0.6352
 3435SOL    HW211439   6.689   2.052   4.884 -1.2503 -2.9614 -0.5998
 3436SOL     OW11440   5.891   6.790   2.902  0.5185 -0.1571 -0.2319
 3436SOL    HW111441   5.817   6.755   2.953  0.5278  0.3344  0.1311
 3436SOL    HW211442   5.873   6.764   2.812 -0.0061 -0.1983 -0.1172
 3437SOL     OW11443   2.366   6.203   1.720  0.3813  0.1187  0.0533
 3437SOL    HW111444   2.370   6.228   1.628 -2.6121  0.5192 -0.0497
 3437SOL    HW211445   2.356   6.285   1.767  0.3042 -0.1989  0.5944
 3438SOL     OW11446   3.444   1.078   1.882  0.3934  0.0555 -0.1709
 3438SOL    HW111447   3.539   1.090   1.877  0.2842  2.5370  1.7559
 3438SOL    HW211448   3.413   1.104   1.795  1.4042 -0.0068 -0.5753
 3439SOL     OW11449   6.833   3.811   3.307  0.4601  0.2208  0.7679
 3439SOL    HW111450   6.819   3.739   3.245 -1.5604  0.5201  0.8055
 3439SOL    HW211451   6.896   3.868   3.263  0.3216 -0.4144 -0.2900
 3440SOL     OW11452   1.049   3.282   6.154  1.0922  0.7073 -0.1413
 3440SOL    HW111453   1.038   3.189   6.135  2.5612  0.8053 -1.7924
 3440SOL    HW211454   0.962   3.320   6.140  0.7177 -0.2639 -0.5389
 3441SOL     OW11455   3.181   7.784   3.511  0.5423  0.5268  0.0945
 3441SOL    HW111456   3.154   7.823   3.427  1.2362  1.6732  0.3800
 3441SOL    HW211457   3.276   7.780   3.505  0.5498 -0.0110  0.5630
 3442SOL     OW11458   4.207   4.065   2.232 -0.0194 -0.2189  0.0764
 3442SOL    HW111459   4.281   4.021   2.191 -0.2090 -0.4793  0.0036
 3442SOL    HW211460   4.178   4.130   2.168 -1.7538 -2.1560 -1.2476
 3443SOL     OW11461   3.660   6.434   5.813 -0.7876 -0.1703  0.5739
 3443SOL    HW111462   3.667   6.339   5.802  0.5034  0.0138 -0.5837
 3443SOL    HW211463   3.750   6.462   5.831 -0.9676  0.9259 -0.1367
 3444SOL     OW11464   5.528   5.283   3.757  0.3574 -0.1873  0.1754
 3444SOL    HW111465   5.551   5.284   3.850 -1.0283  0.0514  0.5348
 3444SOL    HW211466   5.591   5.342   3.716 -0.2848  1.3203  1.2807
 3445SOL     OW11467   3.054   6.029   3.714 -0.3083  0.0923 -0.2587
 3445SOL    HW111468   3.015   6.005   3.630 -0.0547 -0.1509 -0.3079
 3445SOL    HW211469   2.982   6.021   3.777 -0.8871  1.6554 -0.6545
 3446SOL     OW11470   8.891   6.747   0.255  0.2819 -0.2651  0.0935
 3446SOL    HW111471   8.862   6.822   0.203  0.2432 -0.5447 -0.2998
 3446SOL    HW211472   8.922   6.684   0.189  0.7137 -0.4223  0.4432
 3447SOL     OW11473   6.063   2.526   4.768 -0.3111  0.3252  0.0404
 3447SOL    HW111474   6.069   2.469   4.691  0.0680 -0.5692  0.7194
 3447SOL    HW211475   6.076   2.615   4.733  1.2345 -0.1838 -0.7379
 3448SOL     OW11476   0.298   5.815   2.314 -1.2924  0.6255  0.1222
 3448SOL    HW111477   0.286   5.909   2.305 -0.1708  0.7109 -0.7258
 3448SOL    HW211478   0.322   5.802   2.406 -3.4367  0.8965  0.7768
 3449SOL     OW11479   2.519   6.862   5.511  0.3901  0.6193  1.0330
 3449SOL    HW111480   2.442   6.883   5.564 -0.3623 -1.6907  0.9492
 3449SOL    HW211481   2.490   6.794   5.451  1.8921  1.4089 -0.7160
 3450SOL     OW11482   2.626   8.652   7.388  0.4627  0.5688 -0.1016
 3450SOL    HW111483   2.609   8.647   7.482  1.9539  0.9630  0.2206
 3450SOL    HW211484   2.539   8.660   7.348 -0.1409  1.5729  1.3278
 3451SOL     OW11485   5.908   7.444   2.581  0.4356  0.3054  0.5146
 3451SOL    HW111486   5.867   7.396   2.509 -0.6473 -1.4322  2.1765
 3451SOL    HW211487   5.941   7.524   2.541  2.5520 -1.8286 -2.5013
 3452SOL     OW11488   7.111   5.460   8.740 -0.7603 -0.1274  0.0854
 3452SOL    HW111489   7.178   5.528   8.729 -2.8197  1.7188 -2.8156
 3452SOL    HW211490   7.078   5.473   8.829  1.7135 -0.2276  1.1065
 3453SOL     OW11491   4.312   0.404   4.062  0.3062 -0.5889  0.9404
 3453SOL    HW111492   4.293   0.353   4.141 -2.4173  1.5373  1.7949
 3453SOL    HW211493   4.252   0.478   4.065  0.7828  0.1607 -2.6521
 3454SOL     OW11494   1.010   6.610   2.813 -0.1593  0.5195  0.2575
 3454SOL    HW111495   0.952   6.539   2.787 -0.2269  0.2549  1.0977
 3454SOL    HW211496   1.077   6.613   2.744  0.6989 -1.3437  0.9396
 3455SOL     OW11497   3.275   7.621   5.601 -0.1466  0.1345 -0.3806
 3455SOL    HW111498   3.319   7.544   5.563 -0.7077 -0.0420 -0.6870
 3455SOL    HW211499   3.288   7.612   5.695 -0.0050 -0.2114 -0.4320
 3456SOL     OW11500   0.426   2.250   6.360  0.1586  0.5223  0.1735
 3456SOL    HW111501   0.491   2.321   6.356  0.1789  0.5376  0.6535
 3456SOL    HW211502   0.342   2.295   6.353  0.1635  0.2647 -3.9112
 3457SOL     OW11503   7.954   3.188   1.384 -0.2998 -0.1680 -0.1310
 3457SOL    HW111504   7.882   3.141   1.342  0.2988 -0.3588 -0.9837
 3457SOL    HW211505   7.943   3.171   1.477 -0.9047 -0.8449 -0.3144
 3458SOL     OW11506   6.960   5.791   8.647 -0.2886  0.4818 -0.1725
 3458SOL    HW111507   6.960   5.854   8.719 -1.2303  0.4448 -0.1268
 3458SOL    HW211508   6.879   5.741   8.659  0.9795 -1.5400  0.4844
 3459SOL     OW11509   8.799   4.390   2.240 -0.2283  0.2889 -0.0774
 3459SOL    HW111510   8.758   4.365   2.323 -1.1643 -0.3405 -0.7182
 3459SOL    HW211511   8.887   4.420   2.265 -0.3159 -0.3684  1.0858
 3460SOL     OW11512   5.314   3.496   5.773 -0.4856 -0.0760 -0.2321
 3460SOL    HW111513   5.267   3.547   5.708 -0.3011  0.4184  0.0163
 3460SOL    HW211514   5.407   3.513   5.754 -0.4331  0.3865  0.3934
 3461SOL     OW11515   1.357   0.127   1.038 -0.5962  0.2514 -0.4485
 3461SOL    HW111516   1.431   0.133   0.977  1.2426  0.5578  1.7057
 3461SOL    HW211517   1.378   0.189   1.107 -2.1587 -0.7199  0.9556
 3462SOL     OW11518   0.538   3.453   5.481 -0.2025  0.2337 -0.2440
 3462SOL    HW111519   0.477   3.458   5.408 -1.2660 -2.2851  0.3620
 3462SOL    HW211520   0.570   3.543   5.492 -2.0490  1.1942 -2.0431
 3463SOL     OW11521   1.743   0.269   7.034  0.0622  0.0081 -0.0002
 3463SOL    HW111522   1.711   0.179   7.028  0.3101 -0.0791 -0.0340
 3463SOL    HW211523   1.790   0.283   6.952 -0.9511  0.5583 -0.5110
 3464SOL     OW11524   7.609   3.347   6.020  0.0664  0.1850 -0.0658
 3464SOL    HW111525   7.621   3.284   5.950  0.8453  1.6679 -1.3293
 3464SOL    HW211526   7.624   3.297   6.100  1.4163 -1.0785 -1.0534
 3465SOL     OW11527   3.274   0.325   5.824 -0.1141  0.4561 -0.2060
 3465SOL    HW111528   3.331   0.383   5.773 -0.2129 -0.1462 -1.0187
 3465SOL    HW211529   3.238   0.382   5.893  1.6394  0.7835  0.4745
 3466SOL     OW11530   2.573   1.386   7.750  0.2142 -0.0249 -0.0427
 3466SOL    HW111531   2.575   1.357   7.659 -1.6429  1.2331 -0.5383
 3466SOL    HW211532   2.545   1.310   7.800  1.2478 -0.7213 -0.4925
 3467SOL     OW11533   3.732   4.051   5.795  0.4922 -0.1323 -0.0343
 3467SOL    HW111534   3.713   4.132   5.748  1.2028  0.7175  1.0824
 3467SOL    HW211535   3.649   4.026   5.835  0.1692 -0.2043 -0.7443
 3468SOL     OW11536   2.695   7.019   8.092 -0.0520  0.3151 -0.0573
 3468SOL    HW111537   2.680   6.956   8.162  1.1859 -1.1776 -1.0926
 3468SOL    HW211538   2.611   7.024   8.046 -0.2276 -0.3809  0.1814
 3469SOL     OW11539   7.442   0.512   7.487  0.2018 -0.0536 -0.4624
 3469SOL    HW111540   7.468   0.487   7.399  0.8722  0.0523 -0.3017
 3469SOL    HW211541   7.444   0.608   7.487 -0.2959 -0.0390 -0.4739
 3470SOL     OW11542   3.537   3.562   1.219  0.7808  0.7302  0.7666
 3470SOL    HW111543   3.476   3.515   1.276  0.3391  1.1462  0.6419
 3470SOL    HW211544   3.613   3.582   1.275  1.3158 -0.7939  0.6221
 3471SOL     OW11545   2.595   3.405   5.083  0.2057 -0.3175 -0.6339
 3471SOL    HW111546   2.598   3.460   5.161  1.2012  0.2175 -1.0346
 3471SOL    HW211547   2.525   3.443   5.030 -0.2406 -0.4733 -0.1753
 3472SOL     OW11548   5.502   5.035   8.288 -0.0497 -0.4292  0.2293
 3472SOL    HW111549   5.556   4.971   8.242  1.3622 -0.7973  2.2354
 3472SOL    HW211550   5.530   5.028   8.379 -1.0678  1.8657  0.7873
 3473SOL     OW11551   2.833   4.958   1.828 -0.0392 -0.2705 -0.1099
 3473SOL    HW111552   2.769   4.941   1.897 -2.3501  1.8959 -1.5604
 3473SOL    HW211553   2.848   5.052   1.832  0.9272 -0.3244 -1.6323
 3474SOL     OW11554   7.243   6.012   8.636 -0.1125  0.5302 -0.2609
 3474SOL    HW111555   7.207   6.067   8.706 -0.0308 -0.9609  1.0403
 3474SOL    HW211556   7.268   6.073   8.567  1.0021  2.2155  1.5316
 3475SOL     OW11557   1.443   8.021   5.005 -0.6498 -0.1784 -0.2347
 3475SOL    HW111558   1.378   8.048   5.070 -1.5452 -1.0117 -0.7430
 3475SOL    HW211559   1.428   7.927   4.994  1.3153 -0.6034  0.3433
 3476SOL     OW11560   1.855   8.725   4.219 -0.3722 -0.3799  0.4319
 3476SOL    HW111561   1.917   8.655   4.240 -0.3939 -0.7275 -0.6161
 3476SOL    HW211562   1.777   8.679   4.189 -1.9899 -0.0434  3.6497
 3477SOL     OW11563   5.555   8.509   1.797 -0.6353  0.2699  0.1777
 3477SOL    HW111564   5.510   8.578   1.748  0.2636  0.2536 -0.7040
 3477SOL    HW211565   5.499   8.494   1.874 -1.9852  0.4328 -0.7295
 3478SOL     OW11566   2.635   8.499   8.494 -0.6283 -0.1486  0.4350
 3478SOL    HW111567   2.650   8.533   8.405  1.3050  0.5955  0.9794
 3478SOL    HW211568   2.643   8.404   8.486  0.2524 -0.0385 -0.0868
 3479SOL     OW11569   9.000   7.297   1.878  0.0748 -0.1076 -0.0795
 3479SOL    HW111570   9.065   7.352   1.921 -0.2473  0.4540 -0.3008
 3479SOL    HW211571   8.919   7.314   1.925 -0.5750  1.4855 -1.6565
 3480SOL     OW11572   4.358   2.520   9.058  0.4876  0.0231 -0.0880
 3480SOL    HW111573   4.375   2.606   9.095  1.1767  0.4731 -1.3790
 3480SOL    HW211574   4.344   2.536   8.964 -0.5534 -1.1304 -0.1565
 3481SOL     OW11575   1.083   7.649   4.908  0.5434  0.0260 -0.1947
 3481SOL    HW111576   1.178   7.649   4.919  0.8707  1.5965 -2.5526
 3481SOL    HW211577   1.055   7.734   4.940  0.0504 -0.0209 -0.4965
 3482SOL     OW11578   4.772   3.258   6.773 -0.2568 -0.5514 -0.1048
 3482SOL    HW111579   4.817   3.335   6.807 -0.5942 -0.8687  1.1342
 3482SOL    HW211580   4.680   3.286   6.765 -0.4968 -0.9736  0.9384
 3483SOL     OW11581   1.405   8.897   8.776 -0.4827  0.3954  0.1716
 3483SOL    HW111582   1.357   8.823   8.740 -1.1582  0.6051  0.6003
 3483SOL    HW211583   1.440   8.866   8.859 -0.0664  0.3099 -0.0364
 3484SOL     OW11584   2.742   0.920   2.458 -0.7103 -0.9525  0.3300
 3484SOL    HW111585   2.717   1.008   2.488  1.6854 -1.3193  4.0728
 3484SOL    HW211586   2.820   0.935   2.404  0.4064 -0.7179  1.9178
 3485SOL     OW11587   0.733   2.224   6.271 -0.0791 -0.0066 -0.2602
 3485SOL    HW111588   0.789   2.234   6.348  0.9015  0.1570 -0.9666
 3485SOL    HW211589   0.674   2.153   6.294  1.2776 -1.0865  0.0485
 3486SOL     OW11590   7.519   6.442   6.238 -0.2235 -0.2252  0.1335
 3486SOL    HW111591   7.529   6.462   6.331 -1.5108 -0.3440  0.3108
 3486SOL    HW211592   7.431   6.474   6.216  0.9517  2.1367 -1.6623
 3487SOL     OW11593   6.834   7.665   3.353 -0.2837 -0.0132 -0.7760
 3487SOL    HW111594   6.918   7.661   3.307 -0.1188  1.5364 -0.6473
 3487SOL    HW211595   6.773   7.701   3.288 -0.5294  0.1747 -0.4451
 3488SOL     OW11596   1.622   2.633   8.552  0.2432 -0.4587 -0.0238
 3488SOL    HW111597   1.541   2.584   8.539  0.3434 -0.7467  0.4275
 3488SOL    HW211598   1.686   2.591   8.495 -0.3118  0.7737 -1.6433
 3489SOL     OW11599   8.776   7.032   6.169 -0.2020  0.0180 -0.2927
 3489SOL    HW111600   8.826   7.001   6.244 -0.8605 -0.6355 -0.1100
 3489SOL    HW211601   8.717   7.099   6.205 -0.8234 -0.6039 -0.1327
 3490SOL     OW11602   3.229   2.244   6.658  0.1256  0.0014  0.5067
 3490SOL    HW111603   3.282   2.251   6.738  0.6676  0.5284  0.1138
 3490SOL    HW211604   3.198   2.333   6.642 -0.1314 -0.1358  0.2306
 3491SOL     OW11605   2.561   1.726   9.086  0.0628  0.3481 -0.4668
 3491SOL    HW111606   2.639   1.685   9.050  0.0841  0.2336 -0.2909
 3491SOL    HW211607   2.591   1.770   9.166  0.0303  0.6608 -0.6253
 3492SOL     OW11608   3.418   8.257   7.517  0.3031 -0.1892 -0.1417
 3492SOL    HW111609   3.401   8.284   7.608 -1.8546 -0.9801 -0.2734
 3492SOL    HW211610   3.421   8.339   7.468  1.0522  0.2178  0.5456
 3493SOL     OW11611   2.243   1.964   5.120 -0.3381  0.2582  0.1104
 3493SOL    HW111612   2.228   2.046   5.167  0.2597  0.1059  0.5793
 3493SOL    HW211613   2.192   1.973   5.039 -1.7007  0.3729  0.9464
 3494SOL     OW11614   3.255   3.285   1.155 -0.4797  0.5426 -0.3654
 3494SOL    HW111615   3.320   3.310   1.221 -1.3499 -0.4553  0.9084
 3494SOL    HW211616   3.180   3.341   1.171 -0.2804  1.0971 -1.2823
 3495SOL     OW11617   6.497   0.032   2.640 -0.1975  0.1652 -0.2530
 3495SOL    HW111618   6.416   0.082   2.625  0.7621  2.2653  1.0567
 3495SOL    HW211619   6.490   0.004   2.732 -0.0670 -0.9349 -0.5658
 3496SOL     OW11620   4.395   7.092   8.521 -0.0288  0.2342  0.0182
 3496SOL    HW111621   4.446   7.173   8.518 -0.8771  0.8508  1.3264
 3496SOL    HW211622   4.452   7.026   8.482  0.6867  1.4465 -1.0478
 3497SOL     OW11623   8.209   8.868   0.292 -0.6143  0.4216  0.0001
 3497SOL    HW111624   8.279   8.804   0.305 -1.0409 -0.4691 -1.8597
 3497SOL    HW211625   8.129   8.822   0.318 -0.7479  0.7369  0.1535
 3498SOL     OW11626   1.231   1.424   0.617  0.3988  0.4270 -0.2814
 3498SOL    HW111627   1.232   1.467   0.532 -0.5409 -2.2320 -1.7734
 3498SOL    HW211628   1.141   1.393   0.627  1.0551 -1.3879  0.5115
 3499SOL     OW11629   4.444   3.401   6.277  0.2921  0.4319 -0.1331
 3499SOL    HW111630   4.530   3.443   6.270  0.6662  0.0284  1.5964
 3499SOL    HW211631   4.464   3.308   6.289 -0.2953  0.5276  1.8937
 3500SOL     OW11632   7.651   5.491   6.621  0.1755  0.1015  0.0010
 3500SOL    HW111633   7.568   5.464   6.580  0.7467  0.4267 -1.4278
 3500SOL    HW211634   7.624   5.536   6.701 -0.9825 -0.5967  0.0260
 3501SOL     OW11635   3.122   5.654   0.892 -0.0764  0.2767  0.2670
 3501SOL    HW111636   3.172   5.679   0.970 -0.7554  0.1149  0.7623
 3501SOL    HW211637   3.173   5.583   0.854 -0.3727 -0.5067  1.2731
 3502SOL     OW11638   8.473   6.128   5.780  0.2404 -0.0021  0.9449
 3502SOL    HW111639   8.379   6.135   5.794  0.3284 -0.2834  1.7343
 3502SOL    HW211640   8.507   6.090   5.861  1.0928  0.5215  0.8482
 3503SOL     OW11641   8.837   4.146   9.072  0.7114  0.2404  0.0423
 3503SOL    HW111642   8.838   4.240   9.089 -1.1001  0.2069  0.4937
 3503SOL    HW211643   8.745   4.122   9.071  1.1139 -2.0003  2.6575
 3504SOL     OW11644   5.907   6.319   6.931  0.1666  0.1841  0.0592
 3504SOL    HW111645   5.923   6.259   6.859 -0.5271  0.4762 -0.3434
 3504SOL    HW211646   5.995   6.348   6.958  0.4252  0.1077 -0.6890
 3505SOL     OW11647   0.017   2.590   1.095  0.6641 -0.2227  0.0877
 3505SOL    HW111648   0.090   2.650   1.079  0.4293  0.0076 -0.1275
 3505SOL    HW211649  -0.057   2.630   1.049  0.6205 -0.9176 -0.4645
 3506SOL     OW11650   2.686   7.795   2.912  0.1587 -0.4910 -0.2327
 3506SOL    HW111651   2.624   7.843   2.857 -0.3220 -0.9033 -0.0478
 3506SOL    HW211652   2.639   7.717   2.940  1.0816 -1.3177 -0.9031
 3507SOL     OW11653   8.381   5.928   4.874  0.1715  0.1588  0.2259
 3507SOL    HW111654   8.325   6.001   4.899 -0.2147 -0.6003  1.6648
 3507SOL    HW211655   8.462   5.942   4.923  0.2576 -0.1383  0.1688
 3508SOL     OW11656   3.985   7.721   3.999  0.2874 -0.9099  0.6894
 3508SOL    HW111657   4.025   7.729   3.913  0.5236 -0.7273  0.8156
 3508SOL    HW211658   3.986   7.810   4.035  1.8035 -1.2592  1.6030
 3509SOL     OW11659   3.413   6.682   3.009  0.5054  0.1232 -0.0979
 3509SOL    HW111660   3.444   6.754   3.063  2.0085 -0.6053  0.0803
 3509SOL    HW211661   3.489   6.658   2.955 -0.2896 -0.6098 -0.9328
 3510SOL     OW11662   7.835   7.616   5.604  0.1801  0.4422  0.4099
 3510SOL    HW111663   7.786   7.681   5.654 -0.5196  0.1854  0.0692
 3510SOL    HW211664   7.771   7.547   5.585 -0.0403  1.2756 -2.2588
 3511SOL     OW11665   0.150   1.399   0.778 -0.2156 -0.1392  0.6620
 3511SOL    HW111666   0.199   1.323   0.808  0.0902  0.4669  1.7282
 3511SOL    HW211667   0.067   1.362   0.745 -0.5784 -0.8403  2.2625
 3512SOL     OW11668   0.973   6.947   4.416  0.3985  0.0528 -0.2985
 3512SOL    HW111669   0.968   6.893   4.495  1.4903  0.3639  0.0014
 3512SOL    HW211670   1.061   6.930   4.382  0.6794  1.4704 -0.3211
 3513SOL     OW11671   7.343   5.466   2.958  0.2500  0.1303  0.0700
 3513SOL    HW111672   7.395   5.543   2.983  1.7290 -1.1857  1.2766
 3513SOL    HW211673   7.353   5.460   2.863  1.1468  0.7463  0.1056
 3514SOL     OW11674   2.521   7.556   0.022 -0.3990  0.3154 -0.1747
 3514SOL    HW111675   2.501   7.488  -0.042 -0.6177  1.9572 -1.9588
 3514SOL    HW211676   2.615   7.571   0.013 -0.4085  0.4797 -0.0160
 3515SOL     OW11677   3.785   4.836   3.806 -0.3147  0.3717  0.6162
 3515SOL    HW111678   3.779   4.806   3.897  2.6992 -3.8956 -0.2551
 3515SOL    HW211679   3.727   4.778   3.758  2.4887 -1.5777 -0.6914
 3516SOL     OW11680   0.503   5.982   6.521  0.5746 -0.0013 -0.1092
 3516SOL    HW111681   0.572   5.915   6.515  1.3138  0.8014 -0.7420
 3516SOL    HW211682   0.423   5.936   6.494  1.3208 -0.2786 -2.0054
 3517SOL     OW11683   5.372   7.490   0.094  0.4979 -0.0985 -0.2319
 3517SOL    HW111684   5.343   7.420   0.035  0.6236 -0.7987  0.5230
 3517SOL    HW211685   5.342   7.570   0.052 -1.2052 -0.6956 -0.2499
 3518SOL     OW11686   3.253   2.941   5.595 -0.0010 -0.1503 -0.8856
 3518SOL    HW111687   3.344   2.961   5.618 -0.2760 -1.3213  1.5761
 3518SOL    HW211688   3.256   2.849   5.566 -0.1632  0.3652 -2.6453
 3519SOL     OW11689   6.173   8.582   3.443 -0.3690  0.4382 -0.4825
 3519SOL    HW111690   6.261   8.618   3.454  0.8154 -1.9526 -1.2049
 3519SOL    HW211691   6.125   8.609   3.521  1.6513  0.1689  0.9227
 3520SOL     OW11692   2.893   4.527   7.405 -0.4058  0.3316  0.5020
 3520SOL    HW111693   2.977   4.572   7.398 -0.0022 -0.4482  0.1074
 3520SOL    HW211694   2.836   4.572   7.343  0.6954 -1.1713 -1.7702
 3521SOL     OW11695   3.836   8.864   5.121  0.0446  0.1968  0.4524
 3521SOL    HW111696   3.857   8.785   5.171 -2.1150 -0.3616  0.6071
 3521SOL    HW211697   3.754   8.842   5.077  0.8459  1.4040 -1.7513
 3522SOL     OW11698   3.798   7.907   4.608 -0.2193  0.3513 -0.1532
 3522SOL    HW111699   3.816   8.000   4.594  1.0628 -0.0330 -1.3047
 3522SOL    HW211700   3.825   7.890   4.698  2.0845  0.5771 -0.7359
 3523SOL     OW11701   1.440   2.661   7.558 -0.3012  0.8807  0.1563
 3523SOL    HW111702   1.512   2.636   7.500 -0.0115  2.8306 -0.3967
 3523SOL    HW211703   1.483   2.707   7.630 -0.8785  0.7305  0.5999
 3524SOL     OW11704   3.941   2.208   1.688 -0.1289 -0.3206 -0.3295
 3524SOL    HW111705   3.991   2.134   1.721  0.9021  0.1386 -0.7875
 3524SOL    HW211706   3.899   2.246   1.765  0.5822 -0.4789  0.1459
 3525SOL     OW11707   4.407   3.485   8.534 -0.1390  0.2680  0.2090
 3525SOL    HW111708   4.468   3.444   8.595  0.6551  1.0241 -0.0543
 3525SOL    HW211709   4.350   3.413   8.506  0.2149 -0.3200  0.9525
 3526SOL     OW11710   8.101   5.391   0.759 -0.1175  0.1026 -0.0889
 3526SOL    HW111711   8.196   5.403   0.762 -0.2990  1.4482  0.6769
 3526SOL    HW211712   8.067   5.447   0.828 -1.4821 -0.4139 -0.3073
 3527SOL     OW11713   1.577   6.187   4.848 -0.0298 -0.7281  0.1133
 3527SOL    HW111714   1.588   6.092   4.850 -3.3181 -1.2148  0.1003
 3527SOL    HW211715   1.544   6.206   4.760  2.2943  0.7583 -0.5392
 3528SOL     OW11716   7.017   2.819   5.104  0.8584 -0.6809 -0.2916
 3528SOL    HW111717   6.938   2.791   5.152  0.8304  0.1898  0.1935
 3528SOL    HW211718   7.085   2.758   5.131  1.0186  0.1949  1.4366
 3529SOL     OW11719   6.893   3.696   1.591 -0.1636  0.3114 -0.0602
 3529SOL    HW111720   6.853   3.691   1.505 -0.1102  0.3910 -0.0896
 3529SOL    HW211721   6.979   3.733   1.576  0.6288 -1.5075 -0.2212
 3530SOL     OW11722   3.693   3.627   3.891 -0.1707 -0.2688  0.7309
 3530SOL    HW111723   3.775   3.578   3.891 -0.1867 -0.3705 -0.7914
 3530SOL    HW211724   3.642   3.588   3.820 -0.3119  1.7144 -0.3414
 3531SOL     OW11725   2.169   7.680   0.789  0.0142 -0.5913 -0.0629
 3531SOL    HW111726   2.123   7.597   0.803 -0.7254 -0.4812 -1.5670
 3531SOL    HW211727   2.101   7.747   0.796 -0.0056 -0.3841 -1.7523
 3532SOL     OW11728   2.621   7.241   4.927  0.4877  0.0351 -0.4105
 3532SOL    HW111729   2.534   7.210   4.902  0.2879  1.9639 -2.4409
 3532SOL    HW211730   2.623   7.235   5.022 -0.5659 -3.2012 -0.4904
 3533SOL     OW11731   3.333   7.151   8.727 -0.4594  0.5248  0.3514
 3533SOL    HW111732   3.286   7.091   8.784 -0.4592  0.6998  0.5372
 3533SOL    HW211733   3.265   7.211   8.694 -0.5861 -0.0136 -0.4032
 3534SOL     OW11734   4.537   0.861   5.790  0.1959  0.5458 -0.4515
 3534SOL    HW111735   4.609   0.830   5.734 -0.0837 -0.0564 -0.4877
 3534SOL    HW211736   4.485   0.918   5.733 -1.6847 -2.2131 -1.7634
 3535SOL     OW11737   4.616   7.587   7.166 -0.3523 -0.2252  0.1907
 3535SOL    HW111738   4.680   7.648   7.203 -0.5975  0.4983 -0.5545
 3535SOL    HW211739   4.600   7.525   7.237  1.5347 -0.7229  0.2372
 3536SOL     OW11740   1.994   3.811   9.106 -0.0577 -0.2596  0.0804
 3536SOL    HW111741   1.905   3.824   9.140  0.3118  2.2788  0.2322
 3536SOL    HW211742   1.989   3.838   9.014  0.5437 -0.1729  0.0718
 3537SOL     OW11743   6.816   4.763   4.056 -0.5200  0.0806 -0.2354
 3537SOL    HW111744   6.815   4.824   4.130  0.0846 -1.3661  1.0249
 3537SOL    HW211745   6.814   4.819   3.979 -0.3208  1.6790  0.8639
 3538SOL     OW11746   2.079   7.028   0.343  0.0536 -0.1341 -0.2041
 3538SOL    HW111747   2.111   7.115   0.366  1.4334 -0.2544 -1.5634
 3538SOL    HW211748   2.044   6.993   0.425  1.6266  0.7868  0.9026
 3539SOL     OW11749   4.254   4.769   3.469 -0.2640  0.4371 -0.0365
 3539SOL    HW111750   4.219   4.826   3.537 -1.1139 -1.5119  1.2573
 3539SOL    HW211751   4.216   4.683   3.488 -1.6261  0.0205 -3.7439
 3540SOL     OW11752   1.998   2.897   1.107 -0.0075  0.2754  0.0009
 3540SOL    HW111753   2.015   2.808   1.077 -0.4153  0.0112  0.5484
 3540SOL    HW211754   2.048   2.905   1.188  1.0128  0.9556 -0.6694
 3541SOL     OW11755   7.696   1.071   5.976 -0.3204 -0.5489 -0.3233
 3541SOL    HW111756   7.619   1.094   5.924  0.4734 -0.2836 -1.4056
 3541SOL    HW211757   7.661   1.018   6.048 -2.1308  2.8508  1.6088
 3542SOL     OW11758   5.408   5.062   6.335 -0.0564  0.2443  0.0702
 3542SOL    HW111759   5.466   5.004   6.285  0.6772  1.9336 -1.1566
 3542SOL    HW211760   5.334   5.078   6.276 -1.0048 -0.6045  0.9933
 3543SOL     OW11761   4.450   7.621   3.842 -0.2821 -0.0402  0.0428
 3543SOL    HW111762   4.413   7.658   3.762  0.3980  0.1206 -0.2031
 3543SOL    HW211763   4.398   7.542   3.858  0.7535 -1.1504 -1.6239
 3544SOL     OW11764   4.594   4.447   1.608 -0.0527 -0.3459 -0.3559
 3544SOL    HW111765   4.499   4.460   1.600 -0.1008  1.7963  2.2148
 3544SOL    HW211766   4.632   4.529   1.576  0.7187 -0.1640  0.9247
 3545SOL     OW11767   3.834   4.911   4.700  0.2014 -0.2407  0.6856
 3545SOL    HW111768   3.793   4.972   4.762  0.9473 -0.3708  1.3146
 3545SOL    HW211769   3.924   4.940   4.693 -0.0947  0.3451 -1.0897
 3546SOL     OW11770   5.526   6.252   4.447  0.3974 -0.3115  0.2927
 3546SOL    HW111771   5.457   6.221   4.388 -0.6694 -0.3949  1.5504
 3546SOL    HW211772   5.602   6.264   4.390 -0.5049 -0.6965 -1.0419
 3547SOL     OW11773   0.695   4.414   2.057  0.2280 -0.5347 -0.4299
 3547SOL    HW111774   0.707   4.421   2.152 -1.3900 -1.9895 -0.0536
 3547SOL    HW211775   0.720   4.499   2.023  0.4636  0.1574  1.3606
 3548SOL     OW11776   1.288   9.097   5.572 -0.0221 -0.0878 -0.3755
 3548SOL    HW111777   1.200   9.059   5.573 -1.3979  2.8212 -0.1464
 3548SOL    HW211778   1.313   9.102   5.664 -1.0811  1.9903 -0.1385
 3549SOL     OW11779   4.570   3.442   2.402 -0.0700  0.0886 -0.0989
 3549SOL    HW111780   4.587   3.370   2.342  2.2550  1.0900 -0.7548
 3549SOL    HW211781   4.656   3.469   2.433 -1.0201  1.1798  1.8639
 3550SOL     OW11782   5.355   3.514   7.392  0.0713  0.4875  0.3908
 3550SOL    HW111783   5.297   3.465   7.334 -0.4407  1.2328  0.2612
 3550SOL    HW211784   5.425   3.452   7.413 -0.0780 -0.0031 -0.4975
 3551SOL     OW11785   2.667   1.407   1.671 -0.3078  0.2860 -0.2396
 3551SOL    HW111786   2.608   1.403   1.747 -1.0484  1.8092 -0.6899
 3551SOL    HW211787   2.619   1.458   1.607 -0.0620 -1.7073 -2.1244
 3552SOL     OW11788   8.919   0.437   1.294  0.0033  0.1123  0.1400
 3552SOL    HW111789   8.984   0.443   1.364  0.1304  1.3906 -0.0603
 3552SOL    HW211790   8.835   0.448   1.337  0.1299  1.8255  0.0162
 3553SOL     OW11791   1.695   7.818   8.705  0.6371  0.3842 -0.0910
 3553SOL    HW111792   1.607   7.821   8.742 -0.0939  0.9916 -1.8008
 3553SOL    HW211793   1.718   7.725   8.705 -0.3028  0.1404 -0.3240
 3554SOL     OW11794   3.979   4.971   4.173  0.0655 -0.3982  0.8242
 3554SOL    HW111795   3.930   5.026   4.234  1.0360 -0.1638  1.4142
 3554SOL    HW211796   3.968   5.015   4.088 -0.9694 -0.5148  0.8835
 3555SOL     OW11797   4.663   7.604   1.228  0.2134 -0.2774  0.5362
 3555SOL    HW111798   4.606   7.648   1.291  0.3781 -0.1881  0.6226
 3555SOL    HW211799   4.751   7.630   1.253  0.3456 -1.0138  0.8668
 3556SOL     OW11800   0.207   0.876   0.614 -0.4123 -0.2228  0.7125
 3556SOL    HW111801   0.268   0.879   0.540 -0.7744 -2.2125  0.2859
 3556SOL    HW211802   0.263   0.864   0.691 -0.1891 -0.6596  0.4808
 3557SOL     OW11803   2.337   5.083   4.583 -0.6131  0.3700  0.2670
 3557SOL    HW111804   2.389   5.102   4.661 -1.6384  0.8468  0.8469
 3557SOL    HW211805   2.350   5.159   4.526 -0.7566  0.5279  0.4474
 3558SOL     OW11806   7.230   2.302   8.464 -0.1091 -0.0736 -0.4431
 3558SOL    HW111807   7.288   2.326   8.536  5.0462  0.2068 -4.0746
 3558SOL    HW211808   7.214   2.208   8.476  4.3811 -1.1328 -0.8588
 3559SOL     OW11809   7.578   7.071   7.473  0.2690  0.0330  0.1416
 3559SOL    HW111810   7.607   6.985   7.444  0.4897  0.7241 -1.8118
 3559SOL    HW211811   7.483   7.072   7.455  0.5702  0.8144 -1.6213
 3560SOL     OW11812   0.458   4.038   0.963 -0.2460 -0.2156 -0.2731
 3560SOL    HW111813   0.366   4.061   0.977  0.1724  0.9485  0.6543
 3560SOL    HW211814   0.471   4.049   0.869 -1.4649 -2.0527 -0.7276
 3561SOL     OW11815   0.905   4.238   5.455  0.1755  0.0879 -0.5296
 3561SOL    HW111816   0.877   4.306   5.393 -0.0477  1.0658  0.5902
 3561SOL    HW211817   0.925   4.287   5.535 -0.1880 -1.2057  0.3753
 3562SOL     OW11818   0.292   7.048   1.401 -0.0869 -0.2691 -0.5435
 3562SOL    HW111819   0.322   7.130   1.440 -0.8267 -0.3780  0.2736
 3562SOL    HW211820   0.246   7.074   1.321  2.5867 -0.1241 -2.1523
 3563SOL     OW11821   8.074   8.951   3.265 -0.5890 -0.6498 -0.7554
 3563SOL    HW111822   7.995   8.988   3.224 -0.0536 -0.2958 -1.4869
 3563SOL    HW211823   8.144   8.971   3.204  0.0872 -0.9019 -0.0746
 3564SOL     OW11824   2.648   8.315   7.303  0.3088 -0.3234  0.1049
 3564SOL    HW111825   2.625   8.235   7.350  0.0984  0.1592  0.8313
 3564SOL    HW211826   2.695   8.368   7.367  3.7768 -1.3464 -1.3486
 3565SOL     OW11827   6.147   9.016   5.819  0.4688 -0.1531 -1.2077
 3565SOL    HW111828   6.164   9.040   5.729  1.9565  1.2696 -0.5953
 3565SOL    HW211829   6.230   8.982   5.852  0.2649  0.3834 -0.0690
 3566SOL     OW11830   4.096   6.379   0.316  0.0035 -0.1676  0.0948
 3566SOL    HW111831   4.137   6.293   0.308  0.8446  0.2958 -0.8212
 3566SOL    HW211832   4.087   6.410   0.225  0.0660  0.8696  0.4297
 3567SOL     OW11833   7.622   7.385   5.574  0.1298  0.1300  0.0390
 3567SOL    HW111834   7.535   7.347   5.567  0.8037 -1.4814 -0.1306
 3567SOL    HW211835   7.646   7.374   5.666 -0.5108  2.2328  0.5245
 3568SOL     OW11836   2.323   1.796   7.276  0.2847 -0.2493 -0.0973
 3568SOL    HW111837   2.261   1.807   7.349  0.9297 -2.2986  0.8160
 3568SOL    HW211838   2.274   1.745   7.211 -0.1188  1.1501 -0.9420
 3569SOL     OW11839   4.778   7.076   2.259  0.3372 -0.1396 -0.4833
 3569SOL    HW111840   4.714   7.093   2.328 -1.2015  0.3551 -1.9846
 3569SOL    HW211841   4.832   7.155   2.256  1.5740 -0.8524  1.2909
 3570SOL     OW11842   6.845   0.872   6.966  0.1777 -0.0731 -0.1880
 3570SOL    HW111843   6.823   0.895   6.876  2.9157 -1.7016 -1.3958
 3570SOL    HW211844   6.854   0.777   6.965  0.6344 -0.0875  1.7146
 3571SOL     OW11845   4.301   7.168   6.114 -0.1874 -0.2544 -0.2921
 3571SOL    HW111846   4.323   7.187   6.023  0.8589 -1.4115 -0.3046
 3571SOL    HW211847   4.248   7.089   6.110 -0.4897 -0.0768  0.0828
 3572SOL     OW11848   6.690   3.553   6.217  0.1927 -0.0177 -0.2684
 3572SOL    HW111849   6.600   3.583   6.232 -0.2385 -1.2331 -0.3210
 3572SOL    HW211850   6.722   3.531   6.304  0.6313  0.8621 -0.1881
 3573SOL     OW11851   4.830   2.820   8.280 -0.3595 -0.7106  0.2619
 3573SOL    HW111852   4.753   2.862   8.240  0.3264  0.3033 -0.0331
 3573SOL    HW211853   4.903   2.844   8.223  0.2552 -1.2639  0.8000
 3574SOL     OW11854   5.047   6.435   2.252  0.2545 -0.2603 -0.1050
 3574SOL    HW111855   5.076   6.448   2.342 -0.2476 -1.5375  0.2605
 3574SOL    HW211856   4.960   6.396   2.260 -0.0080  0.0639 -1.1568
 3575SOL     OW11857   0.617   1.221   8.775  0.8927 -0.0432  0.1890
 3575SOL    HW111858   0.651   1.170   8.702 -0.3144  0.3397 -0.6628
 3575SOL    HW211859   0.523   1.229   8.758  1.0791  2.8971  0.0186
 3576SOL     OW11860   2.551   0.951   7.340  0.0316  0.3061  0.0842
 3576SOL    HW111861   2.628   1.003   7.363  0.4605 -0.3398  0.1292
 3576SOL    HW211862   2.478   1.000   7.377  0.3349  1.3157 -0.6039
 3577SOL     OW11863   9.012   1.714   2.061  0.0377  0.6866 -0.1891
 3577SOL    HW111864   8.925   1.678   2.077 -0.7689  1.7834 -1.8952
 3577SOL    HW211865   9.042   1.670   1.981  0.8165  0.7350  0.0701
 3578SOL     OW11866   2.784   7.986   3.108  0.3060 -0.0446 -0.6368
 3578SOL    HW111867   2.805   8.041   3.032 -1.3892 -1.1653 -2.0219
 3578SOL    HW211868   2.769   7.899   3.071 -2.6258 -0.1971  0.6128
 3579SOL     OW11869   2.702   1.557   7.426 -0.0084  0.2141  0.2997
 3579SOL    HW111870   2.641   1.574   7.498  0.0479  2.1353 -0.0662
 3579SOL    HW211871   2.710   1.640   7.381 -0.4815 -1.0667 -2.3200
 3580SOL     OW11872   1.420   8.086   5.437  0.1870  0.1758  0.2964
 3580SOL    HW111873   1.375   8.007   5.466  0.0592  0.3955  0.7099
 3580SOL    HW211874   1.444   8.131   5.518 -0.6166  1.0473  0.0592
 3581SOL     OW11875   1.288   3.810   6.073  0.2111  0.1762  0.8606
 3581SOL    HW111876   1.379   3.814   6.104  0.5460  0.2924 -0.1033
 3581SOL    HW211877   1.236   3.834   6.149  1.0839  1.8012  1.0004
 3582SOL     OW11878   0.976   4.044   1.126  0.1360  0.3732 -0.1666
 3582SOL    HW111879   0.956   4.137   1.138  0.9115  0.4599  0.6467
 3582SOL    HW211880   1.058   4.032   1.175  0.7333 -0.4544 -1.3363
 3583SOL     OW11881   5.577   4.922   4.869  0.2542 -0.3999 -0.0478
 3583SOL    HW111882   5.551   4.842   4.915 -0.3416 -0.2600 -0.1382
 3583SOL    HW211883   5.503   4.942   4.813  0.1663  0.5396  0.3954
 3584SOL     OW11884   5.422   1.923   3.978 -0.1455 -0.3604 -0.0303
 3584SOL    HW111885   5.516   1.916   3.961 -0.2901  0.4993 -1.2605
 3584SOL    HW211886   5.384   1.950   3.895 -1.7461 -2.5920 -0.1313
 3585SOL     OW11887   3.337   5.598   8.562  0.0262  0.0251  0.2112
 3585SOL    HW111888   3.367   5.548   8.638 -0.5894  1.2674  1.3133
 3585SOL    HW211889   3.369   5.687   8.577 -1.4841  0.6678 -0.1468
 3586SOL     OW11890   1.125   0.472   9.057  0.4021  0.0130 -0.2725
 3586SOL    HW111891   1.132   0.381   9.088  0.3150 -1.4407 -3.9157
 3586SOL    HW211892   1.204   0.485   9.005 -1.0111  0.8684 -2.3271
 3587SOL     OW11893   8.145   6.481   0.155  0.1173 -0.5090  0.8682
 3587SOL    HW111894   8.135   6.561   0.104 -0.4754 -1.4495 -0.5451
 3587SOL    HW211895   8.235   6.452   0.137 -0.3078 -1.1942 -0.1980
 3588SOL     OW11896   0.208   0.157   4.620  0.3991 -0.2308  0.2886
 3588SOL    HW111897   0.247   0.238   4.587  2.0873 -1.1234 -0.0318
 3588SOL    HW211898   0.117   0.180   4.638  0.5480  1.4492 -0.8244
 3589SOL     OW11899   7.407   7.542   7.192  0.3471  0.2173 -0.5683
 3589SOL    HW111900   7.327   7.565   7.239  2.0703  3.5787  1.0166
 3589SOL    HW211901   7.454   7.484   7.252 -0.1849 -0.5260 -0.8557
 3590SOL     OW11902   4.891   5.944   8.192  0.4307  0.0045  0.7460
 3590SOL    HW111903   4.812   5.921   8.144  2.0752 -1.6453 -1.3737
 3590SOL    HW211904   4.884   6.038   8.206 -1.9991 -0.1421  0.8768
 3591SOL     OW11905   1.429   8.113   0.566  0.3346 -0.3323 -0.8355
 3591SOL    HW111906   1.440   8.070   0.650  1.5485  0.9729 -0.2934
 3591SOL    HW211907   1.511   8.095   0.519  0.6143  0.8427 -0.8283
 3592SOL     OW11908   7.100   5.338   1.286  0.4395 -0.2732 -0.5931
 3592SOL    HW111909   7.115   5.347   1.380  2.5219  0.4259 -0.9392
 3592SOL    HW211910   7.007   5.361   1.274  0.4842  1.0260  1.1095
 3593SOL     OW11911   1.873   8.006   1.977 -0.4779 -0.5758 -0.4399
 3593SOL    HW111912   1.910   8.063   1.910  0.5877 -2.0519 -1.1873
 3593SOL    HW211913   1.947   7.952   2.007 -1.2137 -0.8694  0.9657
 3594SOL     OW11914   6.224   1.161   2.960  0.1508 -0.0075  0.2803
 3594SOL    HW111915   6.178   1.079   2.972  2.3040 -1.2360  0.7163
 3594SOL    HW211916   6.314   1.136   2.940  0.9145  2.2369  0.5506
 3595SOL     OW11917   6.886   6.738   5.135 -0.2611  1.0926 -0.1950
 3595SOL    HW111918   6.795   6.737   5.105 -1.1115  1.6124  2.1521
 3595SOL    HW211919   6.887   6.680   5.211  1.1688  1.7649  0.3271
 3596SOL     OW11920   8.955   0.695   3.795  0.1166  0.3757 -0.7495
 3596SOL    HW111921   9.014   0.755   3.840  2.4482 -1.0715 -1.7077
 3596SOL    HW211922   8.896   0.752   3.745  0.5690  1.8762  0.3847
 3597SOL     OW11923   8.639   7.535   0.475  0.1055 -0.3925 -0.7771
 3597SOL    HW111924   8.670   7.529   0.384 -0.5987 -2.2090 -0.9361
 3597SOL    HW211925   8.562   7.479   0.478  0.4522 -0.8302  1.0960
 3598SOL     OW11926   3.283   2.786   8.453 -0.1558  0.0267 -0.0656
 3598SOL    HW111927   3.261   2.871   8.416 -0.3849 -0.1451 -0.3389
 3598SOL    HW211928   3.378   2.779   8.444  0.0793  0.9555  1.5142
 3599SOL     OW11929   1.659   3.345   1.066 -0.2549  0.5474  0.2362
 3599SOL    HW111930   1.667   3.403   1.141  0.2980  1.2726 -0.3584
 3599SOL    HW211931   1.583   3.290   1.085  0.0812  0.4825  1.4674
 3600SOL     OW11932   2.324   7.128   7.447 -0.0961 -0.1778 -0.1831
 3600SOL    HW111933   2.350   7.047   7.491 -1.4061 -1.1296 -1.0842
 3600SOL    HW211934   2.289   7.184   7.518  0.4169 -0.5569  0.3803
 3601SOL     OW11935   4.091   0.407   0.793  0.0478 -0.1941  0.1665
 3601SOL    HW111936   4.111   0.340   0.858  0.0368  0.8265  1.2591
 3601SOL    HW211937   4.008   0.445   0.823 -0.7672 -0.7567 -1.3191
 3602SOL     OW11938   4.066   8.837   4.867 -0.3578  0.2140 -0.6369
 3602SOL    HW111939   4.043   8.928   4.883  0.8580  0.6005 -0.9857
 3602SOL    HW211940   4.037   8.791   4.946 -0.3060  1.0177 -0.1365
 3603SOL     OW11941   0.449   3.061   5.498  0.3964  0.5710  0.0508
 3603SOL    HW111942   0.515   3.086   5.433 -0.0408  2.6698  0.3523
 3603SOL    HW211943   0.470   3.113   5.575  0.2723 -1.1178  1.2714
 3604SOL     OW11944   2.407   4.940   4.096  0.2213  0.2878 -0.5966
 3604SOL    HW111945   2.462   4.894   4.159 -0.8032 -1.2743 -0.7886
 3604SOL    HW211946   2.358   5.003   4.148  1.7799  1.3390 -0.3491
 3605SOL     OW11947   8.215   8.695   6.725 -0.4051  0.5464  0.0702
 3605SOL    HW111948   8.232   8.764   6.661 -0.9522 -2.2903 -3.4629
 3605SOL    HW211949   8.299   8.651   6.735 -0.4312  0.6957  1.0419
 3606SOL     OW11950   8.355   7.722   5.776  0.4043  0.3023 -0.1128
 3606SOL    HW111951   8.276   7.751   5.731  0.1871  0.0206  0.0875
 3606SOL    HW211952   8.415   7.797   5.771  0.6016  0.0851 -1.3801
 3607SOL     OW11953   1.504   7.485   7.701  0.1549  0.6712 -1.1574
 3607SOL    HW111954   1.467   7.571   7.721 -0.4637  0.3620 -0.9375
 3607SOL    HW211955   1.453   7.424   7.755  0.5742  0.1673 -1.3266
 3608SOL     OW11956   2.624   7.820   1.610  0.2475 -0.3303  0.5336
 3608SOL    HW111957   2.685   7.865   1.669  1.2002 -0.6787 -0.1594
 3608SOL    HW211958   2.651   7.848   1.523  0.5330 -1.8347  0.1235
 3609SOL     OW11959   7.937   2.321   6.488  0.1202  0.2990 -0.6660
 3609SOL    HW111960   7.962   2.312   6.580 -0.1733  1.1285 -0.4934
 3609SOL    HW211961   7.977   2.404   6.460 -1.0185  0.8113 -0.8530
 3610SOL     OW11962   8.154   0.109   6.494  0.4240 -0.0696  0.2530
 3610SOL    HW111963   8.086   0.054   6.455 -0.2719 -0.3161  1.7530
 3610SOL    HW211964   8.116   0.197   6.496 -0.2733 -0.3800  1.9765
 3611SOL     OW11965   0.226   1.877   4.890  0.4785 -0.1662  0.4882
 3611SOL    HW111966   0.177   1.959   4.895  2.7385  1.2258  0.9844
 3611SOL    HW211967   0.245   1.866   4.797  0.9109  0.3636  0.5064
 3612SOL     OW11968   7.296   4.590   5.689  0.4602 -0.3583  0.0796
 3612SOL    HW111969   7.279   4.658   5.624 -0.2100 -1.3989 -0.8841
 3612SOL    HW211970   7.287   4.634   5.774 -3.0005  0.1913 -0.3945
 3613SOL     OW11971   7.029   3.142   1.964 -0.5355 -0.2268  0.0461
 3613SOL    HW111972   6.978   3.214   2.002 -1.5778 -0.3290 -1.1149
 3613SOL    HW211973   6.982   3.118   1.885  0.4628 -1.4033 -0.2208
 3614SOL     OW11974   7.705   3.756   1.804  0.4565 -0.6565  0.0592
 3614SOL    HW111975   7.638   3.824   1.791 -0.9249 -2.0301 -0.3348
 3614SOL    HW211976   7.709   3.745   1.899  0.4622 -0.2577  0.1090
 3615SOL     OW11977   5.414   2.035   4.691 -0.4193 -0.1925 -0.0193
 3615SOL    HW111978   5.500   2.029   4.650  0.1487 -0.7270  1.1982
 3615SOL    HW211979   5.422   2.108   4.753 -1.0405  0.1679 -0.3649
 3616SOL     OW11980   1.062   7.735   2.753  0.4777  0.2313 -0.5728
 3616SOL    HW111981   0.977   7.736   2.709  0.1956  0.5182 -0.0323
 3616SOL    HW211982   1.088   7.827   2.757 -0.3617  0.4420  1.4709
 3617SOL     OW11983   6.557   0.391   8.900  0.0420  0.0034  0.5913
 3617SOL    HW111984   6.541   0.485   8.908  1.9271  0.3579  0.6228
 3617SOL    HW211985   6.539   0.356   8.988 -1.4691  0.1728  0.3734
 3618SOL     OW11986   2.917   0.585   8.070  0.0230  1.0461 -0.5957
 3618SOL    HW111987   2.853   0.568   8.002  0.0968 -0.3789 -0.3249
 3618SOL    HW211988   2.943   0.677   8.056 -2.0316  1.6449 -0.7025
 3619SOL     OW11989   5.001   8.234   0.269 -0.2256  0.3791  0.1955
 3619SOL    HW111990   4.916   8.194   0.253  0.6628 -0.7172 -2.4466
 3619SOL    HW211991   4.989   8.326   0.246 -0.9076  0.4308  0.7330
 3620SOL     OW11992   2.613   7.653   5.368  0.1075 -0.2238  0.1823
 3620SOL    HW111993   2.638   7.715   5.436 -0.6963 -1.2173  1.4207
 3620SOL    HW211994   2.652   7.688   5.288  0.5659  1.2878  1.0400
 3621SOL     OW11995   7.920   0.426   6.640 -0.4959 -0.0531  0.0584
 3621SOL    HW111996   7.928   0.400   6.548 -0.4017  0.0276  0.0437
 3621SOL    HW211997   7.906   0.344   6.686 -1.2956 -0.0214 -0.1153
 3622SOL     OW11998   2.696   1.427   0.418 -0.0548  0.2302  0.0975
 3622SOL    HW111999   2.789   1.444   0.431  0.1062 -1.0039  0.7280
 3622SOL    HW212000   2.672   1.368   0.490 -1.8896  2.3957  1.4164
 3623SOL     OW12001   1.513   4.203   7.280 -0.2815  0.2014  0.2877
 3623SOL    HW112002   1.422   4.213   7.252 -0.5717  0.2507  1.2097
 3623SOL    HW212003   1.530   4.281   7.334  1.0477  1.4021 -1.7489
 3624SOL     OW12004   1.531   6.872   5.400  0.2012 -0.1701  0.0312
 3624SOL    HW112005   1.613   6.889   5.353  1.0105 -0.1225  1.3996
 3624SOL    HW212006   1.532   6.935   5.472 -0.8028 -0.5075  0.3496
 3625SOL     OW12007   3.011   4.777   5.524 -0.1587  0.2299  0.0908
 3625SOL    HW112008   2.976   4.782   5.613  0.9433  0.1137  0.5388
 3625SOL    HW212009   3.080   4.711   5.528  0.0769  0.4078 -0.7925
 3626SOL     OW12010   1.407   8.608   6.758 -0.3855  0.2603 -0.3959
 3626SOL    HW112011   1.359   8.655   6.688 -1.5017 -0.8067 -0.3878
 3626SOL    HW212012   1.380   8.517   6.747  0.0276 -0.0357  0.9613
 3627SOL     OW12013   8.852   3.018   0.304  0.6087 -0.0361  0.0075
 3627SOL    HW112014   8.844   3.099   0.254  0.1966  0.6042  1.0664
 3627SOL    HW212015   8.764   2.980   0.303  0.7603 -0.3915 -0.3378
 3628SOL     OW12016   2.263   7.468   0.624 -0.0578  0.1969 -0.2220
 3628SOL    HW112017   2.272   7.553   0.667 -0.1850 -0.0249  0.2421
 3628SOL    HW212018   2.231   7.409   0.692  1.2121 -0.5110 -0.2175
 3629SOL     OW12019   6.453   6.520   2.485  0.3225 -0.2857  0.1131
 3629SOL    HW112020   6.515   6.538   2.415  0.6224 -0.2127  0.3921
 3629SOL    HW212021   6.500   6.463   2.546 -1.0714 -3.3155 -1.4461
 3630SOL     OW12022   3.644   3.142   7.291  0.3076  0.2655 -0.2754
 3630SOL    HW112023   3.594   3.191   7.357 -1.4754  0.1046 -1.4367
 3630SOL    HW212024   3.709   3.093   7.342 -0.4923  0.7614  1.2828
 3631SOL     OW12025   3.201   2.686   6.267  0.7377  0.2023 -0.8278
 3631SOL    HW112026   3.282   2.645   6.297  1.7320 -1.1862 -4.7205
 3631SOL    HW212027   3.219   2.780   6.268  0.8449  0.2317  2.0373
 3632SOL     OW12028   1.251   5.272   5.877  0.2792  0.5070  0.2869
 3632SOL    HW112029   1.234   5.341   5.940  0.9165  0.9722 -0.0417
 3632SOL    HW212030   1.292   5.202   5.928  0.1415  0.5973  0.5201
 3633SOL     OW12031   1.852   2.963   2.172  0.0434 -0.8666  0.1266
 3633SOL    HW112032   1.883   3.013   2.096  1.2466 -0.1877  1.0211
 3633SOL    HW212033   1.790   3.021   2.216  0.3458 -0.7278  0.3746
 3634SOL     OW12034   4.341   7.789   3.083 -0.4059  0.0866  0.0065
 3634SOL    HW112035   4.367   7.729   3.014 -0.7156  1.0794 -0.9947
 3634SOL    HW212036   4.405   7.774   3.153 -0.6891 -1.6416 -0.0583
 3635SOL     OW12037   6.307   7.720   6.370 -0.1899 -0.2446 -0.0643
 3635SOL    HW112038   6.382   7.775   6.346  0.3671 -0.7810  0.3830
 3635SOL    HW212039   6.284   7.674   6.289  0.6693 -0.8749  0.0224
 3636SOL     OW12040   7.783   4.813   6.799  0.8352  0.0974 -0.1674
 3636SOL    HW112041   7.785   4.813   6.895  3.6830  1.2809 -0.1159
 3636SOL    HW212042   7.700   4.856   6.777 -0.9837 -2.2279  1.6426
 3637SOL     OW12043   7.200   0.778   6.527  1.0434  0.5030  0.3590
 3637SOL    HW112044   7.181   0.793   6.619 -0.3431 -0.3235  0.2402
 3637SOL    HW212045   7.133   0.828   6.480  0.7786 -0.3025 -0.1487
 3638SOL     OW12046   2.826   1.921   0.800  0.1276  0.5188 -0.5310
 3638SOL    HW112047   2.863   1.883   0.720  0.7167 -2.2233  0.9144
 3638SOL    HW212048   2.898   1.923   0.862 -0.7450  0.8000  0.5047
 3639SOL     OW12049   2.012   8.131   8.035 -0.4087 -0.5967  0.2455
 3639SOL    HW112050   2.093   8.173   8.065 -1.1200  1.3654 -0.4205
 3639SOL    HW212051   1.985   8.075   8.108 -1.3053  2.8908  2.8327
 3640SOL     OW12052   5.655   7.597   1.185  0.2484 -0.3445  0.5089
 3640SOL    HW112053   5.642   7.508   1.153  0.1922 -1.4280  3.3124
 3640SOL    HW212054   5.747   7.600   1.210  0.2624  0.4313  0.3877
 3641SOL     OW12055   6.501   8.966   5.509 -0.7157  0.3397  0.1388
 3641SOL    HW112056   6.576   9.024   5.500 -2.1436  2.5242  1.3622
 3641SOL    HW212057   6.473   8.949   5.419 -2.1246  4.2770 -0.3699
 3642SOL     OW12058   7.276   9.018   1.720  0.2114 -0.9244 -0.0560
 3642SOL    HW112059   7.206   8.975   1.769 -0.4801  0.0571 -0.1305
 3642SOL    HW212060   7.231   9.055   1.643  0.1512  2.3743  1.4026
 3643SOL     OW12061   0.087   0.644   2.193 -0.5657  0.6362 -0.1481
 3643SOL    HW112062   0.015   0.641   2.129  0.7575  0.7850 -1.7244
 3643SOL    HW212063   0.109   0.552   2.208  0.5079  0.6333 -1.5925
 3644SOL     OW12064   5.194   1.702   3.767 -0.2565 -0.0478 -0.3334
 3644SOL    HW112065   5.229   1.697   3.678  0.3811 -0.9927 -0.0487
 3644SOL    HW212066   5.121   1.763   3.761  0.8823  1.2974 -1.1417
 3645SOL     OW12067   7.500   9.042   0.955 -0.1338 -0.3678  0.0283
 3645SOL    HW112068   7.449   8.990   0.892  0.2476 -0.8846  0.1388
 3645SOL    HW212069   7.560   9.092   0.901  1.3056 -2.0048  0.0279
 3646SOL     OW12070   4.043   2.954   8.640 -0.4007  0.4292 -0.4280
 3646SOL    HW112071   4.028   2.900   8.717  2.0340 -1.4031 -1.1018
 3646SOL    HW212072   4.124   3.001   8.659  0.8599 -0.8978 -2.2035
 3647SOL     OW12073   3.326   1.115   7.922 -0.5215 -0.4151 -0.0766
 3647SOL    HW112074   3.420   1.096   7.914 -0.4971 -0.4694  0.3026
 3647SOL    HW212075   3.285   1.066   7.851 -0.4071 -1.5026  0.5854
 3648SOL     OW12076   6.516   8.838   8.427  0.1203  0.4027 -0.5289
 3648SOL    HW112077   6.467   8.782   8.486 -1.6813  0.8881 -1.4778
 3648SOL    HW212078   6.452   8.865   8.361  1.8383  0.5592 -2.2213
 3649SOL     OW12079   0.227   4.710   1.335 -0.3455  0.4064 -0.2440
 3649SOL    HW112080   0.167   4.776   1.301 -1.9214  0.0350  1.6035
 3649SOL    HW212081   0.184   4.627   1.316  1.2646 -0.1036 -1.9003
 3650SOL     OW12082   6.955   3.999   7.927  0.5414 -0.2129  0.1936
 3650SOL    HW112083   6.880   4.044   7.966  0.7768 -1.7600  2.6534
 3650SOL    HW212084   6.921   3.913   7.903  0.9362 -0.0169 -1.1179
 3651SOL     OW12085   0.217   1.709   6.682 -0.3287 -0.6359 -0.0053
 3651SOL    HW112086   0.308   1.718   6.652  0.0150  2.5979  1.5993
 3651SOL    HW212087   0.225   1.690   6.776 -1.1978  1.6463  0.5908
 3652SOL     OW12088   3.268   4.655   0.774 -0.3263  0.3286 -0.2218
 3652SOL    HW112089   3.237   4.593   0.839 -1.7583  0.7827 -0.4405
 3652SOL    HW212090   3.363   4.652   0.782 -0.0247 -4.1577 -2.2747
 3653SOL     OW12091   2.098   3.240   6.062  0.3490  0.1500  0.3586
 3653SOL    HW112092   2.127   3.247   6.152 -0.6637  0.0460  0.7056
 3653SOL    HW212093   2.007   3.210   6.068  0.5286 -0.6776 -0.7157
 3654SOL     OW12094   1.030   6.866   5.643 -0.7692 -0.1664 -0.2962
 3654SOL    HW112095   1.092   6.939   5.646 -1.3784  0.3384 -0.0055
 3654SOL    HW212096   1.010   6.847   5.734 -0.4526 -0.8430 -0.3585
 3655SOL     OW12097   0.609   8.564   5.803 -0.0575  0.0092 -0.6540
 3655SOL    HW112098   0.690   8.613   5.812 -0.3762  0.7687 -1.7347
 3655SOL    HW212099   0.568   8.570   5.890  1.1687 -0.6621 -0.0106
 3656SOL     OW12100   6.517   2.779   3.462  0.1461  0.1667  0.0306
 3656SOL    HW112101   6.492   2.690   3.487  0.8289 -0.0999 -0.2235
 3656SOL    HW212102   6.529   2.774   3.367 -2.6706  1.2206 -0.4799
 3657SOL     OW12103   9.031   8.486   0.048 -0.1390  0.4407  0.1749
 3657SOL    HW112104   8.999   8.495  -0.042 -0.6826 -0.9904  0.1871
 3657SOL    HW212105   9.125   8.472   0.039 -0.3759 -1.0681 -0.3093
 3658SOL     OW12106   4.800   2.812   5.558 -0.1460  0.0233 -0.1996
 3658SOL    HW112107   4.871   2.869   5.530 -0.3151 -0.2361 -1.1934
 3658SOL    HW212108   4.799   2.742   5.493 -0.3374 -0.7889  0.6533
 3659SOL     OW12109   5.528   6.441   3.755 -0.4227  0.0326 -0.2035
 3659SOL    HW112110   5.580   6.362   3.770  0.7499  0.9367  0.6284
 3659SOL    HW212111   5.568   6.483   3.678  1.2510  1.6200  1.4496
 3660SOL     OW12112   3.187   1.493   6.589 -0.3324  0.2911  0.7059
 3660SOL    HW112113   3.123   1.530   6.650 -0.0220  1.2509  0.4762
 3660SOL    HW212114   3.271   1.504   6.633 -0.0400  1.5306 -0.1192
 3661SOL     OW12115   8.900   1.838   7.472 -0.0593  1.0232 -0.1169
 3661SOL    HW112116   8.927   1.871   7.558 -0.7847  0.3852  0.3672
 3661SOL    HW212117   8.899   1.916   7.416 -0.3067  1.5779  0.6358
 3662SOL     OW12118   5.807   6.610   6.697  0.2316 -0.4246 -0.3888
 3662SOL    HW112119   5.828   6.626   6.789  1.7667  0.4351 -0.8496
 3662SOL    HW212120   5.712   6.604   6.694  0.1333  0.0479  1.1733
 3663SOL     OW12121   3.620   5.627   7.011  0.2758 -0.4092  0.0882
 3663SOL    HW112122   3.585   5.643   6.923 -0.4332  0.9709  0.5857
 3663SOL    HW212123   3.543   5.619   7.067  0.6560  1.9099  1.0774
 3664SOL     OW12124   6.495   1.793   8.824  0.3242 -0.3502 -0.3159
 3664SOL    HW112125   6.576   1.754   8.791  0.0931 -1.0551 -0.0577
 3664SOL    HW212126   6.524   1.855   8.892  0.5895 -1.4979  0.6465
 3665SOL     OW12127   8.763   4.977   3.907  0.5712 -0.2942  0.6465
 3665SOL    HW112128   8.732   5.055   3.860 -1.4751 -1.4435 -0.0476
 3665SOL    HW212129   8.683   4.934   3.937  1.5627 -2.7012  0.0671
 3666SOL     OW12130   2.636   6.304   5.963  0.0203  0.3767 -0.7299
 3666SOL    HW112131   2.710   6.364   5.971 -0.1153  0.5526 -0.7888
 3666SOL    HW212132   2.563   6.359   5.937 -1.0995  0.8892  2.9233
 3667SOL     OW12133   5.977   0.504   8.538 -0.3015 -0.1706  0.1367
 3667SOL    HW112134   6.004   0.570   8.601 -1.9656  0.8363 -0.1185
 3667SOL    HW212135   6.021   0.424   8.565  0.6381  0.7156  1.3150
 3668SOL     OW12136   8.829   0.923   2.329  0.8033  0.3509 -0.5860
 3668SOL    HW112137   8.916   0.891   2.350  0.8876  1.6173  1.2104
 3668SOL    HW212138   8.772   0.846   2.338  1.2492  0.2387  1.8984
 3669SOL     OW12139   8.783   4.778   3.425 -0.7905 -0.3914 -0.1575
 3669SOL    HW112140   8.816   4.695   3.458 -1.0114 -0.2702  0.3776
 3669SOL    HW212141   8.692   4.783   3.456 -0.4208  0.5882  0.8643
 3670SOL     OW12142   1.923   2.524   7.187  0.7673 -0.2698 -0.1159
 3670SOL    HW112143   1.930   2.479   7.102  1.6019 -0.4145  0.0244
 3670SOL    HW212144   1.879   2.461   7.244  1.3060 -0.6530 -0.1129
 3671SOL     OW12145   5.415   7.277   8.781  0.0852 -0.2474 -0.7357
 3671SOL    HW112146   5.433   7.184   8.776  0.3828 -0.2210 -0.2304
 3671SOL    HW212147   5.492   7.314   8.824 -0.6156  0.0442  0.3095
 3672SOL     OW12148   5.664   6.864   7.197  0.1660 -0.1711  0.1602
 3672SOL    HW112149   5.729   6.824   7.255 -0.1899 -1.3707 -0.2344
 3672SOL    HW212150   5.603   6.907   7.256  0.8856  0.3069  0.5704
 3673SOL     OW12151   2.331   3.554   5.051  0.0693 -0.7076 -0.6729
 3673SOL    HW112152   2.257   3.531   4.995 -0.7167 -1.0308  0.4616
 3673SOL    HW212153   2.298   3.543   5.141  0.3571  2.5741 -0.0441
 3674SOL     OW12154   3.978   4.742   4.028 -0.4937 -0.2501 -1.0820
 3674SOL    HW112155   3.988   4.812   4.092  0.2923 -0.1601 -1.2841
 3674SOL    HW212156   4.062   4.741   3.981 -0.3941 -1.4857 -0.9140
 3675SOL     OW12157   4.103   5.384   5.783  0.5851 -0.2564  0.1569
 3675SOL    HW112158   4.045   5.373   5.859  0.6539  4.2568  1.1817
 3675SOL    HW212159   4.191   5.370   5.818  0.4570 -1.5749 -0.0071
 3676SOL     OW12160   6.991   5.903   1.101  0.3118 -0.0161  0.1921
 3676SOL    HW112161   6.938   5.828   1.076 -0.6370  0.0114  1.9797
 3676SOL    HW212162   6.933   5.958   1.154  1.7411  0.6545  1.1633
 3677SOL     OW12163   6.909   1.008   2.263  0.2111  0.1192  0.0059
 3677SOL    HW112164   6.884   1.017   2.355  0.2804 -1.4945  0.2080
 3677SOL    HW212165   7.002   1.030   2.261  0.0871  0.6879  0.2140
 3678SOL     OW12166   8.265   3.861   0.894  0.8408  0.2398 -0.2193
 3678SOL    HW112167   8.341   3.912   0.921  1.2866 -0.9852  0.9422
 3678SOL    HW212168   8.217   3.844   0.976 -0.2810  0.3360 -0.8304
 3679SOL     OW12169   8.977   7.268   8.706 -0.1940  0.2190  0.2213
 3679SOL    HW112170   9.031   7.306   8.775  0.1709 -0.3295  0.2509
 3679SOL    HW212171   8.997   7.319   8.628  0.7991 -0.3122  0.1024
 3680SOL     OW12172   0.219   3.579   5.603 -0.3154  0.1741 -0.1315
 3680SOL    HW112173   0.166   3.652   5.636 -1.4744 -0.6015 -0.2301
 3680SOL    HW212174   0.255   3.538   5.681  1.2256  1.4700 -0.1197
 3681SOL     OW12175   5.981   2.131   2.604 -0.1455  0.3301 -0.2205
 3681SOL    HW112176   6.009   2.169   2.521  1.7361 -0.7666 -0.1477
 3681SOL    HW212177   6.025   2.046   2.608  0.2967  0.5968  2.1506
 3682SOL     OW12178   5.026   6.203   3.302 -0.4691  0.1939  0.1107
 3682SOL    HW112179   4.964   6.272   3.324  0.0587  1.0735 -1.0316
 3682SOL    HW212180   4.993   6.168   3.219 -1.5121 -1.9164  1.3377
 3683SOL     OW12181   1.699   5.799   0.391 -0.3590  0.4686  0.2943
 3683SOL    HW112182   1.643   5.721   0.389  1.2420 -0.8695  2.6136
 3683SOL    HW212183   1.786   5.767   0.367 -0.1128  2.1366 -1.3527
 3684SOL     OW12184   0.075   4.458   7.433 -0.2880 -0.2615  0.2736
 3684SOL    HW112185   0.081   4.392   7.502 -1.2498  0.0980  0.7249
 3684SOL    HW212186  -0.008   4.439   7.389 -1.2865  1.4557  1.2976
 3685SOL     OW12187   1.478   4.706   2.780  0.3647  0.4709  0.2113
 3685SOL    HW112188   1.411   4.665   2.725  0.0050 -2.4071  2.5359
 3685SOL    HW212189   1.560   4.684   2.736 -0.0171  2.5372 -1.7250
 3686SOL     OW12190   1.079   5.658   9.055  0.0190  0.2720 -0.0121
 3686SOL    HW112191   0.991   5.645   9.091 -1.0592  0.1814 -2.4541
 3686SOL    HW212192   1.064   5.681   8.963  2.5677  0.1596 -0.5319
 3687SOL     OW12193   1.795   2.898   7.283 -0.0746  0.1751 -0.2594
 3687SOL    HW112194   1.854   2.869   7.212 -0.9245  0.0499 -0.9334
 3687SOL    HW212195   1.820   2.844   7.358  0.3441 -0.2232 -0.6788
 3688SOL     OW12196   4.390   6.003   5.429 -0.1626 -1.0741  0.1657
 3688SOL    HW112197   4.439   6.085   5.422 -0.3109 -0.9340  0.7256
 3688SOL    HW212198   4.300   6.028   5.407 -0.0397 -1.2769 -0.5906
 3689SOL     OW12199   3.898   8.536   4.545 -0.2478 -0.0634  0.0646
 3689SOL    HW112200   3.919   8.608   4.486 -1.7635 -1.2502 -2.0651
 3689SOL    HW212201   3.805   8.546   4.565 -0.8481 -2.0980 -1.3817
 3690SOL     OW12202   4.182   4.894   6.808 -0.1025  0.2985  0.1337
 3690SOL    HW112203   4.094   4.886   6.769  0.2784  1.0744 -0.9404
 3690SOL    HW212204   4.169   4.952   6.883 -0.2005  2.2326 -1.2878
 3691SOL     OW12205   5.588   7.178   5.113  0.4565  0.3381  0.0760
 3691SOL    HW112206   5.649   7.147   5.179  0.2352 -1.3611 -0.4602
 3691SOL    HW212207   5.614   7.268   5.097  0.2170  0.9834  2.7906
 3692SOL     OW12208   7.368   2.508   0.450  1.0522  0.0353 -0.2379
 3692SOL    HW112209   7.321   2.432   0.483  0.1993  0.1482 -1.1565
 3692SOL    HW212210   7.455   2.501   0.489  0.8372 -1.1423  0.0658
 3693SOL     OW12211   7.183   2.114   0.996 -0.3953  0.7442 -0.5679
 3693SOL    HW112212   7.112   2.174   1.020 -1.6867 -1.0866  0.4324
 3693SOL    HW212213   7.255   2.138   1.054 -0.8825  1.3274 -0.1925
 3694SOL     OW12214   7.724   6.429   0.045 -0.1919  0.4847  0.6826
 3694SOL    HW112215   7.745   6.439   0.138 -0.7309 -1.8172  1.1289
 3694SOL    HW212216   7.727   6.518   0.010  0.3213  1.3893  2.8251
 3695SOL     OW12217   3.283   5.506   2.048 -0.2116  0.1731  0.0054
 3695SOL    HW112218   3.211   5.557   2.011 -0.9932  0.7097  2.1159
 3695SOL    HW212219   3.291   5.538   2.138  0.9414 -1.7131  0.6306
 3696SOL     OW12220   7.009   7.144   6.200  0.2823  0.3198 -0.3780
 3696SOL    HW112221   6.999   7.189   6.116 -1.8603  1.8551  0.5977
 3696SOL    HW212222   7.103   7.127   6.207  0.4992 -0.1471 -3.1842
 3697SOL     OW12223   2.107   5.413   6.061  0.0058 -0.0666 -0.2587
 3697SOL    HW112224   2.091   5.498   6.102  0.6354  0.0401 -0.2234
 3697SOL    HW212225   2.159   5.433   5.983 -0.1095 -0.3881 -0.4191
 3698SOL     OW12226   2.735   5.920   0.327 -0.0806 -0.2811  0.0302
 3698SOL    HW112227   2.720   5.925   0.421 -0.1464  0.4998 -0.0166
 3698SOL    HW212228   2.763   6.008   0.302  0.4429 -0.6149 -0.5977
 3699SOL     OW12229   6.356   1.172   6.725 -0.4711 -0.0921  0.5338
 3699SOL    HW112230   6.286   1.121   6.765  0.8280 -1.1960  1.4430
 3699SOL    HW212231   6.395   1.113   6.661  1.0578 -0.2979  1.6113
 3700SOL     OW12232   1.113   2.234   1.602  0.0324  0.0674 -0.2782
 3700SOL    HW112233   1.157   2.318   1.589 -0.2151  0.6108  2.0129
 3700SOL    HW212234   1.178   2.169   1.574  0.2716  0.9804 -1.9617
 3701SOL     OW12235   3.827   6.126   3.595  0.5078 -0.1388 -0.4700
 3701SOL    HW112236   3.795   6.157   3.511  0.3795 -0.4969 -0.5563
 3701SOL    HW212237   3.779   6.044   3.611  0.9012 -0.3405 -0.2956
 3702SOL     OW12238   3.279   8.971   1.709 -0.5780  0.5790 -0.3261
 3702SOL    HW112239   3.276   8.883   1.670 -2.1597  0.3308  0.2748
 3702SOL    HW212240   3.356   8.969   1.766 -0.8939 -0.6171  0.0976
 3703SOL     OW12241   2.914   1.829   0.545 -0.1403 -0.2345  0.3995
 3703SOL    HW112242   2.917   1.794   0.456 -0.6661 -0.9161  0.6488
 3703SOL    HW212243   3.006   1.846   0.566 -0.0427  0.3190 -0.4165
 3704SOL     OW12244   4.242   8.261   7.732  0.6554 -0.1884  0.3463
 3704SOL    HW112245   4.269   8.171   7.748  0.8067 -0.4228 -1.0819
 3704SOL    HW212246   4.250   8.272   7.637  1.7173  1.6662  0.5925
 3705SOL     OW12247   1.727   3.084   3.180 -0.2380 -0.1795  0.1512
 3705SOL    HW112248   1.815   3.062   3.211 -0.8709 -1.9500  0.8346
 3705SOL    HW212249   1.741   3.146   3.109  1.5580 -0.3303  0.3397
 3706SOL     OW12250   4.656   5.549   7.285 -0.1529  0.0511 -0.2171
 3706SOL    HW112251   4.665   5.538   7.380 -0.2407  1.1378 -0.0726
 3706SOL    HW212252   4.742   5.525   7.250 -0.2011 -0.6160  0.1110
 3707SOL     OW12253   6.640   8.719   8.820  0.3213  0.3140 -0.0514
 3707SOL    HW112254   6.707   8.672   8.870  0.0564 -0.2336 -0.1999
 3707SOL    HW212255   6.662   8.702   8.729  0.6741  1.1282 -0.1260
 3708SOL     OW12256   7.755   3.647   1.422  0.7667  0.3446  0.7845
 3708SOL    HW112257   7.794   3.611   1.501 -0.7614 -3.9975 -0.2064
 3708SOL    HW212258   7.675   3.690   1.452  0.5716 -0.6121  1.6551
 3709SOL     OW12259   3.650   1.262   0.127  0.2895  0.0559 -0.7753
 3709SOL    HW112260   3.637   1.245   0.220  0.0113  0.5565 -0.7201
 3709SOL    HW212261   3.626   1.354   0.115 -0.5123 -0.2227 -1.4873
 3710SOL     OW12262   7.866   2.421   1.739 -0.2494  0.2414  0.1691
 3710SOL    HW112263   7.925   2.348   1.756 -0.6183 -0.6308 -2.0105
 3710SOL    HW212264   7.920   2.499   1.754  0.1818 -0.4127  2.3971
 3711SOL     OW12265   5.712   8.801   7.194  0.0459 -0.0743 -0.2538
 3711SOL    HW112266   5.674   8.716   7.214  0.8614 -0.0810  1.4309
 3711SOL    HW212267   5.797   8.801   7.238 -0.8028  2.3540  1.6797
 3712SOL     OW12268   1.673   5.055   1.087  0.4104  0.3136  0.2219
 3712SOL    HW112269   1.742   5.057   1.021  0.8350 -0.1341  0.6449
 3712SOL    HW212270   1.711   5.007   1.161 -0.4211 -0.1254  0.3818
 3713SOL     OW12271   5.291   6.802   6.653 -0.1564  0.0109 -0.9012
 3713SOL    HW112272   5.231   6.846   6.592 -0.3064  0.3062 -0.5400
 3713SOL    HW212273   5.336   6.873   6.698 -0.5575 -0.1966 -0.1598
 3714SOL     OW12274   3.891   0.241   4.104  0.2977  0.7850  0.5110
 3714SOL    HW112275   3.920   0.218   4.016 -1.5859 -0.4691  0.1703
 3714SOL    HW212276   3.958   0.205   4.162  1.1657  0.9597 -0.3697
 3715SOL     OW12277   7.466   4.654   5.001  0.4452  0.3390  0.2225
 3715SOL    HW112278   7.445   4.642   5.094 -0.9935  0.4865 -0.0634
 3715SOL    HW212279   7.398   4.713   4.968  0.3711 -0.4691 -1.1419
 3716SOL     OW12280   6.152   0.317   6.097  0.1395 -0.0701  0.0024
 3716SOL    HW112281   6.184   0.307   6.007 -1.1085  1.4193 -0.6583
 3716SOL    HW212282   6.230   0.311   6.151  0.7953 -2.0850 -1.0556
 3717SOL     OW12283   4.088   3.950   0.065  0.1271 -0.1526  0.4273
 3717SOL    HW112284   4.155   3.994   0.118 -1.0858 -0.1784  2.0440
 3717SOL    HW212285   4.057   4.018   0.005 -0.3372  0.6482  1.5540
 3718SOL     OW12286   5.592   2.214   3.087  0.6345  0.1104  0.7738
 3718SOL    HW112287   5.635   2.140   3.130  0.2543  0.3551  1.5791
 3718SOL    HW212288   5.647   2.289   3.108  2.0076 -0.1669 -1.4792
 3719SOL     OW12289   2.027   1.628   0.314 -0.3449  0.5477 -0.0168
 3719SOL    HW112290   2.021   1.581   0.397  0.2668 -0.2009 -0.3847
 3719SOL    HW212291   2.091   1.698   0.330 -0.8751  0.9513  0.3827
 3720SOL     OW12292   2.247   5.796   0.392  0.9616 -0.4371  0.4980
 3720SOL    HW112293   2.245   5.802   0.487 -1.0738 -1.0432  0.5417
 3720SOL    HW212294   2.165   5.754   0.369  0.8696  0.7614 -1.6144
 3721SOL     OW12295   4.183   6.423   4.755  0.5239 -0.0762 -0.2071
 3721SOL    HW112296   4.103   6.441   4.805  1.0729  0.0497  0.6244
 3721SOL    HW212297   4.184   6.492   4.688 -0.3426 -0.4000 -0.5686
 3722SOL     OW12298   2.564   7.528   7.025 -0.0704 -0.4059 -0.1697
 3722SOL    HW112299   2.578   7.561   6.936 -1.1009 -0.0647 -0.2139
 3722SOL    HW212300   2.482   7.479   7.020 -0.1429 -0.3722  0.6040
 3723SOL     OW12301   5.723   7.210   6.280 -0.1330  0.8750  0.3771
 3723SOL    HW112302   5.773   7.131   6.302 -0.8767 -0.1886 -1.5399
 3723SOL    HW212303   5.790   7.277   6.266  0.7685 -0.2765 -1.1893
 3724SOL     OW12304   0.980   4.464   6.124 -0.0826  0.1061  0.1564
 3724SOL    HW112305   0.933   4.397   6.075  0.1469 -1.1138  1.5311
 3724SOL    HW212306   1.068   4.465   6.086  0.5571 -1.9039  1.4382
 3725SOL     OW12307   3.950   2.144   3.966  0.5686 -0.2716 -0.1168
 3725SOL    HW112308   3.909   2.124   3.882  0.6424 -0.1156 -0.1905
 3725SOL    HW212309   3.989   2.061   3.993  0.1004 -0.4498  0.0149
 3726SOL     OW12310   8.203   3.249   2.769  0.1779  0.2159 -0.3633
 3726SOL    HW112311   8.270   3.216   2.709 -0.3955  2.1595 -2.2068
 3726SOL    HW212312   8.211   3.194   2.847  2.7682 -0.6866 -1.1690
 3727SOL     OW12313   8.405   6.012   6.234  0.2050  0.3710 -0.0240
 3727SOL    HW112314   8.351   6.089   6.220 -0.0186  0.2702  0.2601
 3727SOL    HW212315   8.397   5.994   6.328  0.7251  0.3512  0.0202
 3728SOL     OW12316   8.937   4.314   4.168 -0.3720 -0.4117  0.0433
 3728SOL    HW112317   9.031   4.302   4.154 -0.0258  0.0269  1.7503
 3728SOL    HW212318   8.908   4.233   4.211 -0.6056 -0.2151  0.2599
 3729SOL     OW12319   7.104   0.930   1.253 -0.0714 -0.2200 -0.4425
 3729SOL    HW112320   7.096   0.994   1.182 -3.9807  1.0853  0.9493
 3729SOL    HW212321   7.052   0.855   1.224 -0.8923 -0.0760  0.6144
 3730SOL     OW12322   6.922   6.788   7.593 -0.2403  0.3605 -0.3660
 3730SOL    HW112323   6.980   6.835   7.653 -0.1511  0.6343 -0.6667
 3730SOL    HW212324   6.842   6.841   7.589 -1.2778 -0.9426  1.4959
 3731SOL     OW12325   5.817   2.013   5.956  0.5393  0.3428 -0.1144
 3731SOL    HW112326   5.746   1.964   5.914 -0.4352  1.3543  0.2969
 3731SOL    HW212327   5.896   1.964   5.933 -0.1921 -0.3718 -1.2639
 3732SOL     OW12328   6.518   3.815   2.006 -0.6753  0.3300  0.0180
 3732SOL    HW112329   6.571   3.826   2.086 -1.4056 -0.7709  0.6799
 3732SOL    HW212330   6.434   3.781   2.038 -1.4257  1.0702 -1.1125
 3733SOL     OW12331   7.440   6.501   0.376  0.5014 -0.2986 -0.4688
 3733SOL    HW112332   7.528   6.466   0.358 -0.2945 -1.7490 -1.7475
 3733SOL    HW212333   7.456   6.592   0.402  2.3039 -0.0774 -2.0836
 3734SOL     OW12334   5.021   6.433   0.539  0.1905 -0.1405 -0.2187
 3734SOL    HW112335   4.955   6.493   0.503 -1.2175  0.1950  2.6292
 3734SOL    HW212336   5.044   6.471   0.624  0.3983 -2.7852  1.0158
 3735SOL     OW12337   7.444   0.135   4.259  0.6712 -0.3683 -0.2240
 3735SOL    HW112338   7.409   0.131   4.348  0.1916 -0.1685 -0.3952
 3735SOL    HW212339   7.366   0.146   4.204  0.6768 -3.0461 -0.9069
 3736SOL     OW12340   8.796   8.521   8.065 -0.4080 -0.2661 -0.1318
 3736SOL    HW112341   8.763   8.433   8.045 -0.3958 -0.2403 -0.2673
 3736SOL    HW212342   8.890   8.515   8.052 -0.3014 -0.4474  0.6363
 3737SOL     OW12343   6.481   5.282   4.180 -0.5625 -0.1651 -0.5547
 3737SOL    HW112344   6.470   5.201   4.130 -1.3044 -0.9002  0.7688
 3737SOL    HW212345   6.576   5.289   4.193 -0.5579 -1.3493  0.1623
 3738SOL     OW12346   0.722   1.052   8.593 -0.1363  0.4382  0.1480
 3738SOL    HW112347   0.788   0.999   8.637 -1.0949  0.1496  1.2957
 3738SOL    HW212348   0.643   0.998   8.594 -0.9075  1.5223  0.5803
 3739SOL     OW12349   1.617   0.600   4.221  0.2655  0.5579 -0.0290
 3739SOL    HW112350   1.712   0.588   4.211  0.1436  0.7764 -1.8452
 3739SOL    HW212351   1.603   0.692   4.200 -0.3672  0.5098  0.1751
 3740SOL     OW12352   0.702   2.999   8.603  0.2303 -0.4693 -0.0655
 3740SOL    HW112353   0.620   3.048   8.601  0.0481 -0.7816 -0.2715
 3740SOL    HW212354   0.690   2.928   8.539  0.6069 -0.5993  0.0027
 3741SOL     OW12355   2.628   2.796   5.856 -0.2113  1.0428  0.0183
 3741SOL    HW112356   2.606   2.860   5.925  1.6217 -0.0989  1.7806
 3741SOL    HW212357   2.715   2.765   5.880 -1.9957 -4.2265  1.0258
 3742SOL     OW12358   6.685   6.003   5.797 -0.2467  0.2294 -0.2959
 3742SOL    HW112359   6.709   6.055   5.874  0.4997  0.5625 -0.7435
 3742SOL    HW212360   6.593   5.982   5.810 -0.3137  0.8876  0.3401
 3743SOL     OW12361   1.580   1.108   8.382  0.0256  0.1048  0.1637
 3743SOL    HW112362   1.526   1.139   8.309 -0.1946  0.6360  0.5481
 3743SOL    HW212363   1.645   1.177   8.395  0.7845 -0.5067 -0.2601
 3744SOL     OW12364   4.150   8.891   6.052  0.2233 -0.1050  0.2506
 3744SOL    HW112365   4.164   8.809   6.004  0.1912 -0.1405  0.3030
 3744SOL    HW212366   4.076   8.873   6.109 -0.5899  0.3488 -0.6375
 3745SOL     OW12367   0.446   5.452   2.816  0.0238  0.9513  0.1202
 3745SOL    HW112368   0.498   5.372   2.817  1.9711  2.1729  0.4171
 3745SOL    HW212369   0.454   5.487   2.905  0.1807  2.0856 -0.3294
 3746SOL     OW12370   2.333   7.248   1.578 -0.1226  0.5429 -0.2380
 3746SOL    HW112371   2.357   7.161   1.610 -0.2495 -0.2124 -2.0361
 3746SOL    HW212372   2.240   7.258   1.601  0.1999  0.7388  1.0385
 3747SOL     OW12373   9.049   2.236   5.959  0.2360  0.2477 -0.4962
 3747SOL    HW112374   9.138   2.259   5.931 -0.0742  1.5411 -0.5069
 3747SOL    HW212375   9.040   2.281   6.043  0.3763 -1.7527  0.6436
 3748SOL     OW12376   7.689   3.712   0.995 -0.6943  0.1699  0.0584
 3748SOL    HW112377   7.732   3.640   1.042  0.5867 -1.3583 -3.1112
 3748SOL    HW212378   7.756   3.780   0.989  0.3579 -0.9571 -2.1875
 3749SOL     OW12379   3.004   6.992   7.167 -0.2077 -0.1989 -0.2708
 3749SOL    HW112380   2.981   7.038   7.086 -0.3330 -1.7074 -1.1379
 3749SOL    HW212381   2.922   6.990   7.217 -0.7262 -1.1217 -1.0980
 3750SOL     OW12382   4.122   5.436   6.227  0.2948 -0.1457  0.2691
 3750SOL    HW112383   4.119   5.530   6.209  0.5811  0.1266  1.5828
 3750SOL    HW212384   4.210   5.420   6.260  0.3518 -0.9443 -0.2297
 3751SOL     OW12385   8.548   9.049   5.400  0.5512  0.4948 -0.3587
 3751SOL    HW112386   8.479   9.001   5.354  0.5858  0.6477 -0.5718
 3751SOL    HW212387   8.558   9.130   5.350  0.7940  0.5308 -0.2516
 3752SOL     OW12388   8.390   7.365   8.081  0.4256  0.3774 -0.2333
 3752SOL    HW112389   8.436   7.411   8.152 -0.9640 -1.2762  1.8462
 3752SOL    HW212390   8.460   7.335   8.023  1.9758 -0.8974  2.1106
 3753SOL     OW12391   0.188   4.087   0.993 -0.4455 -0.2014 -0.0419
 3753SOL    HW112392   0.128   4.122   0.927 -0.8295 -0.7795 -0.0125
 3753SOL    HW212393   0.138   4.017   1.035  0.1284 -0.4556  0.2243
 3754SOL     OW12394   7.750   7.096   5.489 -0.5196 -0.5501 -0.5941
 3754SOL    HW112395   7.806   7.156   5.439 -1.7884 -0.8653 -2.5240
 3754SOL    HW212396   7.680   7.152   5.523 -0.6166 -0.6151 -0.6866
 3755SOL     OW12397   1.799   3.605   5.951 -0.3194  0.1184  0.3677
 3755SOL    HW112398   1.868   3.560   5.999 -1.5500 -1.1609  0.9953
 3755SOL    HW212399   1.844   3.676   5.906  1.2569 -0.1388  1.4605
 3756SOL     OW12400   0.946   6.290   8.454 -0.0608 -0.3572  0.2308
 3756SOL    HW112401   1.032   6.321   8.482 -0.1251 -1.3134  1.6342
 3756SOL    HW212402   0.921   6.348   8.382  2.0761 -0.5210 -0.7305
 3757SOL     OW12403   0.860   6.333   5.015  0.0804 -0.0967 -0.8553
 3757SOL    HW112404   0.821   6.378   5.089  0.8993 -0.7695  0.0146
 3757SOL    HW212405   0.794   6.337   4.946 -0.5305  0.9013 -0.2293
 3758SOL     OW12406   4.545   4.514   0.011  0.2158 -0.1152  0.8468
 3758SOL    HW112407   4.627   4.470  -0.013 -0.4310 -0.5804 -0.5305
 3758SOL    HW212408   4.574   4.589   0.064  1.8160  1.5288 -2.1035
 3759SOL     OW12409   1.342   6.376   4.038  0.5194  0.0333 -0.3967
 3759SOL    HW112410   1.348   6.282   4.053 -0.3092  0.0273 -0.0571
 3759SOL    HW212411   1.248   6.393   4.027  0.7125  0.7202 -1.1389
 3760SOL     OW12412   2.016   0.036   4.403 -0.3140 -0.4532 -0.0645
 3760SOL    HW112413   2.029   0.123   4.441  1.7446 -0.7658  0.1146
 3760SOL    HW212414   2.084   0.029   4.335 -1.3076 -1.4316 -0.9992
 3761SOL     OW12415   4.119   0.351   0.385 -0.0328  0.3457 -0.4973
 3761SOL    HW112416   4.151   0.371   0.473  1.8895 -0.7995 -0.8657
 3761SOL    HW212417   4.170   0.408   0.327  0.0661 -0.2179 -0.9837
 3762SOL     OW12418   3.750   2.765   0.673 -0.0537  0.3178 -0.4544
 3762SOL    HW112419   3.691   2.736   0.603 -1.9898 -0.8081  1.5145
 3762SOL    HW212420   3.790   2.685   0.706  0.3271  0.7473  0.1517
 3763SOL     OW12421   4.269   3.556   0.880 -0.1663 -0.2824  0.4668
 3763SOL    HW112422   4.190   3.583   0.926 -0.6025 -0.0270 -0.3936
 3763SOL    HW212423   4.329   3.527   0.948 -2.7561 -5.4263  1.0281
 3764SOL     OW12424   0.075   7.848   8.734 -0.0095  0.7132  0.8350
 3764SOL    HW112425  -0.014   7.838   8.701  0.6898 -0.9048 -0.6968
 3764SOL    HW212426   0.131   7.837   8.657  1.5746  0.2149  2.0077
 3765SOL     OW12427   2.767   2.261   6.847  0.4804  0.2406  0.6285
 3765SOL    HW112428   2.741   2.281   6.757  0.0927  0.6552  0.8295
 3765SOL    HW212429   2.718   2.323   6.900 -1.5888 -1.8992  1.3747
 3766SOL     OW12430   2.536   1.399   4.491  0.7817 -0.2466  0.1502
 3766SOL    HW112431   2.574   1.456   4.558 -0.9391  1.1497  0.0245
 3766SOL    HW212432   2.487   1.333   4.540 -0.9378  1.1002  0.3566
 3767SOL     OW12433   4.778   8.395   4.559 -0.5315  0.6032  0.0529
 3767SOL    HW112434   4.702   8.337   4.552  0.2481 -0.4661  0.1450
 3767SOL    HW212435   4.797   8.398   4.652  0.9252 -1.0645 -0.1184
 3768SOL     OW12436   7.725   4.917   7.982  0.7676 -0.4312  0.5753
 3768SOL    HW112437   7.713   5.007   7.952  0.4074 -0.8475 -0.5906
 3768SOL    HW212438   7.696   4.918   8.073  2.3215  0.9775  1.1069
 3769SOL     OW12439   6.199   5.317   8.863 -0.4866  0.0769  0.0229
 3769SOL    HW112440   6.213   5.335   8.956 -0.5618 -0.3158  0.1103
 3769SOL    HW212441   6.285   5.287   8.831 -0.7902 -1.1074  0.2777
 3770SOL     OW12442   4.149   4.176   0.956  0.5118 -0.0245 -0.4412
 3770SOL    HW112443   4.183   4.215   0.875 -1.3401 -0.1675 -1.3581
 3770SOL    HW212444   4.178   4.085   0.953 -1.6302 -0.7421 -2.3257
 3771SOL     OW12445   2.639   8.157   5.490 -0.3239  0.6223  0.1271
 3771SOL    HW112446   2.685   8.241   5.491 -1.1811  1.1395 -1.3339
 3771SOL    HW212447   2.549   8.178   5.512 -1.4175  0.7462 -3.7052
 3772SOL     OW12448   6.627   5.152   3.800  0.0373 -0.0031  0.2844
 3772SOL    HW112449   6.710   5.108   3.783  0.0962 -0.1967  1.0417
 3772SOL    HW212450   6.619   5.153   3.895 -1.1154 -0.5079  0.2063
 3773SOL     OW12451   1.976   1.625   6.586 -0.0380 -0.1005  0.2887
 3773SOL    HW112452   1.992   1.652   6.495 -0.4939 -2.2753 -0.5143
 3773SOL    HW212453   1.893   1.578   6.582 -1.2152  1.6515  2.2960
 3774SOL     OW12454   7.582   2.720   6.113  0.0330 -0.0269 -0.3239
 3774SOL    HW112455   7.609   2.749   6.200  0.8670  1.2969 -0.9974
 3774SOL    HW212456   7.599   2.626   6.113  1.0981  0.1452  0.5573
 3775SOL     OW12457   7.787   8.367   6.661 -0.3376  0.2449  0.1327
 3775SOL    HW112458   7.853   8.311   6.619 -0.4977  1.5440 -1.9532
 3775SOL    HW212459   7.808   8.362   6.754  2.5612  0.3842 -0.4269
 3776SOL     OW12460   0.528   4.206   3.308 -0.1163  0.1813 -0.2590
 3776SOL    HW112461   0.517   4.121   3.351  0.2313  0.5153  0.5100
 3776SOL    HW212462   0.557   4.185   3.220  0.1805 -0.4970 -0.0058
 3777SOL     OW12463   8.538   5.503   3.356  0.1708 -0.0569  0.2352
 3777SOL    HW112464   8.522   5.563   3.429  0.1761  1.1769 -0.7524
 3777SOL    HW212465   8.466   5.439   3.361 -0.5823  0.7934  0.5294
 3778SOL     OW12466   1.188   3.664   2.152  0.4168  0.2860 -0.2008
 3778SOL    HW112467   1.115   3.609   2.181  1.7289 -0.8460  1.1260
 3778SOL    HW212468   1.158   3.703   2.069 -0.5213 -2.5588 -1.3118
 3779SOL     OW12469   0.180   0.448   2.595  0.6286  0.3539  0.3322
 3779SOL    HW112470   0.185   0.393   2.673  2.5776 -0.1666 -0.1017
 3779SOL    HW212471   0.201   0.389   2.523 -1.1464  0.8326 -0.6235
 3780SOL     OW12472   3.640   0.207   3.882  0.2330  0.7861  0.4787
 3780SOL    HW112473   3.656   0.117   3.908 -0.4016  0.5350  0.0264
 3780SOL    HW212474   3.578   0.201   3.809  1.2087  1.5123 -0.4529
 3781SOL     OW12475   8.549   6.749   5.069  0.1433 -0.0041 -0.5106
 3781SOL    HW112476   8.471   6.796   5.098  0.1465  0.0695 -0.6200
 3781SOL    HW212477   8.522   6.657   5.066 -0.2002  0.1123 -1.3917
 3782SOL     OW12478   7.062   0.451   5.246  0.1030 -0.1686 -0.3989
 3782SOL    HW112479   7.035   0.363   5.272  2.7110 -1.1512 -0.7224
 3782SOL    HW212480   7.075   0.446   5.152  3.2212 -0.4127 -0.0576
 3783SOL     OW12481   5.135   3.695   7.893 -0.3956 -0.1571  0.5867
 3783SOL    HW112482   5.210   3.719   7.948  0.3207  1.9426 -1.1432
 3783SOL    HW212483   5.173   3.686   7.805 -2.2809  2.2909 -0.6108
 3784SOL     OW12484   3.351   2.383   8.452  0.3217 -0.5523 -0.4083
 3784SOL    HW112485   3.316   2.442   8.385 -1.2194  0.1072  0.9053
 3784SOL    HW212486   3.437   2.418   8.473 -0.2927  0.8382 -0.1402
 3785SOL     OW12487   7.687   0.704   6.422  0.3365 -0.1895 -0.1916
 3785SOL    HW112488   7.699   0.631   6.361  1.1126  0.5152 -0.8877
 3785SOL    HW212489   7.606   0.747   6.393 -1.4878 -2.1058  1.6331
 3786SOL     OW12490   6.596   3.462   5.087  0.7460 -0.3108 -0.4829
 3786SOL    HW112491   6.557   3.427   5.007 -0.0586 -1.0580  0.2147
 3786SOL    HW212492   6.599   3.388   5.147 -1.9123  0.9396  1.3817
 3787SOL     OW12493   5.623   8.716   6.797  0.3041  0.3060 -0.2232
 3787SOL    HW112494   5.704   8.687   6.754  0.7761  1.6499 -0.2983
 3787SOL    HW212495   5.612   8.655   6.870  0.2979 -1.1048 -1.3530
 3788SOL     OW12496   2.825   3.024   6.431 -0.4117 -0.2336 -0.3357
 3788SOL    HW112497   2.781   3.102   6.464 -0.8915 -0.8160  0.4470
 3788SOL    HW212498   2.814   3.028   6.336 -0.4071  0.6482 -0.3104
 3789SOL     OW12499   4.021   2.161   8.572 -0.0356  0.0573 -0.4896
 3789SOL    HW112500   4.002   2.067   8.579 -0.1492  0.0998 -0.1858
 3789SOL    HW212501   4.116   2.167   8.579 -0.1599  0.1422  1.8599
 3790SOL     OW12502   7.498   3.876   3.722 -0.2828 -0.2448  0.1070
 3790SOL    HW112503   7.469   3.794   3.682  1.1787 -0.5625 -0.3687
 3790SOL    HW212504   7.578   3.899   3.674 -1.5201  2.3584 -0.9016
 3791SOL     OW12505   4.658   4.419   0.595  0.3816 -0.0194 -0.3823
 3791SOL    HW112506   4.600   4.349   0.566 -0.7459  1.0428 -0.7832
 3791SOL    HW212507   4.743   4.398   0.555  0.2148 -1.4168 -0.0539
 3792SOL     OW12508   4.106   3.145   6.773  0.2459  0.2931 -0.0831
 3792SOL    HW112509   4.084   3.237   6.760 -1.7778 -0.1672 -0.2521
 3792SOL    HW212510   4.026   3.107   6.811  0.7044 -1.5767 -0.9168
 3793SOL     OW12511   4.236   0.573   0.244  0.0935 -0.1119  0.1090
 3793SOL    HW112512   4.331   0.570   0.233  0.1571 -1.1377  0.7554
 3793SOL    HW212513   4.201   0.549   0.158  0.3955  0.9264 -0.3166
 3794SOL     OW12514   4.455   8.645   1.792 -0.4761  0.2444  0.0395
 3794SOL    HW112515   4.500   8.569   1.755 -0.1213  0.9059 -0.9497
 3794SOL    HW212516   4.525   8.706   1.813 -0.7864  0.4707  0.4210
 3795SOL     OW12517   8.722   1.676   7.909 -0.3267  0.0772  0.6231
 3795SOL    HW112518   8.645   1.722   7.942 -0.5199 -1.0235  1.7631
 3795SOL    HW212519   8.796   1.719   7.951 -0.0704  2.4431 -1.9552
 3796SOL     OW12520   8.959   0.487   7.737  0.5261 -0.0752 -0.5126
 3796SOL    HW112521   8.970   0.399   7.771  0.1098 -0.1598 -0.5828
 3796SOL    HW212522   8.992   0.544   7.806  1.2540 -0.2989 -0.6707
 3797SOL     OW12523   2.254   4.207   7.374  0.7292  0.3214  0.0971
 3797SOL    HW112524   2.335   4.186   7.420  0.9270 -1.8756 -1.1320
 3797SOL    HW212525   2.273   4.291   7.330  2.0973  0.1915  0.3827
 3798SOL     OW12526   7.683   4.063   7.625 -0.1414 -0.7328  0.3710
 3798SOL    HW112527   7.621   4.006   7.670 -1.5229 -0.2072 -0.7974
 3798SOL    HW212528   7.745   4.089   7.693 -1.1548 -1.3356  1.5710
 3799SOL     OW12529   1.918   2.440   1.613  0.1470 -0.3921  0.4845
 3799SOL    HW112530   1.880   2.505   1.672 -0.2951  0.2105 -0.4369
 3799SOL    HW212531   1.923   2.360   1.665  0.9152  0.4133  1.7268
 3800SOL     OW12532   4.295   7.655   5.888  0.4938 -0.1850 -0.2709
 3800SOL    HW112533   4.228   7.709   5.845  0.5980  0.7674  0.7005
 3800SOL    HW212534   4.377   7.702   5.874  0.6007 -0.1182  0.5211
 3801SOL     OW12535   8.866   5.294   5.112  0.0260 -0.0896 -0.0253
 3801SOL    HW112536   8.904   5.363   5.166 -0.8179  0.1159  0.3262
 3801SOL    HW212537   8.914   5.215   5.136  0.3689  0.2022  0.2578
 3802SOL     OW12538   4.741   7.657   0.605  0.0487 -0.2759  0.4920
 3802SOL    HW112539   4.677   7.587   0.607 -0.6273  0.2993 -0.3686
 3802SOL    HW212540   4.767   7.669   0.697  0.1452 -1.5936  0.6612
 3803SOL     OW12541   7.894   4.290   0.859 -0.1188  0.2492  0.0526
 3803SOL    HW112542   7.957   4.280   0.788 -1.2204  0.7621 -1.0308
 3803SOL    HW212543   7.830   4.221   0.844 -0.6823  0.7352  0.1871
 3804SOL     OW12544   8.706   4.113   1.195  0.1055 -0.0621  0.3058
 3804SOL    HW112545   8.783   4.092   1.247  1.0776  0.2928 -0.9453
 3804SOL    HW212546   8.678   4.198   1.227 -0.5390 -0.7264  1.6087
 3805SOL     OW12547   3.848   5.879   1.671  0.4993  0.2700 -0.6496
 3805SOL    HW112548   3.755   5.883   1.650  0.5306 -0.8151 -1.0590
 3805SOL    HW212549   3.880   5.968   1.657 -0.1997  0.3528 -1.8276
 3806SOL     OW12550   4.606   6.456   3.405 -0.1855 -0.4130 -0.2259
 3806SOL    HW112551   4.586   6.496   3.489 -0.7335  3.7475 -2.1174
 3806SOL    HW212552   4.555   6.375   3.404 -1.5003  0.2569  2.7210
 3807SOL     OW12553   7.697   7.590   2.954 -0.5179  0.1549  0.2228
 3807SOL    HW112554   7.617   7.643   2.945 -0.3534  0.2943 -0.4596
 3807SOL    HW212555   7.768   7.651   2.935 -0.3351 -0.3319 -0.7288
 3808SOL     OW12556   4.527   2.652   7.240  0.2474  0.1228  0.2037
 3808SOL    HW112557   4.507   2.736   7.282  0.0838  0.0987  0.1772
 3808SOL    HW212558   4.447   2.631   7.192  0.2677 -0.0785  0.2601
 3809SOL     OW12559   2.951   2.331   5.959  0.2034 -0.0632  0.1721
 3809SOL    HW112560   3.025   2.380   5.996  1.7185 -2.2248  0.1950
 3809SOL    HW212561   2.927   2.380   5.880  0.8347  1.3450  0.8076
 3810SOL     OW12562   1.177   3.566   1.378 -0.0089  0.0135 -0.2805
 3810SOL    HW112563   1.120   3.572   1.455  0.5885  0.2357  0.1456
 3810SOL    HW212564   1.124   3.604   1.307 -0.5869 -0.2520 -0.0033
 3811SOL     OW12565   7.568   5.070   0.172  0.0633 -0.2140  0.0100
 3811SOL    HW112566   7.660   5.085   0.152  0.4291 -0.4660  1.4064
 3811SOL    HW212567   7.552   4.979   0.147  0.2853 -0.2711  0.0754
 3812SOL     OW12568   7.019   2.239   5.915 -0.7332  0.0036 -0.5229
 3812SOL    HW112569   6.957   2.306   5.943  2.4150  2.2300  1.9367
 3812SOL    HW212570   7.066   2.279   5.842  0.0006 -0.1794 -0.1676
 3813SOL     OW12571   9.096   2.039   8.666 -0.1004 -0.6428 -0.0163
 3813SOL    HW112572   9.135   1.957   8.636 -0.2671 -1.1854  1.1640
 3813SOL    HW212573   9.077   2.023   8.759 -1.1769  0.3478 -0.0486
 3814SOL     OW12574   4.514   8.516   7.964  0.5344  0.4077  0.8057
 3814SOL    HW112575   4.521   8.501   7.870 -3.1286  1.7783  0.1293
 3814SOL    HW212576   4.456   8.447   7.995 -0.6264  1.6309  1.4393
 3815SOL     OW12577   8.212   8.128   8.855  0.0600 -0.4850  0.1370
 3815SOL    HW112578   8.225   8.045   8.902 -3.0379  0.1320  2.3780
 3815SOL    HW212579   8.233   8.195   8.920  1.4701  0.5535 -1.3142
 3816SOL     OW12580   6.638   6.283   2.894  1.0763  0.4756 -0.2895
 3816SOL    HW112581   6.597   6.206   2.935  0.7821 -0.1780 -1.7703
 3816SOL    HW212582   6.720   6.294   2.942  0.1372  0.5958  1.4094
 3817SOL     OW12583   5.494   3.061   7.707  0.5588 -0.2168  0.3462
 3817SOL    HW112584   5.548   3.037   7.782 -0.1065  2.2381  1.7443
 3817SOL    HW212585   5.553   3.057   7.632  1.7657 -0.8381  1.2938
 3818SOL     OW12586   4.599   7.175   0.655 -0.0288 -0.1101 -0.1178
 3818SOL    HW112587   4.660   7.174   0.729 -0.1262 -2.9481  0.0299
 3818SOL    HW212588   4.652   7.150   0.580 -0.2074  1.4804 -0.8044
 3819SOL     OW12589   3.793   2.462   3.758 -0.5736 -0.0489  0.1786
 3819SOL    HW112590   3.702   2.479   3.731 -0.1231  2.4647  0.0393
 3819SOL    HW212591   3.828   2.406   3.689 -1.9592 -0.9354  0.1594
 3820SOL     OW12592   4.899   0.460   0.914  0.6373  0.1191 -0.3731
 3820SOL    HW112593   4.897   0.368   0.941 -1.2696 -0.0379 -0.9515
 3820SOL    HW212594   4.953   0.461   0.835  0.1035 -0.6157 -0.7496
 3821SOL     OW12595   4.361   0.296   3.468  0.0687  0.4335 -0.0085
 3821SOL    HW112596   4.266   0.302   3.466 -0.0664 -0.4132 -3.5481
 3821SOL    HW212597   4.391   0.361   3.404  1.9913  1.3209  1.6728
 3822SOL     OW12598   6.971   5.490   6.555 -0.3205  0.4017 -0.1181
 3822SOL    HW112599   6.899   5.528   6.504 -0.7601  0.0144  0.2073
 3822SOL    HW212600   7.050   5.520   6.510 -0.6821  0.8376 -0.4768
 3823SOL     OW12601   0.123   7.138   2.371 -0.3545 -0.1545  0.5805
 3823SOL    HW112602   0.121   7.162   2.278 -1.4596  0.6786  0.7906
 3823SOL    HW212603   0.198   7.080   2.380 -0.8892 -1.1607 -1.0635
 3824SOL     OW12604   2.384   3.572   7.227 -0.1749  0.3011  0.0882
 3824SOL    HW112605   2.308   3.515   7.239  1.1073 -1.3139  0.9186
 3824SOL    HW212606   2.445   3.545   7.296  1.0965  1.6398 -0.4803
 3825SOL     OW12607   6.665   5.991   2.090  0.7411  0.1083 -0.0098
 3825SOL    HW112608   6.739   5.931   2.078  0.4687 -0.7573  2.2971
 3825SOL    HW212609   6.595   5.937   2.126 -0.1713  1.4287  0.2712
 3826SOL     OW12610   0.420   4.530   3.471 -0.2281 -0.1946  0.1646
 3826SOL    HW112611   0.361   4.601   3.446  1.0011  0.8621  0.1456
 3826SOL    HW212612   0.507   4.570   3.471  0.7071 -2.0817 -1.3740
 3827SOL     OW12613   8.203   7.381   7.549  0.3460  0.0160  0.4563
 3827SOL    HW112614   8.180   7.352   7.461 -0.6933  1.9116  0.0484
 3827SOL    HW212615   8.212   7.300   7.600 -1.5159 -1.0533 -0.8023
 3828SOL     OW12616   6.042   6.525   2.532  0.0148 -0.0112 -0.3750
 3828SOL    HW112617   5.970   6.587   2.535  0.1494  0.1407  2.5770
 3828SOL    HW212618   6.006   6.444   2.569  1.7113  0.6644  3.2369
 3829SOL     OW12619   2.122   3.756   6.900 -0.3089 -0.1546 -0.0458
 3829SOL    HW112620   2.066   3.828   6.929 -2.2720 -0.0203 -3.5383
 3829SOL    HW212621   2.206   3.798   6.882 -0.5849  0.6951  0.5609
 3830SOL     OW12622   8.732   1.750   1.201 -0.2102 -0.4804 -0.1974
 3830SOL    HW112623   8.649   1.790   1.226  0.2685 -1.0063  2.5533
 3830SOL    HW212624   8.784   1.822   1.165 -0.8377  0.4826  0.7747
 3831SOL     OW12625   3.265   5.768   2.733  0.0206 -0.1438  0.5114
 3831SOL    HW112626   3.359   5.751   2.727  0.3624  1.0559  2.1290
 3831SOL    HW212627   3.225   5.689   2.696  1.6322 -1.4880  1.5112
 3832SOL     OW12628   2.514   9.094   1.486  0.1460 -0.0333 -0.4718
 3832SOL    HW112629   2.423   9.095   1.516  0.5132 -1.3832  0.8067
 3832SOL    HW212630   2.511   9.137   1.401 -1.7178 -0.1698 -0.5299
 3833SOL     OW12631   4.449   5.464   2.564  0.4139  0.6804  0.0509
 3833SOL    HW112632   4.432   5.404   2.491  0.4447 -0.5838  1.0601
 3833SOL    HW212633   4.395   5.431   2.636  1.5595  0.9723  1.0844
 3834SOL     OW12634   1.749   6.318   5.029 -0.3036  0.0194 -0.3313
 3834SOL    HW112635   1.679   6.288   4.971 -0.7693  0.3726  0.0403
 3834SOL    HW212636   1.812   6.246   5.029  0.5905  0.6887 -2.6450
 3835SOL     OW12637   1.299   3.156   4.998 -0.1391  0.4515 -0.2616
 3835SOL    HW112638   1.240   3.198   5.061 -0.2858  0.0359 -0.1176
 3835SOL    HW212639   1.356   3.226   4.968 -0.3390  0.7403  0.0268
 3836SOL     OW12640   6.038   1.931   0.182  0.2165  0.0564  0.4161
 3836SOL    HW112641   6.016   1.848   0.225  0.7061  1.0917  2.8102
 3836SOL    HW212642   6.133   1.934   0.183  0.3307 -0.4450 -2.0116
 3837SOL     OW12643   2.625   8.092   2.120 -0.1951 -0.2498  0.1755
 3837SOL    HW112644   2.563   8.027   2.154 -2.3790  1.2550 -0.7259
 3837SOL    HW212645   2.642   8.064   2.030  2.5817 -2.0845  1.1367
 3838SOL     OW12646   3.244   4.191   0.888 -0.2234 -0.2573  0.1538
 3838SOL    HW112647   3.169   4.186   0.828 -0.1232  0.2022 -0.0153
 3838SOL    HW212648   3.312   4.234   0.836 -0.5573  1.3661  1.0095
 3839SOL     OW12649   3.801   4.526   6.562  0.2291  0.0598  0.5371
 3839SOL    HW112650   3.736   4.542   6.630  0.5158 -1.1200  1.1148
 3839SOL    HW212651   3.793   4.433   6.542  0.0735  0.3963 -1.1482
 3840SOL     OW12652   5.791   7.098   8.753 -0.2569  0.1339  0.0847
 3840SOL    HW112653   5.840   7.015   8.746  0.9218  0.7798  0.3641
 3840SOL    HW212654   5.701   7.071   8.772  0.2166 -1.0770  0.7308
 3841SOL     OW12655   1.320   2.435   0.340 -0.4674 -0.1686  0.3826
 3841SOL    HW112656   1.383   2.494   0.382 -2.3125  1.8185  0.5194
 3841SOL    HW212657   1.244   2.490   0.323 -1.1834 -1.8177 -2.2520
 3842SOL     OW12658   5.807   5.063   7.950 -0.3578 -0.0079  0.0232
 3842SOL    HW112659   5.875   5.092   8.010  0.4992 -0.8360 -0.5046
 3842SOL    HW212660   5.775   4.981   7.988  0.2420 -0.5757 -0.6546
 3843SOL     OW12661   4.885   5.824   0.867 -0.3902  0.1454 -0.5582
 3843SOL    HW112662   4.848   5.912   0.874  2.0007  1.1214  1.4336
 3843SOL    HW212663   4.958   5.834   0.806  1.9096  0.4449  2.0528
 3844SOL     OW12664   5.922   0.160   8.537  0.1889  0.2793 -0.3584
 3844SOL    HW112665   5.922   0.081   8.591  0.3537  0.1961 -0.4805
 3844SOL    HW212666   6.003   0.206   8.562  0.6067 -0.0864 -1.0131
 3845SOL     OW12667   6.827   7.021   3.583  0.4593 -0.2739  0.0250
 3845SOL    HW112668   6.805   7.113   3.595 -1.8657 -0.7802  0.2349
 3845SOL    HW212669   6.921   7.016   3.598  0.1641  1.5229  3.3384
 3846SOL     OW12670   8.528   1.490   5.174 -0.2959 -0.1184 -0.2848
 3846SOL    HW112671   8.472   1.493   5.097  0.0810 -0.7832 -0.5934
 3846SOL    HW212672   8.617   1.480   5.139 -0.1071 -0.3057  0.2284
 3847SOL     OW12673   3.913   0.127   0.665 -0.6648  0.2279  0.4175
 3847SOL    HW112674   3.890   0.214   0.631 -0.4847  1.0656  2.3145
 3847SOL    HW212675   3.951   0.144   0.751 -1.0052 -1.7802  1.0155
 3848SOL     OW12676   1.629   5.299   8.710 -0.0255 -0.1308  0.1534
 3848SOL    HW112677   1.673   5.360   8.768 -0.3783  0.5682 -0.3087
 3848SOL    HW212678   1.629   5.216   8.758  0.7245  0.1476  0.6554
 3849SOL     OW12679   7.155   2.806   3.492  0.1431 -0.0428 -0.3919
 3849SOL    HW112680   7.072   2.852   3.507  0.5911  0.8584 -0.5713
 3849SOL    HW212681   7.210   2.833   3.566  0.5135 -0.0438 -0.6646
 3850SOL     OW12682   7.194   5.108   7.207  0.1038 -0.4269  0.2240
 3850SOL    HW112683   7.212   5.125   7.299 -1.9433  0.8533  0.4451
 3850SOL    HW212684   7.180   5.194   7.168  2.0879 -0.8238 -1.6244
 3851SOL     OW12685   8.628   8.390   5.467 -0.7209 -0.4784 -0.3643
 3851SOL    HW112686   8.617   8.375   5.561  1.8780 -1.0997 -0.0789
 3851SOL    HW212687   8.540   8.414   5.436 -1.8304 -1.1172  2.0359
 3852SOL     OW12688   3.656   3.032   2.773 -0.3749  0.0857 -0.2479
 3852SOL    HW112689   3.621   3.115   2.740 -0.4302  0.7716  1.4202
 3852SOL    HW212690   3.677   3.050   2.865 -0.1443 -1.6832  0.0789
 3853SOL     OW12691   0.514   3.107   1.797 -0.0568  0.7469  0.3257
 3853SOL    HW112692   0.446   3.074   1.739 -1.5194  1.3191  1.6356
 3853SOL    HW212693   0.486   3.081   1.885  2.2382 -0.3719  0.8192
 3854SOL     OW12694   1.117   0.847   4.296 -0.7725  0.1549 -0.5237
 3854SOL    HW112695   1.127   0.773   4.355  0.8624  0.9242  0.2412
 3854SOL    HW212696   1.093   0.920   4.353  0.6167  0.8609 -0.7925
 3855SOL     OW12697   6.690   4.216   3.598 -0.3492  0.6685  0.3466
 3855SOL    HW112698   6.737   4.294   3.626 -0.1837  0.3754  0.9115
 3855SOL    HW212699   6.745   4.177   3.529 -0.1501  0.7467  0.4614
 3856SOL     OW12700   2.041   7.132   7.432  0.7284  0.0474 -0.1314
 3856SOL    HW112701   1.972   7.098   7.375  0.9827 -0.4532 -0.1437
 3856SOL    HW212702   2.114   7.072   7.421  0.7832 -0.0668  0.7300
 3857SOL     OW12703   5.215   3.420   0.530 -0.2312 -0.4361 -0.4940
 3857SOL    HW112704   5.205   3.505   0.487  0.5549 -1.2971 -2.4906
 3857SOL    HW212705   5.125   3.388   0.540 -0.5291  0.5213  0.1468
 3858SOL     OW12706   3.099   4.683   4.661 -0.5855 -0.3914  0.2555
 3858SOL    HW112707   3.151   4.606   4.640  0.2292  0.1655  0.1840
 3858SOL    HW212708   3.161   4.755   4.660 -1.3688  0.3008  0.1363
 3859SOL     OW12709   2.853   2.218   0.720 -0.3150  0.4125  0.2959
 3859SOL    HW112710   2.867   2.199   0.627  0.1906  1.1230  0.2226
 3859SOL    HW212711   2.760   2.199   0.734  0.0098 -1.6069  0.1181
 3860SOL     OW12712   2.913   6.009   8.768 -0.5566 -0.1406  0.0095
 3860SOL    HW112713   2.972   5.939   8.738 -1.1428 -0.3303 -0.7450
 3860SOL    HW212714   2.850   6.019   8.696 -0.4203  1.2440  0.0695
 3861SOL     OW12715   7.133   0.425   8.124  0.0860  0.4186 -0.0897
 3861SOL    HW112716   7.155   0.393   8.211  0.1620 -0.4219 -0.4087
 3861SOL    HW212717   7.215   0.421   8.074 -0.0933  0.2867 -0.3798
 3862SOL     OW12718   6.491   4.469   6.107 -0.4944  0.1903  0.3084
 3862SOL    HW112719   6.567   4.413   6.094 -0.3995 -0.2330  2.3255
 3862SOL    HW212720   6.486   4.523   6.028 -0.1149 -2.0769 -1.3406
 3863SOL     OW12721   5.721   1.235   5.303  0.1799  0.0116  0.0831
 3863SOL    HW112722   5.704   1.230   5.209  0.9120  0.7200 -0.0969
 3863SOL    HW212723   5.804   1.188   5.315 -0.0147 -0.2533  0.4089
 3864SOL     OW12724   7.423   7.720   3.016  0.5687  0.2189  0.6414
 3864SOL    HW112725   7.400   7.812   3.015 -0.5946 -0.0594 -0.5761
 3864SOL    HW212726   7.401   7.688   2.929  0.5385 -1.3070  1.1689
 3865SOL     OW12727   1.881   8.465   0.666 -0.3066 -0.0899 -0.0606
 3865SOL    HW112728   1.820   8.432   0.600  0.6618  0.3228 -1.2130
 3865SOL    HW212729   1.964   8.423   0.645 -0.0812 -0.3265  1.2197
 3866SOL     OW12730   1.196   0.219   0.246 -0.2075 -0.0384 -0.0654
 3866SOL    HW112731   1.287   0.245   0.254 -0.2077 -0.4992  1.9190
 3866SOL    HW212732   1.150   0.270   0.314 -0.7093 -2.6979  1.7701
 3867SOL     OW12733   5.413   2.100   6.204  0.2037  0.0333 -0.0036
 3867SOL    HW112734   5.377   2.095   6.293  1.9731 -2.0147  0.6825
 3867SOL    HW212735   5.507   2.112   6.217  0.5182 -0.5732 -1.5989
 3868SOL     OW12736   1.721   4.791   8.698  0.5125  0.1856 -0.2924
 3868SOL    HW112737   1.816   4.800   8.707  0.3514  0.4093  1.6545
 3868SOL    HW212738   1.695   4.865   8.644  1.2644  1.1260  0.5927
 3869SOL     OW12739   8.755   8.701   1.810 -0.0865  0.2499  0.3685
 3869SOL    HW112740   8.802   8.685   1.729  0.0554 -2.0287  0.8466
 3869SOL    HW212741   8.686   8.763   1.786  0.7229  0.5937 -1.1855
 3870SOL     OW12742   7.758   1.276   7.641 -0.1304 -0.6394 -0.0950
 3870SOL    HW112743   7.722   1.188   7.648 -1.3146 -0.2401 -0.7936
 3870SOL    HW212744   7.712   1.315   7.566 -0.5911  1.0026  0.9711
 3871SOL     OW12745   3.420   7.786   4.774 -0.5934  0.2368  0.4052
 3871SOL    HW112746   3.380   7.786   4.861 -0.8609 -0.8804  0.2954
 3871SOL    HW212747   3.440   7.694   4.756  1.1234  0.6492  0.0347
 3872SOL     OW12748   6.254   3.633   7.240 -0.6629 -0.1964 -0.2196
 3872SOL    HW112749   6.288   3.573   7.306 -0.2681 -0.3326 -0.5459
 3872SOL    HW212750   6.160   3.614   7.236 -1.4679  2.1561  2.8086
 3873SOL     OW12751   0.405   0.172   7.897 -0.0979 -0.5712  0.3466
 3873SOL    HW112752   0.333   0.131   7.849 -0.9267 -0.3772  1.3679
 3873SOL    HW212753   0.443   0.100   7.949  0.3832 -0.6496 -0.1057
 3874SOL     OW12754   0.441   7.061   2.120  0.1440 -0.0971  0.0386
 3874SOL    HW112755   0.454   6.978   2.166 -0.3582  0.0390  0.4400
 3874SOL    HW212756   0.346   7.067   2.109  0.2931 -0.6309 -1.9515
 3875SOL     OW12757   0.516   2.979   4.110  0.2831 -0.3160  0.2232
 3875SOL    HW112758   0.533   3.042   4.040 -0.2323 -0.9731 -0.5042
 3875SOL    HW212759   0.540   3.026   4.190  1.6964  0.1470 -0.4426
 3876SOL     OW12760   1.013   6.009   3.130 -0.1269  0.7951 -0.3199
 3876SOL    HW112761   1.024   6.047   3.217  0.6453 -0.8227  0.3420
 3876SOL    HW212762   1.071   5.933   3.130 -2.8341 -1.4420 -0.9137
 3877SOL     OW12763   1.801   0.335   8.075 -0.2911  0.3465  0.0818
 3877SOL    HW112764   1.854   0.264   8.112 -0.7184  0.9213  1.8998
 3877SOL    HW212765   1.776   0.388   8.151 -0.8588  1.8551 -1.1139
 3878SOL     OW12766   0.462   2.774   4.540  0.4207  0.5364  0.0977
 3878SOL    HW112767   0.433   2.827   4.614 -2.4593  0.5882 -0.9585
 3878SOL    HW212768   0.389   2.776   4.478  1.9465 -1.0935 -1.9182
 3879SOL     OW12769   7.837   6.315   6.192 -0.2724  0.9140 -0.5370
 3879SOL    HW112770   7.822   6.296   6.099 -0.1407  0.0487 -0.3897
 3879SOL    HW212771   7.750   6.328   6.228 -0.6848 -2.4013 -0.0395
 3880SOL     OW12772   8.978   5.831   2.897 -0.0045 -0.3770  0.2546
 3880SOL    HW112773   9.052   5.772   2.909 -0.7245 -1.1158  1.0898
 3880SOL    HW212774   9.000   5.880   2.817  1.6665 -0.1457  0.8056
 3881SOL     OW12775   3.925   5.062   5.534 -0.2836  0.6724  0.4540
 3881SOL    HW112776   3.991   5.016   5.482 -0.6127  0.7620 -0.0526
 3881SOL    HW212777   3.873   4.992   5.574  1.0112  0.5613  2.0752
 3882SOL     OW12778   1.540   3.585   0.908 -0.9099 -0.4225  0.0921
 3882SOL    HW112779   1.527   3.622   0.995  0.6238 -0.5285  0.4055
 3882SOL    HW212780   1.618   3.530   0.917 -0.3121  0.0996 -1.4920
 3883SOL     OW12781   3.658   3.903   4.376  0.3211 -0.5158 -0.0207
 3883SOL    HW112782   3.669   3.815   4.413  0.8439 -1.4676 -2.2644
 3883SOL    HW212783   3.745   3.941   4.379 -0.0068  0.1758  1.4464
 3884SOL     OW12784   0.500   5.051   0.939  0.2999  0.1553 -0.0759
 3884SOL    HW112785   0.473   5.059   0.847  0.3169 -1.3529 -0.2428
 3884SOL    HW212786   0.510   5.141   0.969 -2.4511  0.7728 -0.7333
 3885SOL     OW12787   6.115   7.844   7.899  0.3326 -0.0477  0.2416
 3885SOL    HW112788   6.114   7.879   7.988 -0.8875  1.2602 -0.2420
 3885SOL    HW212789   6.114   7.922   7.843 -3.1860 -0.7588 -0.9070
 3886SOL     OW12790   8.087   1.293   0.360 -0.0841 -0.1869  0.3062
 3886SOL    HW112791   8.131   1.250   0.287  0.4232  1.4254 -0.4029
 3886SOL    HW212792   8.007   1.243   0.374 -0.1086 -0.6326 -1.2535
 3887SOL     OW12793   0.365   3.587   8.691  0.1424 -0.3631 -0.0316
 3887SOL    HW112794   0.413   3.669   8.679 -0.2821 -0.1023  0.0337
 3887SOL    HW212795   0.425   3.519   8.661 -0.4743  0.1628 -2.7691
 3888SOL     OW12796   6.668   7.353   6.722  0.2286 -0.3555 -0.0040
 3888SOL    HW112797   6.669   7.322   6.813  1.5487  1.3832  0.6257
 3888SOL    HW212798   6.577   7.379   6.708  0.1465  0.0160  1.0777
 3889SOL     OW12799   8.831   4.862   0.823  0.4871  0.2141 -0.0904
 3889SOL    HW112800   8.752   4.818   0.791 -0.1397  1.7278 -0.7356
 3889SOL    HW212801   8.806   4.898   0.908  0.7972 -0.1198  0.1465
 3890SOL     OW12802   2.856   8.658   3.331 -0.1019 -0.2986 -0.1962
 3890SOL    HW112803   2.761   8.658   3.347 -0.1824  0.0959 -0.6446
 3890SOL    HW212804   2.885   8.744   3.361  0.0325 -0.2360 -0.4979
 3891SOL     OW12805   4.011   6.865   2.011 -0.6310  0.0176  0.2209
 3891SOL    HW112806   3.937   6.926   2.006 -1.8341 -1.2056  2.0441
 3891SOL    HW212807   4.031   6.858   2.104  0.6096 -1.0636 -0.0888
 3892SOL     OW12808   4.242   2.989   9.031  0.3637 -0.4916  0.0960
 3892SOL    HW112809   4.229   2.938   8.951  2.1945  0.1910 -0.6946
 3892SOL    HW212810   4.214   3.077   9.008 -0.9159 -0.6899  0.8353
 3893SOL     OW12811   2.491   7.748   0.565  0.3211  0.0481  0.1614
 3893SOL    HW112812   2.482   7.668   0.513  1.7533  0.0768 -0.1643
 3893SOL    HW212813   2.434   7.812   0.521  0.6434 -0.2564 -0.7165
 3894SOL     OW12814   4.160   1.384   5.509 -0.4016 -0.3450 -0.2750
 3894SOL    HW112815   4.100   1.426   5.447  0.5426 -0.4234 -1.2839
 3894SOL    HW212816   4.103   1.348   5.577 -1.4807 -0.2896 -1.1166
 3895SOL     OW12817   7.859   8.758   0.865  0.0357  0.1557  0.1495
 3895SOL    HW112818   7.931   8.696   0.866  0.5278  0.7058  1.3483
 3895SOL    HW212819   7.806   8.734   0.941 -0.9145 -0.0766 -0.5667
 3896SOL     OW12820   3.678   8.467   2.607 -0.3107  0.4511 -0.0636
 3896SOL    HW112821   3.690   8.515   2.689 -1.7931  0.0302  0.4340
 3896SOL    HW212822   3.707   8.378   2.627  1.6087  0.8694 -0.7338
 3897SOL     OW12823   8.400   6.776   0.903 -0.3287  0.2024  0.5599
 3897SOL    HW112824   8.405   6.871   0.903  1.3642  0.1360  0.6327
 3897SOL    HW212825   8.328   6.756   0.843 -0.6744  1.5135  0.5066
 3898SOL     OW12826   5.172   0.153   3.751  0.0506 -0.1561 -0.1583
 3898SOL    HW112827   5.260   0.183   3.771 -0.0891 -0.5499  1.1300
 3898SOL    HW212828   5.142   0.211   3.680  1.1785  0.2325 -0.3351
 3899SOL     OW12829   6.741   2.168   0.553 -0.3566  0.3989 -0.1268
 3899SOL    HW112830   6.698   2.241   0.509  0.7505 -0.2101 -2.3800
 3899SOL    HW212831   6.829   2.199   0.571 -0.3551  0.1406  0.3217
 3900SOL     OW12832   5.180   2.698   3.510  0.2776 -0.0669  0.1512
 3900SOL    HW112833   5.096   2.740   3.492 -0.8097 -1.8869  0.7233
 3900SOL    HW212834   5.193   2.639   3.435  0.9290  0.0088  0.1996
 3901SOL     OW12835   4.737   0.365   3.130  0.1939  0.0743 -0.2555
 3901SOL    HW112836   4.702   0.279   3.105  0.7603  0.3012 -1.9948
 3901SOL    HW212837   4.698   0.383   3.216 -0.3531 -1.6735 -0.0908
 3902SOL     OW12838   3.447   1.779   4.772  1.5912  0.3524  0.1538
 3902SOL    HW112839   3.486   1.855   4.729  1.2152  0.1170 -0.6295
 3902SOL    HW212840   3.365   1.812   4.810  1.3516  0.3104 -0.3199
 3903SOL     OW12841   8.482   0.882   2.544 -0.6000  0.3435  0.2196
 3903SOL    HW112842   8.417   0.874   2.474  0.6358 -1.2318 -0.8009
 3903SOL    HW212843   8.502   0.976   2.547 -0.7154  0.4604 -1.5378
 3904SOL     OW12844   6.428   3.947   1.528  0.0317 -0.3038 -0.4889
 3904SOL    HW112845   6.518   3.981   1.531  0.6962 -1.9902  0.5026
 3904SOL    HW212846   6.426   3.880   1.597 -1.8593 -0.6297 -0.8131
 3905SOL     OW12847   9.035   3.255   6.233  0.2891  0.8155  0.3959
 3905SOL    HW112848   8.965   3.210   6.281 -0.4760 -0.1067 -1.5043
 3905SOL    HW212849   9.112   3.199   6.245  0.1964  0.7648  0.7900
 3906SOL     OW12850   2.862   2.197   8.927  0.9389 -0.1187 -0.0289
 3906SOL    HW112851   2.864   2.292   8.940  0.9315 -0.1310  0.0675
 3906SOL    HW212852   2.916   2.162   8.998  0.1566 -0.2433  0.5187
 3907SOL     OW12853   8.106   8.246   0.689 -0.2761 -0.9819  0.1156
 3907SOL    HW112854   8.039   8.220   0.752 -0.8176 -0.2867 -0.1523
 3907SOL    HW212855   8.178   8.184   0.702 -1.0251 -1.8281  0.3119
 3908SOL     OW12856   8.194   4.728   3.307 -0.1913 -0.1682  0.3813
 3908SOL    HW112857   8.225   4.638   3.298 -1.1811 -0.5786  0.9296
 3908SOL    HW212858   8.274   4.781   3.306  0.3541 -0.9753 -0.7037
 3909SOL     OW12859   4.490   7.729   1.837 -0.4258 -0.1812  0.4952
 3909SOL    HW112860   4.562   7.674   1.807 -0.4926 -0.8331  1.4578
 3909SOL    HW212861   4.514   7.817   1.811  0.7892 -0.3722  0.9121
 3910SOL     OW12862   4.167   0.742   8.781  0.0059 -0.1005  0.0101
 3910SOL    HW112863   4.186   0.765   8.872 -0.1576 -1.1431  0.3219
 3910SOL    HW212864   4.224   0.667   8.763 -0.6056 -0.4677 -0.4524
 3911SOL     OW12865   2.445   7.011   1.639  0.3453 -0.0888  0.2494
 3911SOL    HW112866   2.462   6.954   1.715 -0.1502 -0.0715  0.3808
 3911SOL    HW212867   2.529   7.017   1.594  1.0896  1.2529  1.7107
 3912SOL     OW12868   7.589   0.250   4.855 -0.1530 -0.1609  0.3949
 3912SOL    HW112869   7.527   0.206   4.913  0.0084  0.6100  1.1757
 3912SOL    HW212870   7.548   0.334   4.835  0.5086  0.2361  0.6883
 3913SOL     OW12871   1.842   5.058   0.559  0.2856  0.1532  0.1666
 3913SOL    HW112872   1.763   5.077   0.508  0.4219 -0.3388 -0.2385
 3913SOL    HW212873   1.905   5.027   0.494  0.3028 -0.9751  0.6931
 3914SOL     OW12874   0.921   2.366   3.535 -0.0545  0.2954  0.4919
 3914SOL    HW112875   0.874   2.305   3.480  0.7606  0.6504 -0.6401
 3914SOL    HW212876   0.997   2.317   3.566  1.7509  1.2291 -2.0992
 3915SOL     OW12877   5.002   6.651   3.727  0.9267 -0.2171  0.2427
 3915SOL    HW112878   5.095   6.630   3.722  0.5923 -2.1745  1.1406
 3915SOL    HW212879   4.960   6.587   3.670  0.0711  0.1087  0.4878
 3916SOL     OW12880   4.186   1.889   8.677 -0.0460 -0.1396 -0.1455
 3916SOL    HW112881   4.243   1.961   8.649  2.5090 -2.1320 -0.4660
 3916SOL    HW212882   4.160   1.846   8.596  0.9208 -1.2980  0.1308
 3917SOL     OW12883   3.370   6.442   6.702  0.4428 -0.3430 -0.3925
 3917SOL    HW112884   3.279   6.467   6.690  0.3487 -1.2302 -1.8793
 3917SOL    HW212885   3.372   6.349   6.679  2.0673  0.1468 -2.6014
 3918SOL     OW12886   2.564   1.959   1.700 -0.1870 -0.1815 -0.0934
 3918SOL    HW112887   2.486   1.912   1.730  0.0426 -1.0541 -0.7965
 3918SOL    HW212888   2.589   2.014   1.773 -0.0769 -1.6819  1.0473
 3919SOL     OW12889   0.872   4.024   7.807  0.3691  0.1739  0.5076
 3919SOL    HW112890   0.916   3.953   7.760  0.6022 -1.0764  2.4833
 3919SOL    HW212891   0.791   3.985   7.839 -0.0690  1.1610  0.6309
 3920SOL     OW12892   5.125   6.283   2.014  0.0856  0.6142  0.5325
 3920SOL    HW112893   5.066   6.208   2.020 -0.3207  0.9282  0.5856
 3920SOL    HW212894   5.130   6.317   2.104 -0.9192  1.5236  0.2762
 3921SOL     OW12895   6.701   8.932   0.194  0.6471  0.1668 -0.1831
 3921SOL    HW112896   6.745   9.016   0.210  2.3332 -0.5098 -0.9182
 3921SOL    HW212897   6.706   8.921   0.099 -0.4362 -0.3237 -0.1959
 3922SOL     OW12898   4.996   2.398   8.845 -0.0939  0.1061  0.0778
 3922SOL    HW112899   4.976   2.320   8.897  0.4298 -0.3362 -0.3713
 3922SOL    HW212900   5.089   2.391   8.827  0.1904  1.4219  0.9731
 3923SOL     OW12901   6.853   3.308   5.863 -0.1649  0.4136  0.3079
 3923SOL    HW112902   6.825   3.236   5.919  0.2984  0.3131  0.4184
 3923SOL    HW212903   6.944   3.287   5.841  0.4593  1.6873  1.5245
 3924SOL     OW12904   0.204   3.581   0.292 -0.4733 -0.1883  0.5679
 3924SOL    HW112905   0.240   3.669   0.300 -0.8352 -0.0723  0.9530
 3924SOL    HW212906   0.115   3.594   0.259  0.0559 -0.5127 -1.0536
 3925SOL     OW12907   4.334   1.312   2.925  0.3186  0.6074 -0.3377
 3925SOL    HW112908   4.321   1.312   2.830  0.6372  1.8155 -0.4044
 3925SOL    HW212909   4.425   1.338   2.937  1.0313 -1.9644  0.2712
 3926SOL     OW12910   1.582   7.158   4.992  0.1701 -0.7743 -0.4840
 3926SOL    HW112911   1.632   7.232   5.026 -0.2228 -1.0632  0.8025
 3926SOL    HW212912   1.491   7.181   5.008 -0.0839 -0.6139 -2.0499
 3927SOL     OW12913   4.389   0.800   7.091 -0.1644  0.6236  0.4028
 3927SOL    HW112914   4.314   0.815   7.034 -0.6078 -0.6499  0.6095
 3927SOL    HW212915   4.398   0.882   7.140 -0.3817  1.3784 -0.7755
 3928SOL     OW12916   6.197   6.370   5.058 -0.2744  0.3634 -0.3928
 3928SOL    HW112917   6.147   6.446   5.085 -1.7631 -0.8081  0.3001
 3928SOL    HW212918   6.281   6.378   5.105 -1.1566  0.6068  1.2002
 3929SOL     OW12919   4.570   3.926   3.756 -0.4713  0.2491  0.5175
 3929SOL    HW112920   4.504   3.872   3.800 -0.1082  0.5262  1.4199
 3929SOL    HW212921   4.629   3.862   3.715 -1.7276  0.0013 -0.9947
 3930SOL     OW12922   8.801   4.746   7.035  0.4217 -0.2107  0.0336
 3930SOL    HW112923   8.726   4.779   7.084  0.2463  1.5346 -1.3063
 3930SOL    HW212924   8.792   4.651   7.038  0.1599 -0.1702  2.8885
 3931SOL     OW12925   5.697   4.122   4.381  0.3993 -0.2737 -0.1808
 3931SOL    HW112926   5.617   4.163   4.413  0.6133 -1.1176  1.5822
 3931SOL    HW212927   5.734   4.185   4.320 -2.4929 -0.6132 -2.4766
 3932SOL     OW12928   4.704   1.916   3.748  0.0401 -0.1521 -0.4598
 3932SOL    HW112929   4.611   1.900   3.729 -0.4737  1.2106  0.7299
 3932SOL    HW212930   4.705   1.942   3.840  1.5861  0.1530 -0.5395
 3933SOL     OW12931   0.337   4.751   4.617  0.6888 -0.6024 -0.3225
 3933SOL    HW112932   0.313   4.706   4.536  0.7654 -0.4099 -0.4543
 3933SOL    HW212933   0.305   4.841   4.604  2.6614  0.0569 -1.0725
 3934SOL     OW12934   8.001   1.593   0.326  0.0077 -0.1755  0.6547
 3934SOL    HW112935   8.060   1.519   0.336 -0.5050 -0.5727  0.8177
 3934SOL    HW212936   7.988   1.625   0.415 -0.0565 -0.1192  0.6253
 3935SOL     OW12937   5.704   2.486   4.483  0.2409 -0.3843  0.1404
 3935SOL    HW112938   5.720   2.401   4.525  0.5797 -0.5762 -0.3737
 3935SOL    HW212939   5.791   2.516   4.458  0.1213  0.1255  0.3320
 3936SOL     OW12940   0.966   5.584   4.139  0.1682 -0.1742 -0.1311
 3936SOL    HW112941   0.894   5.525   4.162  0.0766 -0.0357 -0.0588
 3936SOL    HW212942   1.045   5.535   4.160  0.0918 -0.2641 -0.0542
 3937SOL     OW12943   7.852   8.161   1.872  0.4714  0.5747 -0.0670
 3937SOL    HW112944   7.891   8.089   1.823  1.9367  1.0477  0.3609
 3937SOL    HW212945   7.852   8.235   1.810  0.1539  0.5607 -0.0888
 3938SOL     OW12946   5.696   7.891   6.288  0.3788  0.2411 -0.0898
 3938SOL    HW112947   5.730   7.803   6.276 -1.0801 -0.1685 -1.6950
 3938SOL    HW212948   5.706   7.933   6.202 -1.8226  0.5172 -0.2773
 3939SOL     OW12949   8.592   4.698   0.812 -0.1991  0.7474 -0.1920
 3939SOL    HW112950   8.500   4.681   0.795  0.2424 -0.1875 -1.9755
 3939SOL    HW212951   8.636   4.617   0.784  0.9738 -0.0000  3.2390
 3940SOL     OW12952   0.358   5.150   0.751 -0.5837 -0.2211 -0.4444
 3940SOL    HW112953   0.361   5.245   0.743  0.1676  0.2412  3.5090
 3940SOL    HW212954   0.268   5.131   0.777 -0.9773 -0.7594 -2.0860
 3941SOL     OW12955   5.812   8.566   2.814  0.3266 -0.3948 -0.0312
 3941SOL    HW112956   5.903   8.584   2.792  0.5588 -2.2728 -0.7895
 3941SOL    HW212957   5.761   8.627   2.760  1.0907 -0.3644 -0.7294
 3942SOL     OW12958   7.331   8.912   1.386  0.1036 -0.0502  0.0122
 3942SOL    HW112959   7.368   8.995   1.357 -0.3611 -0.0110 -0.4720
 3942SOL    HW212960   7.261   8.937   1.446  0.0336 -0.0916 -0.0518
 3943SOL     OW12961   5.490   7.670   3.555 -0.1895 -0.3688 -0.0984
 3943SOL    HW112962   5.491   7.754   3.509  0.5547 -0.0030  0.5659
 3943SOL    HW212963   5.568   7.672   3.611 -1.1881 -0.6684  1.3792
 3944SOL     OW12964   6.043   5.793   1.664 -0.0210 -0.4556 -0.3424
 3944SOL    HW112965   6.109   5.749   1.717  1.0394  2.7797  1.2945
 3944SOL    HW212966   6.085   5.875   1.636 -2.0264 -0.0693 -2.6521
 3945SOL     OW12967   3.025   8.965   1.261 -0.0492  0.1747 -0.1582
 3945SOL    HW112968   3.069   8.912   1.328 -1.1063 -0.6589 -0.0878
 3945SOL    HW212969   2.969   9.024   1.311 -1.6564 -1.1723 -0.2675
 3946SOL     OW12970   5.566   0.289   4.814  0.1486 -0.4583 -0.1229
 3946SOL    HW112971   5.610   0.342   4.747 -0.2717  0.0892  0.0183
 3946SOL    HW212972   5.558   0.348   4.889 -1.3972 -0.3052 -0.3684
 3947SOL     OW12973   0.138   4.515   5.188  0.3381 -0.4075  0.0226
 3947SOL    HW112974   0.171   4.489   5.274  0.4013  0.4120  0.2519
 3947SOL    HW212975   0.170   4.447   5.128  1.1930 -0.4051  0.4716
 3948SOL     OW12976   7.493   2.776   3.526  0.4910 -0.2784 -0.2641
 3948SOL    HW112977   7.575   2.737   3.556  0.1349 -1.2772 -0.5552
 3948SOL    HW212978   7.448   2.803   3.607  2.0450  2.3570 -0.1490
 3949SOL     OW12979   1.116   0.653   0.700  0.2442 -0.2746  0.3245
 3949SOL    HW112980   1.160   0.601   0.768 -1.0418 -1.4541  0.3091
 3949SOL    HW212981   1.180   0.656   0.628  0.0539 -2.6779 -0.0349
 3950SOL     OW12982   5.989   5.725   6.817 -0.2885 -0.6711  0.4688
 3950SOL    HW112983   5.922   5.738   6.749 -1.2130 -0.7873  1.3342
 3950SOL    HW212984   6.009   5.814   6.847 -0.5456 -0.6767  0.6631
 3951SOL     OW12985   8.477   6.683   4.772 -0.5152  0.0811  0.1913
 3951SOL    HW112986   8.552   6.651   4.822 -0.2724  1.1802  0.5590
 3951SOL    HW212987   8.473   6.777   4.793 -1.0950  0.3273 -0.9733
 3952SOL     OW12988   6.860   3.943   8.783  0.2337  0.2270 -0.5453
 3952SOL    HW112989   6.800   3.868   8.778  0.0242  0.4851 -2.7641
 3952SOL    HW212990   6.916   3.934   8.706  1.4212  1.3747  0.1439
 3953SOL     OW12991   5.717   8.558   8.862 -0.2346 -0.0281  0.7146
 3953SOL    HW112992   5.680   8.473   8.889 -1.2738 -0.7306 -2.5357
 3953SOL    HW212993   5.808   8.537   8.839 -0.9126 -0.6788 -1.5711
 3954SOL     OW12994   3.566   1.220   0.388  0.6830 -0.1712  0.4489
 3954SOL    HW112995   3.543   1.149   0.448  0.2654 -0.2747  0.1715
 3954SOL    HW212996   3.488   1.276   0.386  0.4162 -0.5716 -0.5753
 3955SOL     OW12997   3.111   3.099   3.709  0.0935 -0.2612 -0.3219
 3955SOL    HW112998   3.111   3.172   3.771  2.4466 -0.3821 -0.0917
 3955SOL    HW212999   3.066   3.028   3.756  0.0953  0.2501  0.4803
 3956SOL     OW13000   5.759   1.142   9.049  0.3239 -0.2738  0.0410
 3956SOL    HW113001   5.852   1.135   9.071  0.5781 -0.9393 -1.1137
 3956SOL    HW213002   5.747   1.234   9.026  1.1233 -0.5007 -1.4284
 3957SOL     OW13003   1.228   8.571   8.931  0.2890  0.5299  0.2891
 3957SOL    HW113004   1.206   8.478   8.933  0.8963  0.3843  0.4213
 3957SOL    HW213005   1.157   8.612   8.881 -0.4738  0.1328  1.0180
 3958SOL     OW13006   8.822   2.148   4.216 -0.5426 -0.8146 -0.2717
 3958SOL    HW113007   8.888   2.083   4.193  0.3822 -0.2685  0.7841
 3958SOL    HW213008   8.861   2.232   4.194 -1.0260 -0.5056  0.0250
 3959SOL     OW13009   9.067   7.001   1.861  0.2233  0.0411 -0.0833
 3959SOL    HW113010   9.161   7.006   1.843  0.3260 -0.2976  0.3392
 3959SOL    HW213011   9.039   7.092   1.865  0.1327  0.1608 -2.1655
 3960SOL     OW13012   7.626   6.520   0.966  0.6535  0.7040  0.1541
 3960SOL    HW113013   7.619   6.560   1.053  1.3353 -1.0308  1.0708
 3960SOL    HW213014   7.628   6.426   0.984  1.4399  0.3266 -1.7020
 3961SOL     OW13015   0.207   2.816   2.353  0.1199  0.0723  0.5561
 3961SOL    HW113016   0.218   2.795   2.445  0.2308 -0.2374  0.4737
 3961SOL    HW213017   0.246   2.903   2.343 -1.7946  1.0707  1.2355
 3962SOL     OW13018   2.380   9.027   4.795 -0.4362  0.2654 -0.2862
 3962SOL    HW113019   2.401   9.002   4.885 -0.1575 -1.0019 -0.6848
 3962SOL    HW213020   2.357   9.120   4.800  0.8732  0.5490  0.8832
 3963SOL     OW13021   1.725   3.846   3.429  0.0388 -0.3065 -0.0847
 3963SOL    HW113022   1.721   3.920   3.369  1.7523 -0.3154 -0.2756
 3963SOL    HW213023   1.792   3.872   3.493  1.5714 -2.1401 -0.8507
 3964SOL     OW13024   7.595   5.743   6.787  0.8150  0.3965 -0.0882
 3964SOL    HW113025   7.600   5.717   6.879  2.2572  0.8245 -0.0112
 3964SOL    HW213026   7.528   5.810   6.785 -0.2010 -0.5631  0.3943
 3965SOL     OW13027   0.461   0.825   8.128 -0.4712  0.5779  0.0450
 3965SOL    HW113028   0.489   0.741   8.166  0.0496  0.5318 -0.4392
 3965SOL    HW213029   0.528   0.887   8.158  0.2806  0.4323 -1.2658
 3966SOL     OW13030   8.147   3.738   2.300 -0.0496  0.0856 -0.2409
 3966SOL    HW113031   8.204   3.712   2.372  0.8740  0.7470 -0.7189
 3966SOL    HW213032   8.058   3.733   2.336  0.4815  2.3713  1.6202
 3967SOL     OW13033   8.865   5.482   5.670 -0.0384 -0.0529 -0.3786
 3967SOL    HW113034   8.835   5.392   5.680  0.9024 -0.2632  0.8364
 3967SOL    HW213035   8.941   5.476   5.612 -1.2575  0.2644 -2.0736
 3968SOL     OW13036   6.123   6.296   3.039  0.0948 -0.1455  0.1813
 3968SOL    HW113037   6.099   6.342   2.958 -0.5835  1.3020  1.1515
 3968SOL    HW213038   6.206   6.337   3.065  0.6209 -1.0269 -0.0811
 3969SOL     OW13039   5.618   3.055   6.223  0.0364  0.2274  0.2725
 3969SOL    HW113040   5.527   3.071   6.198  0.3195 -0.8284 -1.5973
 3969SOL    HW213041   5.653   2.998   6.154  2.0874  0.4987  1.0036
 3970SOL     OW13042   5.446   8.764   1.684  0.0836  0.0738  0.1523
 3970SOL    HW113043   5.398   8.822   1.625  1.6603  0.5465 -0.7113
 3970SOL    HW213044   5.409   8.782   1.770 -3.3326 -1.7072 -0.7452
 3971SOL     OW13045   0.598   6.744   7.588  0.1141 -0.0448  0.4440
 3971SOL    HW113046   0.691   6.759   7.604  0.0731  0.3892  0.2834
 3971SOL    HW213047   0.563   6.716   7.673  0.6748 -1.6493  0.1714
 3972SOL     OW13048   4.523   5.139   3.919 -0.0270  0.5584  0.1738
 3972SOL    HW113049   4.431   5.122   3.939 -0.3190  1.7892 -0.0654
 3972SOL    HW213050   4.534   5.233   3.931  0.6641  0.8092 -1.9027
 3973SOL     OW13051   3.279   4.473   0.565  0.8632 -0.1134 -0.4458
 3973SOL    HW113052   3.270   4.535   0.638 -0.1454 -0.5727 -0.1587
 3973SOL    HW213053   3.315   4.394   0.605 -0.3007 -0.5933 -0.2875
 3974SOL     OW13054   3.863   2.170   6.178 -0.6320 -0.0076 -0.4365
 3974SOL    HW113055   3.886   2.077   6.173 -0.9278 -0.0867 -0.3508
 3974SOL    HW213056   3.885   2.196   6.267  0.7968  0.3699 -0.8815
 3975SOL     OW13057   3.334   2.671   3.754 -0.7830  0.5233 -0.1866
 3975SOL    HW113058   3.303   2.728   3.684 -0.4807  1.2608  0.2547
 3975SOL    HW213059   3.378   2.731   3.815  1.9133 -0.5080 -1.0006
 3976SOL     OW13060   1.996   4.479   7.740  0.6382  0.3326  1.0506
 3976SOL    HW113061   2.044   4.562   7.732  0.2539  0.5161  0.5987
 3976SOL    HW213062   1.977   4.454   7.649 -1.7054  1.1947  1.2221
 3977SOL     OW13063   1.379   7.650   7.035 -0.5712  0.0970  0.5253
 3977SOL    HW113064   1.348   7.675   7.121  0.5183  0.8177  0.7313
 3977SOL    HW213065   1.315   7.685   6.974 -1.0680  0.0408  1.0139
 3978SOL     OW13066   4.779   5.257   6.505 -0.5838 -0.1535 -0.2237
 3978SOL    HW113067   4.683   5.257   6.511 -0.5721 -0.7041  0.0761
 3978SOL    HW213068   4.807   5.313   6.577 -0.7047  0.8772 -0.9663
 3979SOL     OW13069   5.915   8.799   7.430  0.1089  0.5407  0.4865
 3979SOL    HW113070   5.990   8.792   7.488  0.3768  1.4166  0.2635
 3979SOL    HW213071   5.865   8.874   7.463  1.4134  2.5038 -1.6392
 3980SOL     OW13072   0.029   0.363   6.768 -0.4637  0.3901 -0.8114
 3980SOL    HW113073  -0.039   0.350   6.835  1.4099  0.0737  1.1413
 3980SOL    HW213074   0.013   0.294   6.704 -2.7551  1.1376 -1.1433
 3981SOL     OW13075   7.798   0.084   6.406  0.0314 -0.1902 -0.4225
 3981SOL    HW113076   7.735   0.137   6.455  1.3457  0.1651  0.9903
 3981SOL    HW213077   7.836   0.144   6.342  0.3627  0.1743  0.0986
 3982SOL     OW13078   5.390   0.570   6.929  0.1771  0.7387 -0.1706
 3982SOL    HW113079   5.461   0.507   6.942  0.4496  0.6356 -1.9230
 3982SOL    HW213080   5.431   0.656   6.946  0.6443  0.6587 -0.8603
 3983SOL     OW13081   1.550   4.012   0.939 -0.3375 -0.8106 -0.0704
 3983SOL    HW113082   1.588   3.937   0.894 -1.4289 -0.7029 -1.2337
 3983SOL    HW213083   1.623   4.052   0.986  1.2089 -0.1346 -2.8270
 3984SOL     OW13084   4.865   7.942   3.071 -0.0804 -0.1395  0.2769
 3984SOL    HW113085   4.917   7.884   3.014 -2.9426 -1.7354 -0.9565
 3984SOL    HW213086   4.853   7.891   3.151  2.0230  1.1597  1.4825
 3985SOL     OW13087   8.793   5.157   2.668  0.7406 -0.2245 -0.4614
 3985SOL    HW113088   8.822   5.233   2.618  0.4301 -1.4943 -2.6754
 3985SOL    HW213089   8.853   5.153   2.743  0.7652  2.1502 -0.2797
 3986SOL     OW13090   6.133   3.371   6.924  0.4327 -0.0194 -0.7779
 3986SOL    HW113091   6.158   3.301   6.863  2.0689  0.3682 -0.5957
 3986SOL    HW213092   6.132   3.329   7.010  1.6572  0.2045 -0.6363
 3987SOL     OW13093   7.332   1.064   6.118  0.5846  0.0061 -0.0295
 3987SOL    HW113094   7.261   1.003   6.138  1.9738 -1.5236  0.4469
 3987SOL    HW213095   7.348   1.051   6.024 -0.0580  0.7054 -0.2459
 3988SOL     OW13096   6.430   2.489   2.411  0.1086 -0.2207 -0.1822
 3988SOL    HW113097   6.337   2.487   2.436  0.0119  1.0917 -0.3990
 3988SOL    HW213098   6.468   2.559   2.464  0.6415  0.2941 -1.2321
 3989SOL     OW13099   8.801   5.607   3.933  0.5668  0.5739 -0.1256
 3989SOL    HW113100   8.844   5.553   4.000 -0.2659 -0.0673 -0.0996
 3989SOL    HW213101   8.868   5.671   3.908  0.3323  2.0721  2.6719
 3990SOL     OW13102   4.325   4.891   2.674 -0.5822  0.2129 -0.1459
 3990SOL    HW113103   4.394   4.828   2.695  0.3937  1.2321 -0.2120
 3990SOL    HW213104   4.291   4.919   2.759 -0.5479  0.1036 -0.0963
 3991SOL     OW13105   1.295   0.757   1.419  0.2624  0.2968  0.2481
 3991SOL    HW113106   1.274   0.771   1.511 -0.5036 -0.0088  0.1238
 3991SOL    HW213107   1.332   0.669   1.416  0.7343  0.4911  0.3335
 3992SOL     OW13108   5.470   3.636   3.352 -0.2724  0.1492 -0.6089
 3992SOL    HW113109   5.560   3.610   3.335 -0.4713  0.0503 -1.6070
 3992SOL    HW213110   5.456   3.713   3.296 -0.8169  0.1410 -0.4945
 3993SOL     OW13111   0.433   3.590   1.385  0.1558  0.3284 -0.2407
 3993SOL    HW113112   0.381   3.646   1.442 -1.0770  0.1510 -1.1329
 3993SOL    HW213113   0.451   3.512   1.438  0.7538  0.9952  0.5573
 3994SOL     OW13114   7.062   2.388   8.274  0.1760  0.2216  0.2972
 3994SOL    HW113115   7.109   2.364   8.354 -0.5475  2.1622  1.3794
 3994SOL    HW213116   6.997   2.319   8.263  0.1232  0.0479  1.5482
 3995SOL     OW13117   4.731   4.464   6.002 -0.2607 -0.4541  0.1151
 3995SOL    HW113118   4.673   4.468   6.078 -0.0763  0.2256  0.2227
 3995SOL    HW213119   4.704   4.384   5.956 -0.8941 -0.4546  0.4710
 3996SOL     OW13120   5.575   0.598   0.985  0.0817 -0.0392  0.2063
 3996SOL    HW113121   5.605   0.688   0.974  1.0924 -0.6293 -2.7261
 3996SOL    HW213122   5.630   0.563   1.055  0.8274  1.1491  0.2384
 3997SOL     OW13123   1.574   2.659   5.690  0.1540 -0.4658  0.5287
 3997SOL    HW113124   1.661   2.698   5.700  0.0681 -0.5233  1.6603
 3997SOL    HW213125   1.532   2.711   5.621  0.6701  0.3346  0.8035
 3998SOL     OW13126   0.997   4.027   2.659 -0.5667 -0.5293 -0.2148
 3998SOL    HW113127   0.996   3.931   2.663 -1.0642 -0.5057  0.3386
 3998SOL    HW213128   1.071   4.053   2.714 -2.0168 -0.5204  1.8321
 3999SOL     OW13129   7.387   2.694   4.141 -0.0924 -0.3883  0.9207
 3999SOL    HW113130   7.302   2.651   4.129  0.1836 -0.9713  1.0390
 3999SOL    HW213131   7.379   2.776   4.093 -0.6162 -0.5845  0.6660
 4000SOL     OW13132   1.198   8.611   0.998 -0.2642 -0.1868  0.2097
 4000SOL    HW113133   1.146   8.547   1.048 -0.4533 -0.4868 -0.3600
 4000SOL    HW213134   1.215   8.567   0.915  0.8177 -0.0505  0.3438
 4001SOL     OW13135   0.177   8.286   4.108 -0.4011 -0.1406 -0.5661
 4001SOL    HW113136   0.205   8.208   4.060  0.2435 -0.7932  0.7897
 4001SOL    HW213137   0.090   8.306   4.075 -0.5543 -1.4174 -0.9758
 4002SOL     OW13138   0.022   5.609   2.921 -1.0090  0.3252 -0.3241
 4002SOL    HW113139  -0.060   5.570   2.891 -0.4215 -0.8784 -0.4117
 4002SOL    HW213140   0.036   5.572   3.008 -0.7342  0.8079 -0.1587
 4003SOL     OW13141   6.508   6.642   6.600 -0.1431 -0.8245  0.3364
 4003SOL    HW113142   6.576   6.633   6.667  2.5067  1.2853 -1.8138
 4003SOL    HW213143   6.557   6.652   6.518 -3.0799  0.4721 -1.3983
 4004SOL     OW13144   0.198   0.060   3.480 -0.1935  0.1666 -0.5474
 4004SOL    HW113145   0.117   0.037   3.435 -1.2209  1.0366  0.7657
 4004SOL    HW213146   0.224  -0.021   3.524 -1.7029  0.4407  0.9587
 4005SOL     OW13147   0.247   3.989   0.433 -0.1733  0.0032 -0.2948
 4005SOL    HW113148   0.218   4.073   0.469 -1.7995  0.8916 -3.3233
 4005SOL    HW213149   0.263   4.007   0.340  2.1923 -2.4470 -0.4813
 4006SOL     OW13150   6.014   7.878   5.976  0.0780 -0.3629 -0.1622
 4006SOL    HW113151   5.988   7.924   5.896 -2.5336  0.5959  1.1028
 4006SOL    HW213152   6.096   7.920   6.002  0.6864 -0.3247 -2.0118
 4007SOL     OW13153   2.145   2.194   9.055  0.3372  0.1763 -0.3894
 4007SOL    HW113154   2.153   2.246   8.974 -1.0089  2.0493  0.5900
 4007SOL    HW213155   2.073   2.134   9.036 -0.9995  1.6246 -0.1554
 4008SOL     OW13156   7.344   2.524   8.311  0.4729 -0.0974 -0.2612
 4008SOL    HW113157   7.280   2.590   8.285  0.6880  0.2396  0.0544
 4008SOL    HW213158   7.292   2.454   8.350  0.3531  0.6273  0.9531
 4009SOL     OW13159   7.484   8.479   0.305 -0.1400 -0.0169  0.1590
 4009SOL    HW113160   7.491   8.538   0.380 -0.1998  1.5122 -1.0042
 4009SOL    HW213161   7.563   8.495   0.254 -0.5126 -0.4148 -0.5594
 4010SOL     OW13162   5.392   3.496   5.145  0.5052  0.5565  0.0282
 4010SOL    HW113163   5.380   3.446   5.064 -0.9878  1.0042 -0.0518
 4010SOL    HW213164   5.409   3.429   5.212 -0.1234  0.0460 -0.3175
 4011SOL     OW13165   7.036   8.010   6.622 -0.0964 -0.2081  0.3328
 4011SOL    HW113166   6.969   7.943   6.631 -1.2755  1.0306  1.2069
 4011SOL    HW213167   7.002   8.070   6.556  0.6735 -0.1456 -0.0223
 4012SOL     OW13168   3.283   1.696   3.598  0.5832 -0.2711 -0.8805
 4012SOL    HW113169   3.234   1.706   3.516  0.1455 -0.9407 -0.7041
 4012SOL    HW213170   3.337   1.618   3.585 -0.8072 -1.4465  0.1012
 4013SOL     OW13171   2.347   5.533   2.843 -0.1722 -0.1741 -0.2576
 4013SOL    HW113172   2.410   5.594   2.804  0.4326 -1.1017 -0.7747
 4013SOL    HW213173   2.295   5.501   2.769 -0.1005 -0.7171 -0.0786
 4014SOL     OW13174   6.866   8.889   8.418  0.5202  0.1783 -0.1330
 4014SOL    HW113175   6.799   8.833   8.379  2.9903 -0.9693 -3.1105
 4014SOL    HW213176   6.904   8.835   8.488  0.5642 -0.4913 -0.6665
 4015SOL     OW13177   0.052   0.182   9.074  0.0306 -0.6099 -0.0590
 4015SOL    HW113178   0.062   0.089   9.052  2.2483 -0.3904 -0.2039
 4015SOL    HW213179   0.094   0.229   9.002  2.6171  0.3170  1.8948
 4016SOL     OW13180   6.252   3.152   6.778 -0.1293  0.3479  0.4993
 4016SOL    HW113181   6.283   3.088   6.714 -0.1002  3.0157 -2.4101
 4016SOL    HW213182   6.332   3.197   6.808 -0.3871  1.3838 -0.2944
 4017SOL     OW13183   2.361   5.638   1.082  0.7015  0.1499  0.2937
 4017SOL    HW113184   2.354   5.724   1.121 -1.4302 -0.1589  0.7429
 4017SOL    HW213185   2.430   5.594   1.131  1.1305  1.2627  0.7082
 4018SOL     OW13186   0.614   2.028   4.207 -0.2764  0.1445  0.0136
 4018SOL    HW113187   0.588   1.989   4.124  1.0718  0.6306 -0.6696
 4018SOL    HW213188   0.607   2.123   4.192 -0.1241  0.2371  0.4952
 4019SOL     OW13189   7.615   4.439   8.620 -0.3512  0.0914 -0.3120
 4019SOL    HW113190   7.538   4.446   8.564  1.2173  0.6075 -2.5323
 4019SOL    HW213191   7.638   4.346   8.615 -1.3694 -0.2783  1.2032
 4020SOL     OW13192   2.300   2.249   1.873  0.3443  0.0353  0.6469
 4020SOL    HW113193   2.352   2.247   1.793  0.5682 -0.1934  0.7938
 4020SOL    HW213194   2.308   2.338   1.906  0.7601 -0.0349  0.7415
 4021SOL     OW13195   6.294   6.518   8.414 -0.1950 -0.4220  0.8565
 4021SOL    HW113196   6.319   6.609   8.433 -0.7337 -0.3327  1.1937
 4021SOL    HW213197   6.199   6.523   8.400 -0.2377 -0.9441  0.9532
 4022SOL     OW13198   2.048   8.046   0.858 -0.2286  0.2823 -0.4353
 4022SOL    HW113199   2.058   8.039   0.953  1.2176  2.3338 -0.3722
 4022SOL    HW213200   2.136   8.036   0.823 -0.6432  0.2520 -1.5103
 4023SOL     OW13201   8.289   6.200   5.320  0.4805  0.2898  0.5960
 4023SOL    HW113202   8.348   6.230   5.389 -0.7001  1.2826  1.2032
 4023SOL    HW213203   8.324   6.114   5.295  2.6248  1.1452  0.3822
 4024SOL     OW13204   2.145   0.497   8.876 -0.2977 -0.1429 -0.1089
 4024SOL    HW113205   2.089   0.429   8.915  0.4712 -0.4476  0.4966
 4024SOL    HW213206   2.111   0.507   8.787 -1.1993 -0.4437  0.1842
 4025SOL     OW13207   0.164   2.456   7.704  0.2562  0.3676  0.1293
 4025SOL    HW113208   0.245   2.447   7.654  0.6709  0.8647  0.6883
 4025SOL    HW213209   0.130   2.367   7.711 -0.8936  0.4980 -2.7449
 4026SOL     OW13210   1.031   5.932   8.590 -0.5290 -0.2882 -0.3781
 4026SOL    HW113211   0.963   5.967   8.532  0.1588  2.4280  0.3342
 4026SOL    HW213212   1.113   5.945   8.542  0.0265  1.7879  1.0130
 4027SOL     OW13213   4.584   5.330   4.261 -0.0596  0.3213 -0.6358
 4027SOL    HW113214   4.598   5.386   4.185 -0.4608  0.7441 -0.4014
 4027SOL    HW213215   4.489   5.326   4.272  0.0042  0.8151  0.2377
 4028SOL     OW13216   5.238   0.901   1.715 -0.6620  0.4136  0.2819
 4028SOL    HW113217   5.256   0.835   1.649 -0.9346  1.7147 -1.1649
 4028SOL    HW213218   5.297   0.973   1.693  0.2948  0.3469  2.3669
 4029SOL     OW13219   3.593   1.309   3.805  0.0055  0.1597 -0.1959
 4029SOL    HW113220   3.599   1.302   3.710  0.5037  0.0774 -0.1649
 4029SOL    HW213221   3.519   1.253   3.829  1.4589 -1.9547 -0.3086
 4030SOL     OW13222   5.376   8.949   5.289  0.8313  0.2141  0.1118
 4030SOL    HW113223   5.454   8.998   5.315  2.0072 -1.8516  0.6667
 4030SOL    HW213224   5.339   9.000   5.216  3.0643  0.9242 -0.6079
 4031SOL     OW13225   4.201   0.193   3.845  0.1041 -0.4458  0.9274
 4031SOL    HW113226   4.208   0.130   3.916  1.4295 -0.9040  0.4178
 4031SOL    HW213227   4.291   0.211   3.818 -0.3611 -1.1379 -1.3560
 4032SOL     OW13228   8.234   1.184   5.666  0.2775 -0.0944 -0.2380
 4032SOL    HW113229   8.196   1.128   5.734  0.2484  0.8559  0.5570
 4032SOL    HW213230   8.326   1.158   5.662  0.1117 -0.6711 -0.3720
 4033SOL     OW13231   4.270   4.547   2.079 -0.1377  0.4637  0.2192
 4033SOL    HW113232   4.331   4.558   2.152 -0.9816 -0.2535  1.0630
 4033SOL    HW213233   4.191   4.593   2.106 -0.0840  1.1708 -0.7561
 4034SOL     OW13234   4.990   8.640   3.264  0.2064 -0.1552 -0.1859
 4034SOL    HW113235   4.951   8.587   3.195  1.2789  0.0315 -0.9486
 4034SOL    HW213236   4.948   8.609   3.344 -1.5169  0.0658 -0.9715
 4035SOL     OW13237   4.912   2.021   0.073 -0.0979 -0.1544  0.2125
 4035SOL    HW113238   4.871   1.938   0.099 -1.6212  0.6868  0.6424
 4035SOL    HW213239   4.909   2.075   0.152  0.3727  0.4965 -0.2085
 4036SOL     OW13240   1.646   6.557   0.058  0.0335  0.1094 -0.3116
 4036SOL    HW113241   1.698   6.635   0.071 -0.4747  0.6968 -1.5856
 4036SOL    HW213242   1.692   6.509  -0.011 -0.0498 -0.3459 -0.0536
 4037SOL     OW13243   7.836   5.916   4.402  0.1352 -0.0016  0.3061
 4037SOL    HW113244   7.905   5.977   4.375  1.1823 -1.6767 -1.0128
 4037SOL    HW213245   7.761   5.939   4.347  0.0287  1.0247  0.8588
 4038SOL     OW13246   1.449   5.996   8.602  0.6308 -0.1151  0.4263
 4038SOL    HW113247   1.525   6.022   8.550  0.4832 -0.6562 -0.0702
 4038SOL    HW213248   1.376   5.993   8.540  0.2156  0.3162  0.8842
 4039SOL     OW13249   3.434   8.551   5.377 -0.1864 -0.3032 -0.6183
 4039SOL    HW113250   3.348   8.571   5.338 -0.4050 -0.4289 -0.1991
 4039SOL    HW213251   3.490   8.533   5.301 -0.2016  1.0248 -0.9790
 4040SOL     OW13252   8.893   3.074   1.509  0.0463  0.1128  0.0573
 4040SOL    HW113253   8.886   2.978   1.507 -0.2133  0.1389 -1.1642
 4040SOL    HW213254   8.855   3.099   1.593  0.6941 -0.8906  0.6701
 4041SOL     OW13255   2.783   1.676   8.037 -0.0910  0.1131 -0.1198
 4041SOL    HW113256   2.860   1.652   7.987  0.5828  0.1611  0.8669
 4041SOL    HW213257   2.722   1.711   7.973  0.4089 -0.6377 -1.0238
 4042SOL     OW13258   5.778   6.530   0.252 -0.2427 -0.3915  0.1204
 4042SOL    HW113259   5.871   6.517   0.231 -0.1453  0.8108 -0.2980
 4042SOL    HW213260   5.744   6.442   0.266  0.4279 -1.0755 -2.0333
 4043SOL     OW13261   0.516   2.025   0.651  0.3358  0.2114 -0.0193
 4043SOL    HW113262   0.458   1.965   0.604  0.5177  0.1336 -0.1465
 4043SOL    HW213263   0.499   2.111   0.612  0.9550  0.0451 -0.6856
 4044SOL     OW13264   7.367   1.726   5.616 -0.4712  0.0186 -0.0175
 4044SOL    HW113265   7.343   1.658   5.553  2.2857 -0.8761 -0.2330
 4044SOL    HW213266   7.445   1.692   5.659 -0.0737  2.2832  1.2031
 4045SOL     OW13267   2.076   1.469   1.721  0.4346 -0.0710 -0.4009
 4045SOL    HW113268   1.985   1.441   1.735 -0.7686  3.2822 -0.5760
 4045SOL    HW213269   2.075   1.509   1.634  1.7222  1.1927  0.1283
 4046SOL     OW13270   2.159   6.544   6.276  0.6611  0.2314 -0.1238
 4046SOL    HW113271   2.187   6.591   6.198 -1.2478  0.4093 -0.7568
 4046SOL    HW213272   2.121   6.462   6.242  0.9750 -0.2757  0.7151
 4047SOL     OW13273   1.633   5.827   1.400 -0.2051 -0.2928  0.9747
 4047SOL    HW113274   1.543   5.805   1.423 -0.2343  0.5458  1.7010
 4047SOL    HW213275   1.629   5.849   1.307 -0.8151  0.0836  1.0866
 4048SOL     OW13276   1.492   2.718   8.948  0.5063 -0.0065  0.1483
 4048SOL    HW113277   1.519   2.637   8.992  1.7473 -0.3026 -1.0828
 4048SOL    HW213278   1.457   2.773   9.018  0.5546 -1.2228  1.1694
 4049SOL     OW13279   6.211   1.561   3.485 -0.2390 -0.4889  0.0017
 4049SOL    HW113280   6.180   1.558   3.576 -0.7382 -0.8080 -0.1725
 4049SOL    HW213281   6.294   1.514   3.486  0.3987  0.6010  0.5297
 4050SOL     OW13282   4.695   2.149   6.948 -0.3668  0.4103 -0.2371
 4050SOL    HW113283   4.731   2.164   6.860 -0.6615  0.9528 -0.2663
 4050SOL    HW213284   4.736   2.215   7.003  0.4627 -0.4622  0.2240
 4051SOL     OW13285   7.268   4.160   6.298  0.6879 -0.0524  0.6984
 4051SOL    HW113286   7.203   4.100   6.262  0.5486 -0.6663  1.9413
 4051SOL    HW213287   7.231   4.247   6.284 -0.8112 -0.4097  2.1060
 4052SOL     OW13288   5.157   2.310   1.990  0.8043  0.3022  0.1144
 4052SOL    HW113289   5.063   2.311   2.006  0.6053  0.7584 -0.9793
 4052SOL    HW213290   5.172   2.382   1.929  1.7518 -0.2185 -0.2966
 4053SOL     OW13291   8.917   5.519   7.444  0.8294 -0.7286 -0.2344
 4053SOL    HW113292   8.972   5.588   7.481  1.7358 -1.4306 -0.2325
 4053SOL    HW213293   8.975   5.443   7.437 -0.4202 -1.8169  0.7626
 4054SOL     OW13294   7.407   3.373   4.650  0.5503  0.1482  0.0740
 4054SOL    HW113295   7.384   3.320   4.726  1.1560  0.0041  0.1660
 4054SOL    HW213296   7.385   3.463   4.676 -0.9340 -0.0918 -0.2634
 4055SOL     OW13297   0.823   7.163   4.310  0.5930  0.0490 -0.0131
 4055SOL    HW113298   0.858   7.075   4.318 -0.2855 -0.2232  1.1583
 4055SOL    HW213299   0.747   7.154   4.251 -0.3466 -0.2674  1.2078
 4056SOL     OW13300   1.202   0.515   5.156 -0.1727 -0.3090 -0.3966
 4056SOL    HW113301   1.140   0.560   5.213 -2.3392 -1.2626 -1.8876
 4056SOL    HW213302   1.225   0.435   5.203 -2.4296 -1.3996 -1.0224
 4057SOL     OW13303   6.259   6.722   5.704 -0.3003  0.1158  0.5881
 4057SOL    HW113304   6.307   6.737   5.786  0.5234 -1.1855  0.3736
 4057SOL    HW213305   6.188   6.663   5.728  2.0228 -3.3126 -0.1357
 4058SOL     OW13306   6.647   5.009   8.466  0.8933 -0.4626 -0.0847
 4058SOL    HW113307   6.732   5.051   8.481  1.5412 -0.5998 -2.8681
 4058SOL    HW213308   6.585   5.082   8.464  1.3181 -0.1031 -0.4437
 4059SOL     OW13309   2.167   1.413   6.663  0.0533 -0.3414  0.0987
 4059SOL    HW113310   2.254   1.448   6.682  0.4975 -1.1953 -0.2798
 4059SOL    HW213311   2.106   1.480   6.694  0.8467  0.2847  0.3297
 4060SOL     OW13312   5.525   4.563   7.917 -0.6335 -0.7553  0.6419
 4060SOL    HW113313   5.508   4.486   7.863 -2.3952 -0.5629  0.8383
 4060SOL    HW213314   5.523   4.636   7.856  1.5041 -0.8468  0.3815
 4061SOL     OW13315   5.705   6.062   8.329 -0.0999 -0.7908 -0.0428
 4061SOL    HW113316   5.631   6.017   8.289  0.1501 -1.1751 -0.0814
 4061SOL    HW213317   5.702   6.036   8.421 -0.4023 -0.2776  0.0934
 4062SOL     OW13318   3.969   8.731   1.552 -0.6508 -0.5146  0.2790
 4062SOL    HW113319   4.045   8.677   1.572 -0.6435 -0.5922  0.0371
 4062SOL    HW213320   4.002   8.798   1.492 -0.4569  0.2892  1.2519
 4063SOL     OW13321   8.077   0.733   5.900 -0.3623 -0.4110 -0.5328
 4063SOL    HW113322   8.106   0.651   5.941 -2.4256 -0.2816  1.3632
 4063SOL    HW213323   8.123   0.735   5.816  2.2160 -1.9093  0.7172
 4064SOL     OW13324   0.548   2.595   9.104  0.5327  0.1064 -0.2652
 4064SOL    HW113325   0.611   2.644   9.157  1.3967 -0.8569 -0.3681
 4064SOL    HW213326   0.544   2.642   9.021  0.2872  0.7861  0.1272
 4065SOL     OW13327   5.434   5.755   4.213  0.4538 -0.2633  0.3812
 4065SOL    HW113328   5.407   5.678   4.161 -0.1670 -0.1686  0.5534
 4065SOL    HW213329   5.394   5.741   4.299 -0.5254  0.7413  0.1134
 4066SOL     OW13330   6.523   3.018   6.989  0.2524 -0.4781 -0.2253
 4066SOL    HW113331   6.546   2.939   6.939 -0.8703  0.2560 -2.0195
 4066SOL    HW213332   6.526   3.089   6.925 -2.9115  0.2729  0.2562
 4067SOL     OW13333   7.307   6.997   2.662 -0.0614  0.6496 -0.5232
 4067SOL    HW113334   7.343   7.040   2.740  2.9664 -2.6422  0.1490
 4067SOL    HW213335   7.236   6.942   2.696 -1.4721  2.2000 -0.8280
 4068SOL     OW13336   1.508   4.249   6.716 -0.1775 -0.5799  0.8520
 4068SOL    HW113337   1.504   4.198   6.797  1.0314  0.5016  1.6311
 4068SOL    HW213338   1.458   4.328   6.735 -2.1959 -1.4784 -0.4121
 4069SOL     OW13339   1.928   4.000   1.372 -0.3688 -0.0412 -0.2478
 4069SOL    HW113340   2.018   4.009   1.405 -0.2033 -0.1908 -0.6511
 4069SOL    HW213341   1.886   4.083   1.397 -0.0691  0.1045 -0.2134
 4070SOL     OW13342   3.841   7.006   3.695 -0.2135 -0.4872  0.1459
 4070SOL    HW113343   3.898   7.043   3.628  0.3708 -2.8420 -0.7759
 4070SOL    HW213344   3.886   7.025   3.777  2.0065 -2.2458 -0.5476
 4071SOL     OW13345   3.072   8.445   6.572  0.0211 -0.2015  0.0746
 4071SOL    HW113346   3.092   8.467   6.663 -2.2789  0.7248  0.4238
 4071SOL    HW213347   2.987   8.401   6.577  0.2030 -0.7821 -1.5726
 4072SOL     OW13348   2.244   2.252   5.800  0.0600 -0.2521 -0.2145
 4072SOL    HW113349   2.224   2.312   5.728 -0.2725 -0.7308 -0.5283
 4072SOL    HW213350   2.331   2.218   5.780 -0.0016 -0.3284 -0.3505
 4073SOL     OW13351   3.796   7.865   0.157 -0.2256  0.2695 -0.4801
 4073SOL    HW113352   3.890   7.883   0.150 -0.0842 -0.0331  0.4675
 4073SOL    HW213353   3.787   7.821   0.242 -1.4802  2.0305  0.3487
 4074SOL     OW13354   0.011   5.486   6.474 -0.5072  1.0233  0.2944
 4074SOL    HW113355   0.038   5.570   6.511  0.0555 -0.2403  3.0654
 4074SOL    HW213356  -0.059   5.455   6.532 -1.3310 -0.0391 -1.1962
 4075SOL     OW13357   8.280   2.885   7.329 -0.2335  0.1948  0.4986
 4075SOL    HW113358   8.185   2.887   7.334 -0.2508  1.1323  0.0489
 4075SOL    HW213359   8.304   2.797   7.357 -1.0080  0.9666  4.1795
 4076SOL     OW13360   0.935   4.695   3.684 -0.5374 -0.0668 -0.5503
 4076SOL    HW113361   0.966   4.738   3.604 -1.3063 -0.1451 -0.9005
 4076SOL    HW213362   0.949   4.602   3.667  1.9410  0.0092  0.5493
 4077SOL     OW13363   2.536   4.765   7.093  0.6901 -0.3931 -0.0200
 4077SOL    HW113364   2.570   4.855   7.088 -0.3803 -0.0320 -1.1970
 4077SOL    HW213365   2.447   4.775   7.126  1.8972 -1.4143  4.0632
 4078SOL     OW13366   7.678   5.140   7.602  0.3234  0.4274  0.1562
 4078SOL    HW113367   7.616   5.140   7.529  0.5284 -3.0245 -0.2283
 4078SOL    HW213368   7.749   5.082   7.572  0.3651 -1.2119  3.0458
 4079SOL     OW13369   4.663   8.190   2.356 -0.4183  0.1748 -0.4031
 4079SOL    HW113370   4.594   8.252   2.377 -0.1909 -0.4737  2.7625
 4079SOL    HW213371   4.728   8.241   2.307 -0.4381  2.3738  1.6921
 4080SOL     OW13372   0.191   7.010   0.352  0.0254  0.3615  0.6316
 4080SOL    HW113373   0.228   7.066   0.419 -0.0785 -0.0972  1.0831
 4080SOL    HW213374   0.096   7.018   0.364 -0.0043  0.5880  0.2737
 4081SOL     OW13375   4.771   0.087   2.361 -0.3357 -0.0818  0.0771
 4081SOL    HW113376   4.748   0.094   2.453  0.2296  0.2368  0.1944
 4081SOL    HW213377   4.688   0.102   2.314 -0.2280  1.9539  0.4627
 4082SOL     OW13378   0.142   8.286   2.501 -0.8290  0.0183 -0.1783
 4082SOL    HW113379   0.076   8.247   2.558 -1.3894 -0.2123 -0.9688
 4082SOL    HW213380   0.092   8.336   2.437 -0.2411 -0.1766 -0.8000
 4083SOL     OW13381   8.334   1.684   7.966  0.2074 -0.3843  0.2301
 4083SOL    HW113382   8.385   1.604   7.954 -1.5647 -1.5129 -0.2926
 4083SOL    HW213383   8.339   1.727   7.881  0.1309 -0.5973  0.1153
 4084SOL     OW13384   8.471   3.864   5.778 -0.6515 -0.3160  0.3078
 4084SOL    HW113385   8.531   3.808   5.829 -1.7643 -1.7042  0.1474
 4084SOL    HW213386   8.446   3.810   5.703 -1.3500  0.6101 -0.1451
 4085SOL     OW13387   8.529   4.993   6.690 -0.3186 -0.2210  0.4567
 4085SOL    HW113388   8.476   5.011   6.612 -0.2636  0.7058  0.6199
 4085SOL    HW213389   8.469   5.010   6.763 -1.1007 -3.2716  0.6778
 4086SOL     OW13390   0.237   8.864   5.067  0.3054 -0.0567  0.3100
 4086SOL    HW113391   0.219   8.958   5.062  1.8964  0.3343  1.1882
 4086SOL    HW213392   0.248   8.837   4.976  2.0869  1.1314  0.1129
 4087SOL     OW13393   1.328   9.005   7.692 -0.3306  0.3575  0.5761
 4087SOL    HW113394   1.404   8.961   7.655  0.7010  1.6686  1.0603
 4087SOL    HW213395   1.254   8.971   7.642  0.6185 -0.5534 -0.2567
 4088SOL     OW13396   3.969   3.294   4.440 -0.2329  0.3068  0.2112
 4088SOL    HW113397   3.888   3.249   4.418 -0.1311 -0.4578  1.3088
 4088SOL    HW213398   3.952   3.386   4.420 -1.1936  0.0840 -0.0403
 4089SOL     OW13399   6.553   8.574   3.616 -0.2493  0.2730  0.2092
 4089SOL    HW113400   6.511   8.604   3.536  0.2682  2.3280  0.6503
 4089SOL    HW213401   6.500   8.611   3.687  0.2477 -0.1234  0.8021
 4090SOL     OW13402   1.312   4.142   7.000 -0.0515 -0.3112 -0.6079
 4090SOL    HW113403   1.308   4.172   7.091  0.0819  0.3068 -0.7975
 4090SOL    HW213404   1.401   4.109   6.989  0.5146  1.2520 -0.9945
 4091SOL     OW13405   4.478   7.231   4.657 -0.1535 -0.2737  0.2528
 4091SOL    HW113406   4.386   7.239   4.630 -0.0955  3.0194  0.5704
 4091SOL    HW213407   4.474   7.237   4.753  0.3765 -0.1728  0.2697
 4092SOL     OW13408   2.668   6.457   3.918 -0.5141  0.1064 -0.0172
 4092SOL    HW113409   2.744   6.404   3.943  0.6820  1.6602 -0.2045
 4092SOL    HW213410   2.656   6.519   3.990  0.6116  2.1333 -1.4484
 4093SOL     OW13411   0.921   8.598   8.820  0.8380 -0.0180 -0.1164
 4093SOL    HW113412   0.928   8.590   8.915  0.4861 -0.9932 -0.1583
 4093SOL    HW213413   0.827   8.597   8.802  0.9093 -0.4191 -0.5067
 4094SOL     OW13414   5.764   5.602   7.803 -0.3745 -0.7161  0.2078
 4094SOL    HW113415   5.717   5.676   7.842 -0.0559 -0.2682 -0.2339
 4094SOL    HW213416   5.749   5.529   7.862 -0.7614 -0.3124  0.6109
 4095SOL     OW13417   7.319   7.738   8.611 -0.6962 -0.2040 -0.1854
 4095SOL    HW113418   7.337   7.709   8.521 -1.8724  0.3502 -0.6218
 4095SOL    HW213419   7.406   7.755   8.648 -0.1471 -1.2664 -0.9243
 4096SOL     OW13420   8.897   3.809   2.360  0.2004  0.2186 -0.0746
 4096SOL    HW113421   8.971   3.751   2.344 -0.6894 -0.7323 -0.8446
 4096SOL    HW213422   8.905   3.878   2.294  0.6399  0.3749  0.1369
 4097SOL     OW13423   6.180   9.050   4.569 -0.6652  0.3430  0.2778
 4097SOL    HW113424   6.113   9.019   4.508 -0.7052  2.7170 -0.9794
 4097SOL    HW213425   6.140   9.124   4.614  0.4394  0.5289  0.9974
 4098SOL     OW13426   5.158   4.381   1.444  0.0334  0.5299  0.2557
 4098SOL    HW113427   5.120   4.443   1.506  0.8150 -0.6432  2.0103
 4098SOL    HW213428   5.248   4.411   1.432 -0.3632  1.2706 -1.0877
 4099SOL     OW13429   8.392   1.223   5.300  0.2511 -0.8317 -0.1617
 4099SOL    HW113430   8.464   1.190   5.246 -1.5545 -2.6693 -1.6199
 4099SOL    HW213431   8.396   1.318   5.290  1.0490 -1.0288 -2.1827
 4100SOL     OW13432   7.572   0.729   2.547  0.0733  0.2457  0.4822
 4100SOL    HW113433   7.618   0.750   2.466  1.1477  0.0821  1.0413
 4100SOL    HW213434   7.519   0.807   2.565 -1.2076 -0.1977 -1.0437
 4101SOL     OW13435   7.164   5.518   1.966 -0.0229  0.8580 -0.2815
 4101SOL    HW113436   7.255   5.539   1.988  0.0480  0.3626 -0.0906
 4101SOL    HW213437   7.169   5.432   1.925 -0.4412  0.7005 -0.0036
 4102SOL     OW13438   3.845   4.574   4.881 -0.0082 -0.5275 -0.3179
 4102SOL    HW113439   3.797   4.609   4.956 -0.2668 -3.5078  1.0587
 4102SOL    HW213440   3.937   4.594   4.900 -0.2493  1.0260 -0.5984
 4103SOL     OW13441   2.938   8.173   0.909 -0.9427 -0.1825  0.3643
 4103SOL    HW113442   2.910   8.186   1.000 -0.1777 -2.5794  1.0284
 4103SOL    HW213443   3.019   8.223   0.902  1.8977 -3.8551  2.7666
 4104SOL     OW13444   5.436   6.197   8.868 -0.3416  0.5474 -0.0088
 4104SOL    HW113445   5.520   6.226   8.832  1.2056 -0.6756  2.4075
 4104SOL    HW213446   5.372   6.218   8.799  1.9497  1.2542 -2.0507
 4105SOL     OW13447   6.708   2.911   7.962  0.0372  0.2213 -0.1562
 4105SOL    HW113448   6.787   2.867   7.932 -0.6717 -2.2642  1.3983
 4105SOL    HW213449   6.640   2.882   7.902  0.0790  1.7578 -1.0204
 4106SOL     OW13450   2.017   0.533   1.703  0.2495 -0.3015 -0.3023
 4106SOL    HW113451   2.007   0.497   1.791  4.2178 -1.9678 -0.2988
 4106SOL    HW213452   2.058   0.619   1.716  0.6880 -0.4789 -0.4664
 4107SOL     OW13453   0.816   0.875   3.995 -0.0525 -0.5673  0.2969
 4107SOL    HW113454   0.883   0.942   3.983 -0.0654 -0.6269 -0.1120
 4107SOL    HW213455   0.863   0.800   4.031 -0.0520 -0.3149  0.8367
 4108SOL     OW13456   1.266   7.481   8.115  0.1529  0.0521 -0.1089
 4108SOL    HW113457   1.218   7.554   8.152  0.0341 -0.0299 -0.1017
 4108SOL    HW213458   1.248   7.408   8.173  1.5120  0.3761  0.7745
 4109SOL     OW13459   7.779   1.494   7.443 -0.8179  0.1145 -0.0150
 4109SOL    HW113460   7.859   1.543   7.460  0.1006 -1.3178 -0.0472
 4109SOL    HW213461   7.728   1.550   7.384  0.1736  1.0211 -0.0262
 4110SOL     OW13462   6.534   3.642   0.735 -0.2075 -0.1482  0.2467
 4110SOL    HW113463   6.570   3.716   0.686 -0.4558  0.8753  1.5388
 4110SOL    HW213464   6.591   3.635   0.812 -0.0135 -1.5092  0.0027
 4111SOL     OW13465   5.291   8.443   4.452 -0.2717  0.5758  0.3868
 4111SOL    HW113466   5.238   8.427   4.374 -0.4043 -0.9920  0.7675
 4111SOL    HW213467   5.227   8.450   4.523 -0.0708  0.3600  0.5918
 4112SOL     OW13468   4.678   5.937   8.423 -0.0169  0.5741  0.2520
 4112SOL    HW113469   4.647   5.891   8.501 -2.4012  1.3762 -0.1135
 4112SOL    HW213470   4.644   5.886   8.349  0.9930  0.5998 -0.2528
 4113SOL     OW13471   5.627   8.792   8.751  0.4283  0.4815 -0.4169
 4113SOL    HW113472   5.691   8.734   8.792 -0.0945  0.0818 -0.1392
 4113SOL    HW213473   5.542   8.751   8.770 -0.1986  2.6143  2.0301
 4114SOL     OW13474   7.332   6.230   3.798 -0.6920  0.6962  0.1699
 4114SOL    HW113475   7.336   6.169   3.725 -1.0059  0.7929  0.0684
 4114SOL    HW213476   7.377   6.185   3.870 -1.5986  0.0135  0.3263
 4115SOL     OW13477   8.136   2.396   1.001  0.1375  0.2113 -0.0379
 4115SOL    HW113478   8.170   2.400   0.911 -0.8333 -0.6286 -0.4606
 4115SOL    HW213479   8.213   2.413   1.056  1.1949 -1.2948 -0.9692
 4116SOL     OW13480   4.522   0.099   4.475 -0.2423 -0.2880  0.5456
 4116SOL    HW113481   4.463   0.164   4.513  1.3181  1.3339  0.2870
 4116SOL    HW213482   4.494   0.092   4.384  1.4884  2.4329 -0.2956
 4117SOL     OW13483   3.989   5.704   6.786 -0.2021 -0.4443  0.3300
 4117SOL    HW113484   4.007   5.702   6.880  1.4646  0.3168  0.0687
 4117SOL    HW213485   3.951   5.791   6.771 -0.9136 -0.7472  0.3676
 4118SOL     OW13486   1.846   0.031   4.905 -0.4204  0.0751 -0.1553
 4118SOL    HW113487   1.810   0.025   4.993 -0.6328  1.9402 -0.0768
 4118SOL    HW213488   1.933  -0.007   4.912 -0.4464  0.1740  0.8343
 4119SOL     OW13489   3.755   2.760   8.696 -0.2358 -0.0783  0.0149
 4119SOL    HW113490   3.725   2.710   8.772  2.7578 -0.0196  1.3852
 4119SOL    HW213491   3.759   2.850   8.725  1.2650 -0.0973 -0.0210
 4120SOL     OW13492   5.026   5.074   3.886  0.3401  0.0711  0.3092
 4120SOL    HW113493   5.039   5.152   3.939  1.2178  0.2918 -0.2033
 4120SOL    HW213494   5.019   5.003   3.949  0.4307  0.4491  0.7523
 4121SOL     OW13495   0.205   7.351   1.026  0.0910 -0.2714  0.3343
 4121SOL    HW113496   0.127   7.394   0.990  0.7906  1.4579  0.7930
 4121SOL    HW213497   0.243   7.416   1.085  1.9535 -1.0395  0.0433
 4122SOL     OW13498   4.399   1.462   4.168  0.3975 -1.0812 -0.7843
 4122SOL    HW113499   4.396   1.512   4.086 -0.8012 -1.0291 -0.7302
 4122SOL    HW213500   4.401   1.371   4.141 -2.7494 -1.2077 -0.9531
 4123SOL     OW13501   9.068   4.652   1.062 -0.4301 -0.0717  0.2579
 4123SOL    HW113502   9.139   4.680   1.004  0.4114 -0.2286  1.2003
 4123SOL    HW213503   9.110   4.596   1.126 -1.3543  0.0951  1.0248
 4124SOL     OW13504   0.578   4.313   7.563  0.3692  0.0161 -0.0523
 4124SOL    HW113505   0.532   4.241   7.521  0.3609  0.7336 -1.3217
 4124SOL    HW213506   0.666   4.279   7.581  1.3861  0.5129 -3.3773
 4125SOL     OW13507   5.118   2.940   5.266 -0.1245  0.1031 -0.6433
 4125SOL    HW113508   5.037   2.912   5.223 -1.8015  1.4899  1.3739
 4125SOL    HW213509   5.179   2.868   5.253 -2.3646 -1.9283 -0.4674
 4126SOL     OW13510   8.887   3.919   6.474  0.0834 -0.6384  0.0562
 4126SOL    HW113511   8.973   3.913   6.431 -0.1004  1.0863 -0.5925
 4126SOL    HW213512   8.824   3.908   6.403 -0.2945 -2.3477  0.5938
 4127SOL     OW13513   0.439   2.684   7.080 -0.4098  0.5967  0.1267
 4127SOL    HW113514   0.462   2.610   7.136 -1.3316  1.1527  1.2871
 4127SOL    HW213515   0.518   2.738   7.077  0.1621 -0.2521 -0.4672
 4128SOL     OW13516   8.511   1.778   6.794  0.1757  0.4225  0.3344
 4128SOL    HW113517   8.458   1.731   6.858  0.5127 -0.2153  0.1452
 4128SOL    HW213518   8.455   1.786   6.717 -0.0013  0.6285  0.4856
 4129SOL     OW13519   4.830   0.075   5.559 -0.6937  0.7692 -0.3453
 4129SOL    HW113520   4.804   0.061   5.650 -0.3502  1.5087 -0.1234
 4129SOL    HW213521   4.783   0.154   5.532 -1.9076 -0.2286 -1.2798
 4130SOL     OW13522   0.413   4.117   2.830  0.0415  0.4605  0.7305
 4130SOL    HW113523   0.489   4.116   2.771 -1.0088  1.9897 -0.7661
 4130SOL    HW213524   0.439   4.062   2.903  1.3038 -1.8505 -1.2929
 4131SOL     OW13525   1.167   7.730   5.671  0.2728  0.2404 -0.3417
 4131SOL    HW113526   1.216   7.648   5.679 -1.0631 -0.5732 -0.2348
 4131SOL    HW213527   1.078   7.708   5.699 -0.1139  1.7337 -0.3060
 4132SOL     OW13528   0.106   4.076   0.127 -0.2552  0.3842  0.6572
 4132SOL    HW113529   0.041   4.035   0.070 -0.2666  0.0841  0.8798
 4132SOL    HW213530   0.143   4.147   0.075 -1.9476  1.6624  1.0852
 4133SOL     OW13531   1.213   2.330   3.320  0.3423  0.5538  0.1021
 4133SOL    HW113532   1.128   2.322   3.277  0.2665  0.0284  0.3418
 4133SOL    HW213533   1.206   2.409   3.373  0.2222  0.8612 -0.3658
 4134SOL     OW13534   4.899   2.701   7.380  0.0784 -0.0151  0.0114
 4134SOL    HW113535   4.856   2.757   7.314 -0.8064  0.2955  0.8338
 4134SOL    HW213536   4.959   2.760   7.426  0.0510 -0.0324  0.0692
 4135SOL     OW13537   6.033   0.771   5.901  0.1620  0.6485  0.1096
 4135SOL    HW113538   5.994   0.784   5.987  0.6883 -1.2283  0.6744
 4135SOL    HW213539   6.125   0.793   5.912  0.3714 -0.2435  0.2253
 4136SOL     OW13540   3.712   0.372   2.508 -0.0997  0.1926  0.7878
 4136SOL    HW113541   3.644   0.390   2.573  0.0013  2.3317  0.3922
 4136SOL    HW213542   3.761   0.298   2.544 -2.4065 -1.2074  1.2223
 4137SOL     OW13543   2.898   1.212   4.332  0.3311  0.1268  0.0518
 4137SOL    HW113544   2.873   1.123   4.306 -0.2999  0.0797  0.7872
 4137SOL    HW213545   2.874   1.266   4.257  0.9953 -0.3549 -0.5218
 4138SOL     OW13546   5.361   6.473   1.231  0.2177 -0.3462 -0.1082
 4138SOL    HW113547   5.284   6.500   1.280  0.2671  1.7395 -1.0841
 4138SOL    HW213548   5.435   6.498   1.286  0.2739  2.0153 -1.1333
 4139SOL     OW13549   5.930   2.890   1.405 -0.1196  0.4111 -0.0111
 4139SOL    HW113550   5.969   2.948   1.339 -0.6055 -0.6874 -1.2964
 4139SOL    HW213551   5.987   2.813   1.406 -0.4621  0.1589  0.4200
 4140SOL     OW13552   2.883   8.226   3.534 -0.1295  0.0770 -0.8422
 4140SOL    HW113553   2.807   8.169   3.526 -0.6370  0.4700  0.7652
 4140SOL    HW213554   2.940   8.181   3.596 -0.1206  0.8590 -0.2686
 4141SOL     OW13555   4.810   1.688   4.469  0.1188 -0.4351 -0.3731
 4141SOL    HW113556   4.770   1.618   4.417  0.9660  0.1587 -1.9098
 4141SOL    HW213557   4.831   1.646   4.553 -4.8444 -0.4425  1.1934
 4142SOL     OW13558   5.047   1.377   2.402  0.3595 -0.0941  0.0630
 4142SOL    HW113559   5.074   1.459   2.443  0.9996  0.0023 -0.5270
 4142SOL    HW213560   5.044   1.314   2.474  0.0271  0.4030  0.4926
 4143SOL     OW13561   3.858   5.066   3.054 -0.3890  0.5203  0.0828
 4143SOL    HW113562   3.816   4.987   3.018 -0.0175 -0.4424  1.6578
 4143SOL    HW213563   3.807   5.087   3.132 -0.5183  1.9130 -0.3443
 4144SOL     OW13564   1.171   8.206   3.224  0.3458  0.4696  0.1628
 4144SOL    HW113565   1.124   8.149   3.284 -0.8399 -0.2045 -1.3427
 4144SOL    HW213566   1.263   8.190   3.243  0.0499 -1.9188 -0.1660
 4145SOL     OW13567   2.273   8.181   8.110  0.1273 -0.0130  0.4509
 4145SOL    HW113568   2.285   8.273   8.086  0.1346  0.1221  0.9449
 4145SOL    HW213569   2.223   8.184   8.192 -1.0130 -0.4969 -0.2091
 4146SOL     OW13570   5.788   8.188   6.501 -0.4945 -0.2541 -0.4979
 4146SOL    HW113571   5.715   8.136   6.467 -1.0410  0.7177 -0.8582
 4146SOL    HW213572   5.775   8.275   6.463  1.6644 -0.4113 -1.7627
 4147SOL     OW13573   3.264   1.375   1.097 -0.0990  0.2323  0.1860
 4147SOL    HW113574   3.298   1.370   1.186 -0.9172 -2.4022  0.4297
 4147SOL    HW213575   3.290   1.293   1.056  0.0971  1.2855 -1.9971
 4148SOL     OW13576   0.210   7.286   8.415  0.1884 -0.1370  0.0682
 4148SOL    HW113577   0.214   7.249   8.327  0.8795  1.4625 -0.6214
 4148SOL    HW213578   0.262   7.366   8.409  0.0572  0.1187  1.8828
 4149SOL     OW13579   3.732   6.702   4.864  0.2747 -0.5341  0.0567
 4149SOL    HW113580   3.721   6.793   4.836  0.0205 -0.8457 -0.8799
 4149SOL    HW213581   3.666   6.654   4.815  0.5738 -1.2674  0.3661
 4150SOL     OW13582   6.048   3.154   5.122  0.1483 -0.4247 -0.0584
 4150SOL    HW113583   6.070   3.198   5.040 -1.2838 -1.2759 -0.9409
 4150SOL    HW213584   5.968   3.198   5.151 -0.4914 -1.4760 -0.1987
 4151SOL     OW13585   0.671   3.140   3.518  0.1840 -0.0216  0.0302
 4151SOL    HW113586   0.599   3.202   3.520  0.1900 -0.0200  0.2068
 4151SOL    HW213587   0.666   3.100   3.431  0.1266  0.1604 -0.0497
 4152SOL     OW13588   0.298   0.851   4.213  0.0718 -0.4076  0.5021
 4152SOL    HW113589   0.338   0.937   4.230 -1.5762  0.7679 -1.0811
 4152SOL    HW213590   0.205   0.865   4.229 -0.5130 -1.2807 -1.7836
 4153SOL     OW13591   1.512   8.930   0.871  0.0402 -0.4397 -0.4999
 4153SOL    HW113592   1.560   8.999   0.915  0.1077  0.6047 -2.1081
 4153SOL    HW213593   1.569   8.904   0.798  0.9670 -3.6842  1.1836
 4154SOL     OW13594   4.528   0.566   6.488  0.4039 -0.6129  0.1170
 4154SOL    HW113595   4.582   0.609   6.421 -0.5823 -0.4812 -0.6206
 4154SOL    HW213596   4.438   0.593   6.467 -0.3599 -3.5688 -0.8258
 4155SOL     OW13597   3.474   6.758   0.719 -0.0873 -0.5218 -0.2996
 4155SOL    HW113598   3.519   6.685   0.761 -1.3611 -2.3850 -1.9651
 4155SOL    HW213599   3.417   6.717   0.654  0.5461  2.0411 -2.7018
 4156SOL     OW13600   4.590   7.555   3.557  0.2295 -0.5187 -0.2104
 4156SOL    HW113601   4.652   7.556   3.630  0.4192  3.2388 -0.2439
 4156SOL    HW213602   4.643   7.529   3.481  0.5033 -2.4073  0.5773
 4157SOL     OW13603   0.824   9.054   8.884  0.5683 -0.3267  0.4062
 4157SOL    HW113604   0.910   9.027   8.851 -0.3288 -0.7881 -1.7429
 4157SOL    HW213605   0.780   9.090   8.807  0.0491  3.2214  2.1796
 4158SOL     OW13606   1.804   1.993   3.767  0.5229 -0.0156 -0.2111
 4158SOL    HW113607   1.887   1.946   3.770  1.3280  1.4005  0.6534
 4158SOL    HW213608   1.824   2.075   3.722 -0.6592 -0.0823 -0.9167
 4159SOL     OW13609   4.158   0.771   8.512 -0.2284 -0.2654 -0.6152
 4159SOL    HW113610   4.192   0.859   8.498  0.0641 -0.2351  0.2105
 4159SOL    HW213611   4.161   0.759   8.607  1.4329 -1.8360 -0.8023
 4160SOL     OW13612   5.821   2.850   5.162  0.3133  0.2820 -0.1791
 4160SOL    HW113613   5.750   2.822   5.104  0.5800 -1.1407  0.1391
 4160SOL    HW213614   5.886   2.889   5.104  0.2551 -0.4647 -0.7580
 4161SOL     OW13615   5.980   4.684   2.438 -0.1766  0.1328  0.3741
 4161SOL    HW113616   5.954   4.625   2.509  0.6145 -1.0220 -0.2673
 4161SOL    HW213617   5.927   4.657   2.363  0.0173  0.4024  0.1367
 4162SOL     OW13618   2.422   3.266   7.988  0.3739  1.2492 -0.3229
 4162SOL    HW113619   2.490   3.256   7.920  1.0183 -1.1083  0.5703
 4162SOL    HW213620   2.343   3.230   7.948  0.6952  0.0862  0.0594
 4163SOL     OW13621   4.071   3.329   6.055 -0.7024  0.2887  0.6308
 4163SOL    HW113622   4.160   3.301   6.033 -0.5644 -0.9394  2.5658
 4163SOL    HW213623   4.056   3.405   5.999  0.7983 -0.6659 -1.1951
 4164SOL     OW13624   2.527   5.374   2.984  0.0850  0.2755  0.2115
 4164SOL    HW113625   2.450   5.358   2.929  1.2880 -0.0250 -1.4903
 4164SOL    HW213626   2.494   5.425   3.058 -2.0401 -1.3464  0.4676
 4165SOL     OW13627   2.216   6.881   1.508 -0.5460  0.1544 -0.5290
 4165SOL    HW113628   2.294   6.909   1.555 -1.5358  3.0797 -0.4442
 4165SOL    HW213629   2.152   6.950   1.524 -2.4212 -1.0116 -2.4513
 4166SOL     OW13630   5.347   0.807   5.748  0.0282  0.5968  0.4180
 4166SOL    HW113631   5.361   0.712   5.755 -0.2530  0.6386  1.9641
 4166SOL    HW213632   5.432   0.841   5.721  0.0640 -0.1098 -0.4228
 4167SOL     OW13633   3.760   5.117   0.933 -0.0128  0.3194 -0.6146
 4167SOL    HW113634   3.683   5.125   0.989 -0.8165 -0.4311 -1.5723
 4167SOL    HW213635   3.775   5.206   0.899 -1.4923  0.1619 -1.7375
 4168SOL     OW13636   2.018   3.091   0.921  0.4059  0.4716 -0.5234
 4168SOL    HW113637   2.013   3.022   0.987  2.0045  0.3006 -0.5365
 4168SOL    HW213638   1.982   3.051   0.842  2.8282 -0.9948 -0.9921
 4169SOL     OW13639   0.936   4.500   0.898  0.4602  0.1372  0.0115
 4169SOL    HW113640   0.897   4.559   0.834  0.1495  1.5385  1.4335
 4169SOL    HW213641   0.904   4.413   0.873 -0.2794  0.7384 -1.2438
 4170SOL     OW13642   0.422   3.717   2.404 -0.2116  0.1001  0.6419
 4170SOL    HW113643   0.485   3.654   2.370 -1.1261 -0.8414  0.6586
 4170SOL    HW213644   0.349   3.664   2.436 -1.6637  1.2160 -0.6790
 4171SOL     OW13645   3.989   2.210   5.088  0.3653  0.2566  0.1285
 4171SOL    HW113646   4.084   2.207   5.085  0.3887  1.2917 -0.3960
 4171SOL    HW213647   3.962   2.211   4.996 -0.1103  0.8920  0.2691
 4172SOL     OW13648   1.439   5.052   4.635  0.4176 -0.0786 -0.1979
 4172SOL    HW113649   1.415   5.092   4.719  0.0862  0.1745 -0.4086
 4172SOL    HW213650   1.366   4.993   4.616  0.6790 -0.4317 -0.1209
 4173SOL     OW13651   8.757   0.301   0.921 -0.3516 -0.6194 -0.0936
 4173SOL    HW113652   8.811   0.286   0.844  1.2470  2.6756  0.1797
 4173SOL    HW213653   8.672   0.262   0.899  0.0029  0.2165 -3.5798
 4174SOL     OW13654   4.329   4.483   8.199  0.3787 -0.0916  0.3651
 4174SOL    HW113655   4.340   4.456   8.290  0.7898  1.1351  0.6985
 4174SOL    HW213656   4.245   4.529   8.197  0.5033  0.1326  0.1933
 4175SOL     OW13657   0.923   2.648   3.763 -0.0987 -0.8184  0.8311
 4175SOL    HW113658   0.959   2.565   3.733 -1.3389  0.0660 -3.8902
 4175SOL    HW213659   0.999   2.702   3.784  0.9869 -1.5752 -0.9662
 4176SOL     OW13660   7.090   7.505   0.073  0.1013  0.0933  0.4437
 4176SOL    HW113661   7.151   7.521   0.145  0.9982 -1.7175  0.1495
 4176SOL    HW213662   7.005   7.532   0.108  0.6204 -0.1040  1.9463
 4177SOL     OW13663   0.635   4.082   7.067 -0.4275 -0.0545  0.5552
 4177SOL    HW113664   0.579   4.148   7.108  0.8683  2.0973 -0.8987
 4177SOL    HW213665   0.661   4.121   6.983  1.7856 -1.6835  0.3830
 4178SOL     OW13666   4.652   8.115   1.793 -0.0510  0.8701  0.1457
 4178SOL    HW113667   4.661   8.037   1.849 -1.5218 -0.4791 -1.3622
 4178SOL    HW213668   4.741   8.139   1.770  0.4316 -0.6369  0.3290
 4179SOL     OW13669   4.034   8.436   2.970 -0.3973  0.2087 -0.0527
 4179SOL    HW113670   4.102   8.380   2.933 -1.2909 -0.0694 -1.3400
 4179SOL    HW213671   4.016   8.397   3.056  0.9813  0.2420  0.2741
 4180SOL     OW13672   8.240   5.899   4.010  0.9007 -0.1996  0.1987
 4180SOL    HW113673   8.257   5.856   4.094  2.0061 -1.6045 -0.6891
 4180SOL    HW213674   8.301   5.857   3.949 -0.1044  0.5404 -1.3845
 4181SOL     OW13675   4.357   6.783   2.896  0.4412  0.4856 -0.3219
 4181SOL    HW113676   4.289   6.721   2.924 -1.8953  2.5714 -1.0141
 4181SOL    HW213677   4.430   6.728   2.870 -1.1974 -1.9427 -0.1196
 4182SOL     OW13678   3.401   2.399   8.777 -0.4972 -0.1268 -0.4122
 4182SOL    HW113679   3.449   2.418   8.697  1.4829 -0.4037  0.6593
 4182SOL    HW213680   3.362   2.483   8.802  0.0584  0.2837 -0.8883
 4183SOL     OW13681   1.613   2.966   0.824  0.7249 -0.1159 -0.0329
 4183SOL    HW113682   1.577   3.053   0.840 -1.8151 -1.2806  1.2243
 4183SOL    HW213683   1.674   2.951   0.896  0.8305  0.4536 -0.0035
 4184SOL     OW13684   5.777   0.718   8.556 -0.0192 -0.2248 -0.3096
 4184SOL    HW113685   5.852   0.711   8.616  0.5177 -0.2021 -0.9747
 4184SOL    HW213686   5.800   0.790   8.497 -1.0684  0.5481  0.1832
 4185SOL     OW13687   2.111   8.968   2.465 -0.0733  0.2561  0.0441
 4185SOL    HW113688   2.194   8.980   2.418 -0.6760 -0.7233 -1.3389
 4185SOL    HW213689   2.069   9.054   2.460  0.5457  0.5745  0.1538
 4186SOL     OW13690   1.267   5.565   1.359  0.6702  0.0764  0.2668
 4186SOL    HW113691   1.254   5.553   1.265  0.8317 -2.0529  0.4654
 4186SOL    HW213692   1.179   5.571   1.395  0.5313  4.3641 -0.2725
 4187SOL     OW13693   1.746   5.471   8.082  0.7580 -0.8290  0.0066
 4187SOL    HW113694   1.813   5.404   8.066  0.3858 -1.0689 -0.6025
 4187SOL    HW213695   1.678   5.425   8.131  0.6847 -0.7933 -0.0613
 4188SOL     OW13696   2.854   1.084   5.653 -0.2311 -0.2195  0.1780
 4188SOL    HW113697   2.772   1.043   5.626 -0.6873  0.8198 -0.0589
 4188SOL    HW213698   2.832   1.133   5.731 -0.1441  1.0991 -0.5976
 4189SOL     OW13699   5.917   6.924   8.077 -0.0678 -0.2078  0.3156
 4189SOL    HW113700   5.991   6.916   8.138  1.5203  1.3367 -1.2603
 4189SOL    HW213701   5.940   6.866   8.004 -0.6420 -0.0616  0.0115
 4190SOL     OW13702   8.999   7.743   4.818 -0.5067  0.5315 -0.1096
 4190SOL    HW113703   8.961   7.705   4.898 -0.2859 -0.4873 -0.4690
 4190SOL    HW213704   8.940   7.815   4.795 -1.0507  0.2944  0.5036
 4191SOL     OW13705   7.694   5.885   6.273  0.0793 -0.0610  0.5237
 4191SOL    HW113706   7.787   5.909   6.270  0.0980  0.1840  2.2353
 4191SOL    HW213707   7.688   5.817   6.339 -1.1190  0.8119  1.3685
 4192SOL     OW13708   1.229   0.368   4.746 -0.0628  0.6557 -0.1378
 4192SOL    HW113709   1.165   0.345   4.678  2.3919 -0.8468 -2.1330
 4192SOL    HW213710   1.276   0.443   4.710  1.5026 -0.3727 -0.3281
 4193SOL     OW13711   7.269   4.489   3.809 -0.7087  0.0775 -0.2897
 4193SOL    HW113712   7.270   4.438   3.728  1.2796 -0.8995  0.2831
 4193SOL    HW213713   7.273   4.580   3.781  0.5183 -0.2584 -1.3144
 4194SOL     OW13714   7.404   7.826   7.471  0.2836  0.5121 -0.0920
 4194SOL    HW113715   7.344   7.891   7.508  2.1162  1.8074  0.7775
 4194SOL    HW213716   7.453   7.874   7.405  0.5893 -0.4290 -0.5561
 4195SOL     OW13717   1.144   8.805   7.572 -0.1967 -0.1083 -0.0909
 4195SOL    HW113718   1.101   8.819   7.488  0.1299 -0.4363 -0.3177
 4195SOL    HW213719   1.073   8.804   7.636 -0.3146  1.7009 -0.1493
 4196SOL     OW13720   4.174   7.280   0.263  0.3492  0.0980  0.0539
 4196SOL    HW113721   4.224   7.217   0.315  0.4277 -0.2701 -0.4609
 4196SOL    HW213722   4.089   7.238   0.250  1.6746 -1.9499 -3.8862
 4197SOL     OW13723   2.300   1.561   0.640 -0.1257 -0.2846 -0.1165
 4197SOL    HW113724   2.307   1.543   0.734 -0.6169 -2.3919 -0.4272
 4197SOL    HW213725   2.208   1.586   0.628 -0.0093  0.2018 -0.0140
 4198SOL     OW13726   7.082   3.897   2.629  0.1442 -0.3222  0.2678
 4198SOL    HW113727   7.137   3.856   2.696  1.0396  1.5127  0.7147
 4198SOL    HW213728   7.117   3.865   2.546  1.3172  0.1300  0.5807
 4199SOL     OW13729   1.760   3.386   0.727  0.2562 -0.1191  0.0417
 4199SOL    HW113730   1.778   3.412   0.637  0.8730  0.9697  0.4588
 4199SOL    HW213731   1.823   3.436   0.779  1.0302 -1.9444  0.9548
 4200SOL     OW13732   7.591   2.104   2.373  0.2551  0.2065  0.0099
 4200SOL    HW113733   7.583   2.094   2.278 -2.0033 -1.0640  0.2610
 4200SOL    HW213734   7.625   2.020   2.403  0.8968  0.5814  0.3434
 4201SOL     OW13735   0.810   2.637   1.737  0.5717 -0.7466  1.2548
 4201SOL    HW113736   0.728   2.645   1.786 -0.1192  0.5993 -0.0242
 4201SOL    HW213737   0.868   2.701   1.777 -0.1430  0.6824  0.1274
 4202SOL     OW13738   5.019   6.311   5.567  0.2955 -0.1791 -0.1478
 4202SOL    HW113739   5.029   6.385   5.626  0.0047  0.2123 -0.5801
 4202SOL    HW213740   5.100   6.261   5.577  0.6148  0.3500 -0.0653
 4203SOL     OW13741   8.028   3.741   7.000 -0.2009  0.0279  0.1778
 4203SOL    HW113742   7.998   3.785   6.920 -0.5675  0.0343  0.3189
 4203SOL    HW213743   8.032   3.811   7.066  1.9145  0.4161 -0.2864
 4204SOL     OW13744   6.385   4.503   5.068  0.2762 -0.0546  0.0572
 4204SOL    HW113745   6.346   4.574   5.017 -0.6235  0.2597  1.1366
 4204SOL    HW213746   6.462   4.541   5.108  0.7204 -0.1679 -0.6777
 4205SOL     OW13747   4.060   5.436   8.423  0.3089  0.2335  0.2654
 4205SOL    HW113748   4.021   5.496   8.486 -1.1396  2.4299 -2.4988
 4205SOL    HW213749   4.133   5.484   8.384 -0.2448 -0.1113 -1.2994
 4206SOL     OW13750   7.221   6.347   6.422  0.4016 -0.1020 -0.2046
 4206SOL    HW113751   7.192   6.414   6.360 -1.0493 -0.0239  0.5201
 4206SOL    HW213752   7.207   6.386   6.508 -0.3097 -1.2507  0.2286
 4207SOL     OW13753   8.061   0.560   8.253  0.0499  0.5683 -0.2224
 4207SOL    HW113754   8.138   0.601   8.292  1.3909 -1.1909 -0.8880
 4207SOL    HW213755   8.050   0.604   8.168  0.4782  0.6638 -0.2300
 4208SOL     OW13756   8.329   1.491   4.971 -0.4057  0.5747  0.5280
 4208SOL    HW113757   8.322   1.400   4.942 -0.3234  0.8291 -0.3339
 4208SOL    HW213758   8.285   1.541   4.902 -0.8432  1.1476  1.2206
 4209SOL     OW13759   2.651   0.063   7.902  0.0568 -0.3949 -0.4237
 4209SOL    HW113760   2.562   0.077   7.933 -0.4593  0.1388 -2.0170
 4209SOL    HW213761   2.705   0.121   7.955 -0.6333 -0.1977  0.0786
 4210SOL     OW13762   8.909   5.922   7.496  0.6188 -0.2706 -0.6720
 4210SOL    HW113763   8.994   5.948   7.463  1.5731 -0.1184  1.6942
 4210SOL    HW213764   8.928   5.852   7.559 -0.6757  1.3181  1.6394
 4211SOL     OW13765   7.722   2.629   3.547 -0.1587  0.1667  0.2761
 4211SOL    HW113766   7.803   2.616   3.595 -0.3258 -0.1733  0.4649
 4211SOL    HW213767   7.707   2.547   3.500 -0.1121  0.4168 -0.1866
 4212SOL     OW13768   5.660   7.781   4.873 -0.5461  0.5709 -0.1392
 4212SOL    HW113769   5.695   7.773   4.784  1.3692  2.5418  0.3527
 4212SOL    HW213770   5.661   7.875   4.891 -1.3138  0.2464  1.8252
 4213SOL     OW13771   6.321   8.548   1.303 -0.7187  0.0274 -0.0379
 4213SOL    HW113772   6.411   8.516   1.310  0.0471  2.2324  1.1602
 4213SOL    HW213773   6.312   8.574   1.211 -0.6120 -1.4064 -0.4789
 4214SOL     OW13774   4.392   2.890   6.100  0.1029 -0.2319  0.4271
 4214SOL    HW113775   4.364   2.831   6.171  1.3221  0.2963  1.3787
 4214SOL    HW213776   4.484   2.868   6.086  0.5975  1.4632  0.8344
 4215SOL     OW13777   8.213   3.210   5.752 -0.3084  0.3133  0.6855
 4215SOL    HW113778   8.140   3.202   5.814 -0.3349  0.5304  0.6847
 4215SOL    HW213779   8.191   3.149   5.682 -1.8323  2.2197 -0.6162
 4216SOL     OW13780   2.360   5.638   0.803 -0.0155  0.1166  0.2462
 4216SOL    HW113781   2.455   5.647   0.803  0.3601 -2.8029  0.3235
 4216SOL    HW213782   2.338   5.609   0.892 -0.7883 -0.4703 -0.1158
 4217SOL     OW13783   3.732   7.165   7.866 -0.6491  0.2086  0.1603
 4217SOL    HW113784   3.691   7.234   7.919 -0.3048  0.8425 -0.3903
 4217SOL    HW213785   3.711   7.188   7.776  2.1266  1.3957 -0.2734
 4218SOL     OW13786   5.534   4.719   8.371  0.0543 -0.0731  0.2604
 4218SOL    HW113787   5.512   4.637   8.416  0.9647  0.5285  1.8995
 4218SOL    HW213788   5.486   4.715   8.288 -0.0746 -2.1620  0.3937
 4219SOL     OW13789   7.040   6.814   3.198 -0.0391  0.3141 -0.0537
 4219SOL    HW113790   6.960   6.866   3.200  0.6060  1.3220 -0.0709
 4219SOL    HW213791   7.096   6.857   3.134  1.0632  0.4488  0.9638
 4220SOL     OW13792   0.260   0.605   4.688 -0.0576  0.0459  0.2314
 4220SOL    HW113793   0.222   0.692   4.677  0.6247  0.2984 -0.1427
 4220SOL    HW213794   0.338   0.605   4.634  0.1146 -0.7060  0.4593
 4221SOL     OW13795   8.977   0.488   2.698  0.4379 -0.1039 -0.7010
 4221SOL    HW113796   9.069   0.502   2.677  0.1553  1.7104 -0.8880
 4221SOL    HW213797   8.971   0.395   2.717  2.0838 -0.4827 -1.8039
 4222SOL     OW13798   0.662   6.675   2.560  0.7409  0.2466 -0.3863
 4222SOL    HW113799   0.699   6.591   2.587  1.3813  1.2483  2.1036
 4222SOL    HW213800   0.648   6.665   2.465  0.4368 -2.7610 -0.1320
 4223SOL     OW13801   9.001   5.131   4.698 -0.1687 -0.1053  0.2182
 4223SOL    HW113802   8.921   5.079   4.702  0.3207 -0.8284  0.8195
 4223SOL    HW213803   8.974   5.219   4.724 -1.2796  0.3088 -2.1024
 4224SOL     OW13804   1.609   2.557   0.008  0.0410  0.1911 -0.0107
 4224SOL    HW113805   1.620   2.616   0.082  0.1411  0.4768 -0.2506
 4224SOL    HW213806   1.697   2.550  -0.031  0.2623 -0.9552  0.6415
 4225SOL     OW13807   2.859   5.989   9.056 -0.5507 -0.1298  1.0340
 4225SOL    HW113808   2.847   5.898   9.027  0.3322 -0.1509  0.6960
 4225SOL    HW213809   2.860   6.040   8.975  0.9201 -0.0630  1.0733
 4226SOL     OW13810   3.142   3.254   1.566 -0.1162  0.1581  0.4709
 4226SOL    HW113811   3.230   3.272   1.534  0.1373 -0.9864  0.4583
 4226SOL    HW213812   3.117   3.173   1.521  0.0146 -1.1789  2.6529
 4227SOL     OW13813   8.039   8.746   1.094  0.2183 -0.4837 -0.1268
 4227SOL    HW113814   8.047   8.651   1.083  1.3917 -0.3791 -0.3137
 4227SOL    HW213815   7.958   8.757   1.143 -0.6148 -1.4960 -1.2088
 4228SOL     OW13816   3.486   3.040   5.711 -0.0621 -0.5563  0.6917
 4228SOL    HW113817   3.471   3.130   5.739 -0.9175 -0.5319  0.2058
 4228SOL    HW213818   3.574   3.019   5.741  0.4282  0.6869  0.1611
 4229SOL     OW13819   0.096   0.937   2.490  0.6459 -0.1750 -0.2854
 4229SOL    HW113820   0.152   0.859   2.492 -0.6568 -1.2861 -2.7704
 4229SOL    HW213821   0.104   0.969   2.400 -1.8687  0.2372 -0.4163
 4230SOL     OW13822   1.976   6.067   2.623  0.6523  0.9114 -0.5053
 4230SOL    HW113823   2.028   6.136   2.582 -0.0745  1.6424 -0.2179
 4230SOL    HW213824   1.900   6.057   2.567 -1.1514  3.0073  1.3557
 4231SOL     OW13825   4.930   8.722   8.255 -0.3631  0.3742 -0.2193
 4231SOL    HW113826   4.846   8.694   8.220  0.0331 -1.5298  0.2032
 4231SOL    HW213827   4.937   8.814   8.231 -2.5127  0.5615 -0.3258
 4232SOL     OW13828   1.604   7.427   0.650  0.0957  0.4235  0.0817
 4232SOL    HW113829   1.587   7.362   0.581 -1.2278  0.7292  0.0952
 4232SOL    HW213830   1.693   7.457   0.633 -0.3817  0.8867 -1.8537
 4233SOL     OW13831   6.909   2.752   3.717  0.1088  0.3336 -0.6387
 4233SOL    HW113832   6.837   2.689   3.721  0.5382 -0.1077  1.5627
 4233SOL    HW213833   6.972   2.721   3.781  0.2213  3.0912  0.7685
 4234SOL     OW13834   5.721   4.201   3.573 -0.1890  0.8074  0.5939
 4234SOL    HW113835   5.686   4.151   3.499 -1.9477  2.7949 -0.0063
 4234SOL    HW213836   5.813   4.217   3.550 -0.0502 -0.6309  0.0194
 4235SOL     OW13837   4.790   5.442   4.068 -0.5065 -0.2746 -0.2568
 4235SOL    HW113838   4.865   5.497   4.089  0.5502 -0.7482 -2.4747
 4235SOL    HW213839   4.823   5.353   4.072 -1.2471 -0.5525 -0.1762
 4236SOL     OW13840   3.190   2.295   0.319  0.1547  0.2142  0.2396
 4236SOL    HW113841   3.220   2.332   0.236 -0.8781  0.5526  0.0025
 4236SOL    HW213842   3.094   2.300   0.315 -0.0006 -1.7945  0.5406
 4237SOL     OW13843   2.593   6.895   2.123 -0.1042 -0.3105 -0.1977
 4237SOL    HW113844   2.553   6.916   2.208 -0.6196  0.7971 -0.6881
 4237SOL    HW213845   2.635   6.977   2.096  0.8525 -0.9174 -0.5862
 4238SOL     OW13846   8.304   2.144   5.374  0.1359 -0.4497 -0.4325
 4238SOL    HW113847   8.365   2.071   5.356 -1.9900 -2.7812  1.0970
 4238SOL    HW213848   8.217   2.105   5.366 -1.1423  2.1046 -0.0351
 4239SOL     OW13849   5.333   1.491   3.938  0.3102  0.0483  0.0031
 4239SOL    HW113850   5.334   1.537   4.022  0.4425  1.4559 -0.7398
 4239SOL    HW213851   5.288   1.552   3.879  2.1858  0.0686 -1.4821
 4240SOL     OW13852   7.898   6.753   7.307 -0.8427 -0.0260  0.0979
 4240SOL    HW113853   7.921   6.682   7.247 -0.7601 -0.4745  0.6612
 4240SOL    HW213854   7.963   6.749   7.376  0.1245  1.6004 -0.6601
 4241SOL     OW13855   0.677   3.819   4.186 -0.0414 -0.4549 -0.6573
 4241SOL    HW113856   0.592   3.808   4.229  0.3900 -1.9674 -0.1532
 4241SOL    HW213857   0.654   3.854   4.099 -0.9830  1.5967  0.3191
 4242SOL     OW13858   0.849   3.848   2.031 -0.2244  0.3917  0.1310
 4242SOL    HW113859   0.827   3.875   2.120  2.2951  0.1901  0.8914
 4242SOL    HW213860   0.765   3.825   1.992 -1.2802 -1.1157  2.9754
 4243SOL     OW13861   2.932   1.917   1.387  0.4218 -0.0992  0.5129
 4243SOL    HW113862   2.921   1.981   1.457  0.2514  1.3429 -0.7869
 4243SOL    HW213863   3.001   1.953   1.331  0.1642 -0.9177 -0.3747
 4244SOL     OW13864   1.258   8.199   2.610  0.0150 -0.7717  0.2630
 4244SOL    HW113865   1.188   8.238   2.558  0.6623  0.9447  0.5824
 4244SOL    HW213866   1.311   8.151   2.547 -2.1144 -3.2311  0.2167
 4245SOL     OW13867   0.263   5.349   8.794 -0.3769  0.0889  0.0605
 4245SOL    HW113868   0.184   5.294   8.799 -1.3000  1.4482  3.3732
 4245SOL    HW213869   0.328   5.303   8.847  0.3413  0.0458 -0.8449
 4246SOL     OW13870   4.461   0.813   0.941  0.2549  0.1526  0.3013
 4246SOL    HW113871   4.496   0.726   0.957  2.4224  0.5947 -1.5476
 4246SOL    HW213872   4.372   0.798   0.909  0.8031 -1.4227 -0.5777
 4247SOL     OW13873   4.235   2.685   6.939 -0.0338  0.7829 -0.3949
 4247SOL    HW113874   4.238   2.653   7.029  0.4064  1.5129 -0.1394
 4247SOL    HW213875   4.324   2.717   6.922 -0.4019  1.6882 -0.6959
 4248SOL     OW13876   8.210   1.046   5.896  0.4587  0.1961  0.3310
 4248SOL    HW113877   8.279   1.012   5.953  1.0514 -1.2367 -1.1436
 4248SOL    HW213878   8.138   1.067   5.955  1.0927 -1.1064  1.6400
 4249SOL     OW13879   6.938   3.504   2.480 -0.1203 -0.1584 -1.0038
 4249SOL    HW113880   7.014   3.461   2.441  0.7270  1.3408 -1.0814
 4249SOL    HW213881   6.962   3.597   2.484 -1.0543  0.0521  1.0562
 4250SOL     OW13882   8.610   0.445   9.029  0.2042 -0.5010 -0.1109
 4250SOL    HW113883   8.644   0.413   8.945 -1.2459 -1.5519 -0.3436
 4250SOL    HW213884   8.675   0.508   9.059  1.2119 -0.7883 -1.5807
 4251SOL     OW13885   8.671   7.310   7.272  0.4514  0.4888  0.6022
 4251SOL    HW113886   8.618   7.388   7.258 -1.6683 -0.7046  1.5252
 4251SOL    HW213887   8.684   7.274   7.184 -1.6563  0.0001  0.4378
 4252SOL     OW13888   8.386   1.992   4.561  0.1872 -0.1160 -0.2702
 4252SOL    HW113889   8.402   2.085   4.547 -0.8666  0.0824 -0.2317
 4252SOL    HW213890   8.410   1.977   4.652  0.0047  0.1923 -0.1720
 4253SOL     OW13891   6.479   7.999   5.390 -0.4689 -0.1817  0.0012
 4253SOL    HW113892   6.468   8.054   5.467 -1.2581 -3.3131  2.2945
 4253SOL    HW213893   6.553   8.039   5.344  1.9854  0.3078  3.8777
 4254SOL     OW13894   2.172   5.900   3.916  0.5065  0.0266 -0.4386
 4254SOL    HW113895   2.180   5.854   4.000  0.9189 -0.2103 -0.6010
 4254SOL    HW213896   2.112   5.847   3.865  0.2767  0.1560 -0.3063
 4255SOL     OW13897   8.688   1.074   7.688  0.1336  0.4394 -0.4499
 4255SOL    HW113898   8.688   1.168   7.673 -0.4066  0.3652 -0.9512
 4255SOL    HW213899   8.753   1.040   7.626 -0.2439  0.4079 -0.8402
 4256SOL     OW13900   5.130   4.242   4.506  0.4489 -0.4160 -0.2719
 4256SOL    HW113901   5.169   4.180   4.445 -0.0453 -0.9851 -0.0175
 4256SOL    HW213902   5.194   4.249   4.577  1.2560  0.6224 -1.0487
 4257SOL     OW13903   4.606   4.279   2.328 -0.0094 -0.0512 -0.8278
 4257SOL    HW113904   4.638   4.354   2.278  0.7084  1.3529  1.5270
 4257SOL    HW213905   4.511   4.290   2.330  0.1673  1.6580  0.6092
 4258SOL     OW13906   4.994   4.373   5.154 -0.0692 -0.3131 -0.3081
 4258SOL    HW113907   5.041   4.452   5.180 -1.9152  0.0138  2.5628
 4258SOL    HW213908   5.036   4.303   5.205 -2.4246 -0.0144  2.3100
 4259SOL     OW13909   6.979   2.617   1.207 -0.0733 -0.0391 -0.3360
 4259SOL    HW113910   7.009   2.697   1.249  0.5523 -0.4705  0.0597
 4259SOL    HW213911   6.896   2.641   1.166 -0.4814  0.5130  0.7699
 4260SOL     OW13912   8.140   7.631   7.190 -0.0331  0.6041  0.5254
 4260SOL    HW113913   8.086   7.613   7.114  1.5670 -0.9861 -0.2914
 4260SOL    HW213914   8.078   7.662   7.257 -1.8018 -0.3366 -0.6195
 4261SOL     OW13915   1.260   4.495   2.124 -0.0706  0.3108  0.3134
 4261SOL    HW113916   1.234   4.530   2.039 -0.9869  0.2923  0.5696
 4261SOL    HW213917   1.325   4.557   2.157  2.3558 -1.1178 -1.5516
 4262SOL     OW13918   5.515   0.730   8.327 -0.4211 -0.6319  0.3294
 4262SOL    HW113919   5.564   0.812   8.326 -0.7107 -0.2061 -4.5231
 4262SOL    HW213920   5.553   0.680   8.400  3.6952  1.6611  0.0551
 4263SOL     OW13921   2.882   3.930   4.988  0.0832 -0.4665 -0.0127
 4263SOL    HW113922   2.802   3.980   4.969 -0.6248 -1.7481 -0.6069
 4263SOL    HW213923   2.947   3.966   4.929 -0.1006  0.4630  0.3306
 4264SOL     OW13924   4.060   8.887   1.353  0.4797 -0.5716 -0.1975
 4264SOL    HW113925   4.100   8.888   1.266  1.0466  1.4972  0.0322
 4264SOL    HW213926   4.030   8.977   1.367 -1.4700 -1.3263  0.9427
 4265SOL     OW13927   9.086   2.675   2.145 -0.2633 -0.4149  0.1160
 4265SOL    HW113928   9.104   2.624   2.225  1.7763 -2.3732 -1.4684
 4265SOL    HW213929   9.055   2.610   2.082 -1.4126  1.0250 -0.8501
 4266SOL     OW13930   2.383   4.162   4.928  0.4658 -0.1103  0.0283
 4266SOL    HW113931   2.408   4.244   4.885  2.2502 -0.4721  0.2998
 4266SOL    HW213932   2.348   4.189   5.013 -0.2740  0.4254 -0.4306
 4267SOL     OW13933   8.772   1.614   4.075  0.2450  0.2748 -0.0668
 4267SOL    HW113934   8.857   1.651   4.050  0.1433 -0.1080 -1.0079
 4267SOL    HW213935   8.751   1.552   4.006  0.9799 -2.5268  2.0505
 4268SOL     OW13936   0.578   8.935   4.798 -0.5879 -0.3548 -0.3322
 4268SOL    HW113937   0.500   8.920   4.745 -1.4456  2.0006  0.1420
 4268SOL    HW213938   0.550   8.998   4.865  1.4848 -0.1653  0.4400
 4269SOL     OW13939   3.436   5.101   6.646 -0.1678  0.9620 -0.3526
 4269SOL    HW113940   3.429   5.151   6.565 -1.5008 -1.7293 -2.0027
 4269SOL    HW213941   3.372   5.142   6.705  0.0920  2.2999 -0.9559
 4270SOL     OW13942   5.203   5.793   5.744 -0.1569  0.3878 -0.2441
 4270SOL    HW113943   5.206   5.842   5.827 -1.0295 -1.7799  1.1514
 4270SOL    HW213944   5.117   5.813   5.707  0.0587  1.0065 -0.4339
 4271SOL     OW13945   2.206   0.781   6.356  0.1562 -0.0744 -0.1866
 4271SOL    HW113946   2.220   0.875   6.347 -1.6944  0.1998 -0.5107
 4271SOL    HW213947   2.247   0.744   6.278 -2.9573  0.9430 -2.4829
 4272SOL     OW13948   2.013   4.319   8.175 -0.6646  0.1071  0.1581
 4272SOL    HW113949   2.093   4.274   8.203  0.9735  1.5162 -1.9170
 4272SOL    HW213950   2.016   4.403   8.220 -1.7584 -0.3586  1.1431
 4273SOL     OW13951   6.504   2.769   6.237 -0.6658  0.0492 -0.1019
 4273SOL    HW113952   6.548   2.684   6.239  0.0094  0.3989  1.4767
 4273SOL    HW213953   6.566   2.828   6.194  0.6422  0.6055  2.3663
 4274SOL     OW13954   2.258   6.450   0.181 -0.6278 -0.0195 -0.2697
 4274SOL    HW113955   2.300   6.512   0.122  0.4937  0.7957  1.3194
 4274SOL    HW213956   2.231   6.377   0.124  0.4267  0.6993 -1.7562
 4275SOL     OW13957   7.430   7.166   3.175 -0.1607  0.2732 -0.2338
 4275SOL    HW113958   7.386   7.210   3.248 -0.7417  0.2404 -0.5594
 4275SOL    HW213959   7.493   7.106   3.217 -1.4830 -0.7984  0.2900
 4276SOL     OW13960   0.104   8.954   3.085  0.2146  0.2901 -0.2164
 4276SOL    HW113961   0.059   8.953   3.000  1.6938 -0.5642 -1.0265
 4276SOL    HW213962   0.174   8.891   3.075  0.5571  0.3483  1.5963
 4277SOL     OW13963   8.372   2.676   8.474  0.0233  0.0364 -0.0820
 4277SOL    HW113964   8.313   2.724   8.533  0.9942 -0.1920  1.1170
 4277SOL    HW213965   8.449   2.732   8.467  2.5530 -2.4610  3.8267
 4278SOL     OW13966   2.422   0.122   2.692 -0.1983  0.2683 -0.1554
 4278SOL    HW113967   2.355   0.187   2.716 -0.0600  1.0896 -1.8828
 4278SOL    HW213968   2.486   0.127   2.763 -2.3006 -1.1370  1.9937
 4279SOL     OW13969   6.078   4.367   8.340 -0.3189  0.3426 -0.0285
 4279SOL    HW113970   6.009   4.410   8.391  0.6142  2.1790 -0.2345
 4279SOL    HW213971   6.155   4.423   8.351  0.5845 -0.5587 -1.4284
 4280SOL     OW13972   1.456   4.727   0.953  0.2666 -0.4024 -0.0998
 4280SOL    HW113973   1.408   4.745   0.872 -0.2409 -0.2221  0.2391
 4280SOL    HW213974   1.420   4.788   1.017  0.1941 -1.0085  0.4432
 4281SOL     OW13975   7.103   2.279   8.783 -0.3466  0.6423 -0.3293
 4281SOL    HW113976   7.126   2.206   8.725 -2.3725  0.7149 -1.3234
 4281SOL    HW213977   7.077   2.237   8.865 -1.7080  0.1910 -0.9652
 4282SOL     OW13978   3.597   9.093   4.921 -0.0534  0.2028  0.4899
 4282SOL    HW113979   3.614   9.148   4.844 -0.8179  0.7224  0.6897
 4282SOL    HW213980   3.638   9.009   4.899 -0.7150  0.1743 -0.7069
 4283SOL     OW13981   3.768   1.198   0.968 -0.1611  0.3012  0.6429
 4283SOL    HW113982   3.729   1.113   0.948  1.6049 -0.4957  0.4024
 4283SOL    HW213983   3.698   1.246   1.012 -1.2116 -1.2683  0.7827
 4284SOL     OW13984   3.930   8.947   0.966 -0.0854  0.0616  0.2303
 4284SOL    HW113985   3.867   8.885   1.003 -1.5532  0.9461 -0.7047
 4284SOL    HW213986   3.996   8.891   0.924 -0.3299 -0.8806  1.0437
 4285SOL     OW13987   7.420   3.719   5.719 -0.0658  0.1829  0.3572
 4285SOL    HW113988   7.382   3.719   5.631 -1.6443 -0.5558  1.0038
 4285SOL    HW213989   7.487   3.651   5.716 -1.2072 -0.9779  0.1339
 4286SOL     OW13990   4.344   2.600   2.181 -0.4198  0.0103  0.0026
 4286SOL    HW113991   4.337   2.505   2.167  0.4783  0.1254 -1.3928
 4286SOL    HW213992   4.255   2.627   2.204 -1.5696 -0.6954 -3.0085
 4287SOL     OW13993   3.658   3.124   7.818 -1.0011 -0.5774 -0.4702
 4287SOL    HW113994   3.711   3.203   7.810  1.3991 -1.7246  2.2149
 4287SOL    HW213995   3.694   3.064   7.752  0.3885 -0.9474  0.5695
 4288SOL     OW13996   2.915   5.634   2.553  0.6548 -0.1980 -0.5953
 4288SOL    HW113997   2.930   5.701   2.620 -0.9542  0.6550 -1.0369
 4288SOL    HW213998   2.928   5.679   2.470  0.5909 -0.7114 -0.8892
 4289SOL     OW13999   6.454   3.107   2.181 -0.4521 -0.2173  0.1495
 4289SOL    HW114000   6.439   3.200   2.197  1.1954 -0.0039  0.7104
 4289SOL    HW214001   6.515   3.104   2.108  0.6711 -0.7547  1.0610
 4290SOL     OW14002   2.446   2.108   8.653  0.3306  0.2326 -0.1737
 4290SOL    HW114003   2.451   2.102   8.748  0.3702  0.2919 -0.1717
 4290SOL    HW214004   2.419   2.021   8.625  1.5631 -0.1610 -0.1892
 4291SOL     OW14005   3.309   7.153   3.417 -0.1522  0.6813  0.2319
 4291SOL    HW114006   3.288   7.183   3.506  0.8254  1.9345  0.0677
 4291SOL    HW214007   3.369   7.219   3.383 -0.4351  0.1663 -1.3419
 4292SOL     OW14008   7.999   2.847   1.427  0.1330  0.3807  0.0211
 4292SOL    HW114009   8.094   2.847   1.441 -0.1395 -0.5540  2.4114
 4292SOL    HW214010   7.985   2.785   1.356  1.1968 -1.6170  1.4353
 4293SOL     OW14011   0.722   4.391   3.346  0.1451 -0.6490 -0.6696
 4293SOL    HW114012   0.633   4.366   3.319  0.4758 -1.2066 -1.2586
 4293SOL    HW214013   0.770   4.309   3.348  0.2489 -0.5942  1.2613
 4294SOL     OW14014   6.062   0.731   1.758  0.0507 -0.1446  0.2492
 4294SOL    HW114015   6.137   0.779   1.793 -0.6926  0.5117  0.9866
 4294SOL    HW214016   6.099   0.674   1.691  1.0668  0.9713 -0.1871
 4295SOL     OW14017   3.343   2.692   0.610 -0.2971  0.0670 -0.1140
 4295SOL    HW114018   3.310   2.781   0.604 -1.6148 -0.2751  1.2588
 4295SOL    HW214019   3.342   2.672   0.704  0.9179 -1.0601 -0.2985
 4296SOL     OW14020   4.335   8.311   7.974  0.0955  0.3800 -0.3559
 4296SOL    HW114021   4.310   8.317   7.882  0.9295  0.0489 -0.6121
 4296SOL    HW214022   4.389   8.232   7.980  1.3274  1.2183  0.0983
 4297SOL     OW14023   8.229   5.950   0.490 -0.5848 -0.1126 -0.2378
 4297SOL    HW114024   8.195   5.965   0.402 -0.0338  0.8503 -0.3063
 4297SOL    HW214025   8.237   6.038   0.528  1.5266 -0.3005 -0.1287
 4298SOL     OW14026   8.484   4.595   5.884  0.1324  0.2215  0.0112
 4298SOL    HW114027   8.449   4.668   5.832  1.2614  0.2551 -0.7478
 4298SOL    HW214028   8.412   4.532   5.889 -0.9879  1.5309  0.9911
 4299SOL     OW14029   0.584   4.908   5.476 -0.0874  0.1725 -0.2658
 4299SOL    HW114030   0.536   4.838   5.519  0.7525 -1.0228 -1.1999
 4299SOL    HW214031   0.540   4.988   5.503 -3.1312 -0.8725 -1.7329
 4300SOL     OW14032   1.195   4.767   0.780 -0.2052 -0.1749 -0.4104
 4300SOL    HW114033   1.157   4.683   0.752 -1.9343  0.2263  0.5497
 4300SOL    HW214034   1.156   4.783   0.866  0.8566  1.1592 -0.1470
 4301SOL     OW14035   7.806   2.626   8.389  0.1573 -0.1801 -0.0898
 4301SOL    HW114036   7.757   2.636   8.471 -1.2568 -0.2564 -0.8810
 4301SOL    HW214037   7.750   2.568   8.336 -0.0053  1.5172 -1.8812
 4302SOL     OW14038   3.436   6.473   0.681 -0.1226 -0.2740  0.2360
 4302SOL    HW114039   3.346   6.442   0.674  0.0651 -0.4607 -1.7936
 4302SOL    HW214040   3.467   6.436   0.764 -1.8677 -0.2715  0.9308
 4303SOL     OW14041   4.525   8.309   1.918  0.2141  0.1000 -0.0733
 4303SOL    HW114042   4.569   8.268   1.844 -0.0337  1.3961 -0.9544
 4303SOL    HW214043   4.432   8.293   1.903  0.0559  1.5324 -0.8023
 4304SOL     OW14044   5.774   3.243   5.638  0.2329 -0.0210  0.7663
 4304SOL    HW114045   5.860   3.216   5.670 -0.7292  0.3378  4.0194
 4304SOL    HW214046   5.713   3.211   5.704 -2.2864 -0.7500 -1.6978
 4305SOL     OW14047   2.687   1.631   0.846  0.1077  0.4008 -0.9183
 4305SOL    HW114048   2.626   1.639   0.920  0.3669 -0.3949 -0.6058
 4305SOL    HW214049   2.646   1.683   0.776 -1.0679 -0.3225 -0.8030
 4306SOL     OW14050   0.897   3.661   4.802 -0.3465  0.9429 -0.7631
 4306SOL    HW114051   0.967   3.601   4.828 -0.9235  0.1542 -0.9853
 4306SOL    HW214052   0.880   3.714   4.880 -0.9178 -0.2676 -0.0386
 4307SOL     OW14053   1.741   5.930   4.407 -0.2296  0.4700  0.2067
 4307SOL    HW114054   1.828   5.952   4.373  0.2441 -0.1594  0.9837
 4307SOL    HW214055   1.758   5.889   4.491 -1.3354  1.1573  0.7922
 4308SOL     OW14056   1.400   0.427   6.256 -0.3756 -0.2092 -0.4484
 4308SOL    HW114057   1.390   0.401   6.347 -0.3761 -0.0190 -0.3937
 4308SOL    HW214058   1.443   0.353   6.214  0.2340 -0.0231 -0.1540
 4309SOL     OW14059   2.830   6.018   8.518  0.3160  0.1350  0.4808
 4309SOL    HW114060   2.843   6.112   8.501 -0.1251 -0.0764 -1.1985
 4309SOL    HW214061   2.895   5.975   8.463 -0.5537 -0.5846 -0.0088
 4310SOL     OW14062   2.868   6.932   1.854 -0.5120  0.3920  0.5309
 4310SOL    HW114063   2.841   6.881   1.930 -1.4973  1.0663  0.6514
 4310SOL    HW214064   2.961   6.949   1.869 -0.0833 -1.5234  0.3742
 4311SOL     OW14065   8.139   0.806   2.999  0.0601  0.3769  0.1507
 4311SOL    HW114066   8.106   0.722   3.032 -0.7477  0.0792 -1.3123
 4311SOL    HW214067   8.232   0.790   2.985  0.2019  0.1846  1.2256
 4312SOL     OW14068   4.293   1.216   1.194 -0.6174  0.5909  0.1761
 4312SOL    HW114069   4.322   1.125   1.204 -0.0084  0.7744  0.1445
 4312SOL    HW214070   4.233   1.214   1.120  0.1531  0.3752 -0.4584
 4313SOL     OW14071   5.655   0.869   0.725 -0.5655 -0.7261  0.2283
 4313SOL    HW114072   5.683   0.777   0.724 -1.0914 -0.9591  2.2675
 4313SOL    HW214073   5.588   0.874   0.658 -0.0089 -1.6495 -0.4267
 4314SOL     OW14074   2.848   0.047   1.420 -0.3665 -0.2981 -0.4825
 4314SOL    HW114075   2.823   0.056   1.512  0.6800  0.1212 -0.2313
 4314SOL    HW214076   2.777  -0.004   1.381  0.1564 -2.2829  0.9960
 4315SOL     OW14077   5.917   4.116   6.083  0.4289  0.1312  0.1651
 4315SOL    HW114078   5.894   4.031   6.122  2.7569 -0.4133  0.4695
 4315SOL    HW214079   5.947   4.169   6.156 -2.0324  1.7171  0.1643
 4316SOL     OW14080   0.545   2.702   2.122  0.2696  0.3644  0.1083
 4316SOL    HW114081   0.455   2.677   2.144  0.0527 -0.0964 -1.2143
 4316SOL    HW214082   0.597   2.673   2.197 -0.7220  1.0202  1.0836
 4317SOL     OW14083   9.056   1.718   7.266 -0.1828  0.5936 -0.2313
 4317SOL    HW114084   9.132   1.731   7.323 -0.0957 -1.3607  0.1709
 4317SOL    HW214085   8.981   1.742   7.321 -0.1661 -2.0639  1.0908
 4318SOL     OW14086   0.838   6.694   2.108 -0.2554  0.2621  0.4831
 4318SOL    HW114087   0.834   6.785   2.078 -0.7837  0.5305  1.3232
 4318SOL    HW214088   0.925   6.664   2.084  0.8210  1.7490  2.2594
 4319SOL     OW14089   0.905   5.119   2.631  0.6381  0.7775 -0.2943
 4319SOL    HW114090   0.913   5.034   2.675  0.5751  1.6845  1.5546
 4319SOL    HW214091   0.933   5.101   2.541  2.0276 -0.9125  0.3950
 4320SOL     OW14092   1.269   3.404   0.499 -0.4970  0.3870  0.5043
 4320SOL    HW114093   1.305   3.423   0.585  0.1508 -1.3245  0.6452
 4320SOL    HW214094   1.182   3.367   0.516 -1.2729  2.0182  0.2867
 4321SOL     OW14095   6.062   4.382   0.975 -0.3802 -0.3471 -0.5709
 4321SOL    HW114096   6.031   4.385   0.885 -1.0730 -0.0437 -0.3288
 4321SOL    HW214097   6.016   4.453   1.019 -1.2426 -1.4616  0.3947
 4322SOL     OW14098   1.255   4.413   6.741 -0.0496  0.1001 -0.0077
 4322SOL    HW114099   1.182   4.381   6.794  0.5283 -0.7604  0.2891
 4322SOL    HW214100   1.259   4.507   6.760 -1.6202  0.3375 -0.7058
 4323SOL     OW14101   8.389   5.959   2.590  0.0936  0.0474  0.4348
 4323SOL    HW114102   8.335   5.966   2.512  0.8383 -0.1708 -0.1066
 4323SOL    HW214103   8.365   6.036   2.642 -0.5299  0.1012  0.0730
 4324SOL     OW14104   3.545   6.619   2.742 -0.0856 -0.5829 -0.1679
 4324SOL    HW114105   3.489   6.690   2.711 -0.0930 -0.4216  0.2140
 4324SOL    HW214106   3.591   6.589   2.663  0.7841  0.6224 -0.1587
 4325SOL     OW14107   0.254   2.518   1.887 -0.2224  0.0344  0.2923
 4325SOL    HW114108   0.255   2.538   1.980 -2.4462  1.8451  0.0204
 4325SOL    HW214109   0.346   2.505   1.864  0.2974 -1.4383  2.8780
 4326SOL     OW14110   0.049   2.994   1.417  0.1194 -0.1593  0.6541
 4326SOL    HW114111   0.139   3.007   1.447  0.0243  1.2004  0.4035
 4326SOL    HW214112  -0.003   3.057   1.466 -0.2339  1.1739 -1.3114
 4327SOL     OW14113   8.160   0.597   1.776 -0.2549  0.1380  0.1043
 4327SOL    HW114114   8.181   0.512   1.737  1.5412  0.5466  0.1068
 4327SOL    HW214115   8.152   0.578   1.870 -0.2787 -0.1083  0.0536
 4328SOL     OW14116   8.548   7.201   6.279  0.0114  0.0770 -0.2168
 4328SOL    HW114117   8.594   7.249   6.348  0.4553  0.1707 -0.5706
 4328SOL    HW214118   8.489   7.265   6.241  0.9130  0.4748 -0.9741
 4329SOL     OW14119   0.238   5.024   9.010  0.2997 -0.3878  0.0673
 4329SOL    HW114120   0.216   5.101   9.063 -0.8369 -0.7724  0.1790
 4329SOL    HW214121   0.254   4.955   9.074  1.4475 -0.2318 -0.0298
 4330SOL     OW14122   3.554   4.319   6.314  0.0931 -0.1627 -0.0886
 4330SOL    HW114123   3.461   4.320   6.335  0.3966  0.7333  1.2810
 4330SOL    HW214124   3.586   4.235   6.348  0.1913  0.4330  1.3160
 4331SOL     OW14125   8.911   2.818   3.230  0.3106 -0.3553  0.5404
 4331SOL    HW114126   9.003   2.841   3.218  0.3929  1.4118  3.5188
 4331SOL    HW214127   8.865   2.863   3.160  1.4113  1.6464  1.0429
 4332SOL     OW14128   2.403   5.816   5.768 -0.1848 -0.2240  0.4045
 4332SOL    HW114129   2.323   5.868   5.772 -1.0766 -1.5334  0.4491
 4332SOL    HW214130   2.465   5.870   5.719 -1.8929 -0.1442 -1.8491
 4333SOL     OW14131   4.443   0.086   5.829  0.7925  0.6169 -0.0790
 4333SOL    HW114132   4.403   0.077   5.742 -1.1621  0.9944  0.7305
 4333SOL    HW214133   4.422   0.175   5.856  0.8365  0.3022  1.0307
 4334SOL     OW14134   3.624   2.078   4.934  0.0366  0.0035  0.5978
 4334SOL    HW114135   3.618   2.163   4.977 -1.8224 -0.8477  2.1586
 4334SOL    HW214136   3.575   2.018   4.990  3.3478 -2.7162  0.9229
 4335SOL     OW14137   1.152   3.052   1.018 -0.0723 -0.1052  0.4578
 4335SOL    HW114138   1.142   3.113   0.946  0.6239  0.3616  0.7493
 4335SOL    HW214139   1.188   2.973   0.978  1.6284  0.6267  0.4889
 4336SOL     OW14140   2.059   3.433   2.689  0.1080 -0.4054 -0.3798
 4336SOL    HW114141   2.146   3.419   2.726 -0.2356 -1.5124  0.0452
 4336SOL    HW214142   2.048   3.363   2.625 -0.0712  0.3446 -1.1961
 4337SOL     OW14143   7.220   6.159   4.269  0.2183  0.1810 -0.3786
 4337SOL    HW114144   7.198   6.211   4.191 -2.4402  0.7029  0.6092
 4337SOL    HW214145   7.137   6.152   4.317  1.2916 -1.9777  1.3317
 4338SOL     OW14146   5.881   6.888   0.014 -0.1658  0.4273  0.1891
 4338SOL    HW114147   5.824   6.818   0.045  1.6395 -0.2229  2.3225
 4338SOL    HW214148   5.928   6.850  -0.060  0.5071 -0.5447  1.0812
 4339SOL     OW14149   4.601   2.773   1.631 -0.1106 -0.1728 -0.6563
 4339SOL    HW114150   4.680   2.824   1.611 -0.3346  0.3599 -0.2105
 4339SOL    HW214151   4.561   2.819   1.705 -0.0696 -1.2643  0.0620
 4340SOL     OW14152   1.579   7.409   8.493  0.0491  0.1180 -0.0374
 4340SOL    HW114153   1.495   7.450   8.474 -0.6945 -0.7575  1.2324
 4340SOL    HW214154   1.601   7.438   8.581  0.8509 -0.0562 -0.1699
 4341SOL     OW14155   6.965   4.895   1.434  0.0979  0.1999 -0.5699
 4341SOL    HW114156   6.916   4.945   1.368 -0.9471 -1.4108 -1.0725
 4341SOL    HW214157   6.899   4.865   1.496  1.0838  1.8437  1.4078
 4342SOL     OW14158   7.377   5.323   6.065 -0.0456 -0.2286  0.2406
 4342SOL    HW114159   7.436   5.299   5.994  1.1490 -0.9805  1.4428
 4342SOL    HW214160   7.318   5.248   6.075 -0.9760  0.3501 -0.6825
 4343SOL     OW14161   3.268   0.577   8.885  0.3195  0.4879  0.4226
 4343SOL    HW114162   3.202   0.529   8.836 -0.1200 -0.4479  1.8514
 4343SOL    HW214163   3.345   0.519   8.885  1.6890  2.1049 -2.3257
 4344SOL     OW14164   6.593   6.157   3.512  0.1208  0.2338  0.0553
 4344SOL    HW114165   6.572   6.225   3.575  1.9108 -0.7293  1.7944
 4344SOL    HW214166   6.618   6.204   3.433  0.5407  1.5707  0.9633
 4345SOL     OW14167   4.892   6.711   5.431 -0.5301 -0.7948  0.0832
 4345SOL    HW114168   4.828   6.670   5.373  0.6973 -1.2676 -0.9795
 4345SOL    HW214169   4.951   6.758   5.372  1.6701 -2.5623  0.7499
 4346SOL     OW14170   3.027   5.404   2.299 -0.2652 -0.2716  0.8958
 4346SOL    HW114171   2.994   5.494   2.292 -0.6638 -0.3187  2.0343
 4346SOL    HW214172   3.121   5.413   2.286 -0.3023  0.3096  0.9849
 4347SOL     OW14173   1.382   0.788   4.231 -0.5951 -0.0515 -0.1458
 4347SOL    HW114174   1.346   0.704   4.203  0.2841 -0.2088 -0.8514
 4347SOL    HW214175   1.309   0.832   4.275 -0.9882 -1.2875  0.4743
 4348SOL     OW14176   7.050   6.917   0.672 -0.3949  0.2954  0.4982
 4348SOL    HW114177   7.110   6.848   0.642  1.1691  0.6869  2.5092
 4348SOL    HW214178   7.029   6.967   0.593  0.9237 -0.6190 -0.4702
 4349SOL     OW14179   0.287   3.921   6.489  0.8870 -0.1605 -0.0729
 4349SOL    HW114180   0.375   3.909   6.454  0.6378 -2.2256 -0.1088
 4349SOL    HW214181   0.294   3.997   6.546  2.8026 -0.5490  0.2766
 4350SOL     OW14182   9.056   3.290   5.543 -0.2349  0.3833  0.4906
 4350SOL    HW114183   9.017   3.315   5.459  1.3725  0.5721 -0.2279
 4350SOL    HW214184   9.054   3.370   5.596  1.6868  1.1588 -0.5456
 4351SOL     OW14185   5.220   8.639   6.913  0.0152 -0.5386  0.5157
 4351SOL    HW114186   5.245   8.609   7.000  0.5978  0.0979  0.5753
 4351SOL    HW214187   5.224   8.735   6.918 -0.5633 -0.4744 -0.0313
 4352SOL     OW14188   7.952   4.046   5.293  0.1938  0.0015 -0.1632
 4352SOL    HW114189   7.955   3.959   5.253  1.7178 -0.9336  1.8187
 4352SOL    HW214190   7.960   4.107   5.219 -1.9832 -1.4549 -1.6989
 4353SOL     OW14191   8.695   1.946   6.684  0.3300 -0.1327  0.2427
 4353SOL    HW114192   8.643   1.875   6.721 -1.0017 -0.8002 -2.5587
 4353SOL    HW214193   8.784   1.913   6.680 -0.0256 -1.1092  0.2583
 4354SOL     OW14194   1.042   1.789   0.606  0.0118  0.0984 -0.0803
 4354SOL    HW114195   0.972   1.742   0.652 -0.3791  1.2531  0.5325
 4354SOL    HW214196   1.106   1.809   0.675 -0.4101  1.5331 -0.0734
 4355SOL     OW14197   6.736   5.936   8.006 -0.4782  0.1176 -0.4822
 4355SOL    HW114198   6.759   6.029   8.004  0.1065 -0.0055  0.0756
 4355SOL    HW214199   6.799   5.894   7.947  0.6021 -0.1787  0.8105
 4356SOL     OW14200   7.108   1.169   1.061  0.2402 -0.3071  0.3678
 4356SOL    HW114201   7.025   1.155   1.015 -0.1309  0.6455  0.7056
 4356SOL    HW214202   7.109   1.263   1.079  0.3009 -0.6506  2.4034
 4357SOL     OW14203   5.619   3.415   4.041 -0.9348  0.7284  0.1581
 4357SOL    HW114204   5.601   3.405   4.135  0.7032 -1.0810  0.3263
 4357SOL    HW214205   5.543   3.375   3.998 -1.1868  0.5868  0.7255
 4358SOL     OW14206   5.378   1.982   5.721  0.3110 -0.3946  0.4962
 4358SOL    HW114207   5.399   1.902   5.769 -0.7697 -1.1530 -0.2504
 4358SOL    HW214208   5.387   2.052   5.786  3.7621 -0.7544  0.5603
 4359SOL     OW14209   8.764   0.558   6.749  0.2353  0.6495  0.1750
 4359SOL    HW114210   8.704   0.492   6.784  1.2219  0.3652  1.4023
 4359SOL    HW214211   8.782   0.530   6.659  0.0419 -0.3134  0.4337
 4360SOL     OW14212   5.861   1.052   0.222 -0.0773 -0.2867  0.7997
 4360SOL    HW114213   5.875   0.996   0.298  2.1415 -1.3157 -0.2744
 4360SOL    HW214214   5.948   1.063   0.183 -1.1869 -0.2649 -1.9082
 4361SOL     OW14215   3.817   8.429   3.207 -0.1831  0.2302  0.3048
 4361SOL    HW114216   3.826   8.523   3.190  0.6412  0.4516  1.7784
 4361SOL    HW214217   3.893   8.407   3.260 -1.3745 -0.8416  1.6517
 4362SOL     OW14218   2.040   8.436   6.287 -0.2768 -0.2913 -0.0894
 4362SOL    HW114219   1.966   8.495   6.298 -1.0542 -1.0531 -1.0481
 4362SOL    HW214220   2.028   8.369   6.355 -1.6506 -1.5555 -1.4937
 4363SOL     OW14221   8.929   7.512   7.118  0.5096 -0.2307  0.3235
 4363SOL    HW114222   8.955   7.523   7.027 -1.7399 -0.1814 -0.3764
 4363SOL    HW214223   8.835   7.528   7.118  0.6540  1.1623  2.9010
 4364SOL     OW14224   7.828   3.944   3.013  0.1175  0.0597  0.0701
 4364SOL    HW114225   7.844   4.011   2.946 -0.9411  0.9483  0.6704
 4364SOL    HW214226   7.905   3.947   3.070  1.0879 -0.7917 -1.1369
 4365SOL     OW14227   4.720   7.010   4.095 -0.6432 -0.3485 -0.0861
 4365SOL    HW114228   4.662   7.084   4.077  1.0595  1.0202 -0.1917
 4365SOL    HW214229   4.808   7.046   4.089  0.3468 -2.7275 -1.7265
 4366SOL     OW14230   3.763   8.222   6.320  0.6822  0.0439 -0.0640
 4366SOL    HW114231   3.712   8.303   6.321  2.0057  0.9007  1.0626
 4366SOL    HW214232   3.741   8.178   6.402  1.5596  0.2992  0.3130
 4367SOL     OW14233   3.344   3.427   3.071  0.0706 -0.1945 -0.1258
 4367SOL    HW114234   3.290   3.379   3.134  1.2236  0.3486  1.3218
 4367SOL    HW214235   3.282   3.488   3.030 -0.3125  1.1422  2.2366
 4368SOL     OW14236   8.370   6.437   6.032 -0.3513 -0.1100  0.1627
 4368SOL    HW114237   8.404   6.489   6.105 -0.9958  0.6321 -0.0461
 4368SOL    HW214238   8.276   6.452   6.034 -0.3222  0.4371 -1.1931
 4369SOL     OW14239   8.847   3.897   7.057  0.3182 -0.0958 -0.0157
 4369SOL    HW114240   8.923   3.892   6.999 -0.9495 -0.1224 -1.7464
 4369SOL    HW214241   8.773   3.869   7.002 -0.8843 -0.5284  1.7429
 4370SOL     OW14242   0.170   7.070   5.790  0.0393 -0.1971 -0.3611
 4370SOL    HW114243   0.108   7.024   5.732  0.2968 -0.5635 -0.3542
 4370SOL    HW214244   0.255   7.031   5.768  0.5304  1.4461 -1.5373
 4371SOL     OW14245   0.789   5.592   3.473  0.6757  0.2780  0.4706
 4371SOL    HW114246   0.826   5.551   3.551  4.7210 -0.1860 -1.4315
 4371SOL    HW214247   0.826   5.681   3.473  2.4249 -0.3701 -1.8198
 4372SOL     OW14248   3.612   7.655   0.619  0.1389 -0.3150  0.2219
 4372SOL    HW114249   3.517   7.648   0.615  0.1381 -0.0152 -0.4492
 4372SOL    HW214250   3.629   7.743   0.652  0.1854 -0.6924  1.2318
 4373SOL     OW14251   1.959   5.295   8.125 -0.3394 -0.2386 -0.1476
 4373SOL    HW114252   1.987   5.348   8.200  0.4065  2.3484 -2.0910
 4373SOL    HW214253   2.036   5.241   8.104  0.8510  1.7360 -1.1955
 4374SOL     OW14254   0.110   4.802   7.208 -0.4394  0.5098 -0.0228
 4374SOL    HW114255   0.033   4.750   7.185  0.1407  0.3898 -1.7667
 4374SOL    HW214256   0.131   4.852   7.129  1.2157  0.6241  0.4571
 4375SOL     OW14257   5.589   1.333   8.634  0.2413  0.3096  0.2572
 4375SOL    HW114258   5.544   1.389   8.697  0.9883 -0.6745  1.7206
 4375SOL    HW214259   5.679   1.366   8.634  0.3286  0.0689 -0.0283
 4376SOL     OW14260   8.654   3.218   5.372 -0.3617  0.2223  0.0465
 4376SOL    HW114261   8.627   3.238   5.282  0.0744  1.3488  0.1470
 4376SOL    HW214262   8.578   3.240   5.425 -0.1093  1.0046  0.0914
 4377SOL     OW14263   3.675   6.807   4.532 -0.1835 -0.0564  0.2034
 4377SOL    HW114264   3.606   6.793   4.466  0.9015 -1.2642 -0.7135
 4377SOL    HW214265   3.695   6.720   4.565 -0.9635  0.5578  2.4727
 4378SOL     OW14266   3.833   7.258   4.671 -0.2425  0.0817 -0.4015
 4378SOL    HW114267   3.885   7.290   4.744  0.8801 -0.8369 -0.7616
 4378SOL    HW214268   3.766   7.204   4.712  0.3116 -0.3381 -0.0277
 4379SOL     OW14269   7.839   4.051   1.739 -0.2088  0.1028 -0.8293
 4379SOL    HW114270   7.752   4.012   1.727 -0.5598  0.3921  0.6298
 4379SOL    HW214271   7.839   4.128   1.683 -2.2770  2.1825  1.7632
 4380SOL     OW14272   7.617   4.658   7.128  0.2797 -0.4421  0.4417
 4380SOL    HW114273   7.639   4.751   7.125  2.1882 -0.8653 -0.2812
 4380SOL    HW214274   7.588   4.637   7.039  3.0037 -1.1697 -0.3695
 4381SOL     OW14275   2.999   5.386   6.363 -0.2167 -0.3081 -0.4311
 4381SOL    HW114276   3.015   5.467   6.412 -1.5134  0.8155 -1.7677
 4381SOL    HW214277   3.041   5.402   6.278  0.2993 -1.4274 -0.4015
 4382SOL     OW14278   5.851   3.908   6.252 -0.2629  0.3522  0.0552
 4382SOL    HW114279   5.905   3.877   6.325 -1.7750 -1.7203  0.3883
 4382SOL    HW214280   5.763   3.916   6.288 -1.0234 -0.6105 -1.4592
 4383SOL     OW14281   4.216   4.881   0.890  0.1846  0.0022 -0.2549
 4383SOL    HW114282   4.187   4.856   0.802 -1.4360  1.8799 -0.3381
 4383SOL    HW214283   4.155   4.836   0.949  0.5684 -0.3836 -0.1550
 4384SOL     OW14284   3.161   7.970   7.341  0.3828  0.2184 -0.3541
 4384SOL    HW114285   3.098   8.025   7.388  0.5399  0.6902 -0.6919
 4384SOL    HW214286   3.122   7.882   7.345  0.3434  0.2654  0.5574
 4385SOL     OW14287   5.717   3.718   2.951 -0.2672 -0.1932 -0.4895
 4385SOL    HW114288   5.675   3.632   2.953  0.3154 -0.5124 -1.0752
 4385SOL    HW214289   5.726   3.737   2.857  0.8811 -0.1482 -0.3853
 4386SOL     OW14290   8.927   1.212   7.089  0.3673 -0.2902  0.0829
 4386SOL    HW114291   8.898   1.136   7.039 -0.9633 -0.6544  1.3489
 4386SOL    HW214292   8.960   1.175   7.171  0.1585  0.4674  0.5148
 4387SOL     OW14293   8.572   5.592   1.253  0.3371  0.7665 -0.1703
 4387SOL    HW114294   8.552   5.684   1.270 -0.1266  1.2131 -2.6854
 4387SOL    HW214295   8.495   5.560   1.206  0.0061 -1.2606  1.6404
 4388SOL     OW14296   1.424   4.669   3.558  0.6968  0.7045  0.0341
 4388SOL    HW114297   1.412   4.626   3.642 -1.3140 -0.1198 -0.5931
 4388SOL    HW214298   1.435   4.761   3.579 -0.3510  0.5886  1.1947
 4389SOL     OW14299   5.665   3.585   5.153 -0.4417  0.3170  0.0720
 4389SOL    HW114300   5.574   3.568   5.129 -0.8866  1.8001  0.5520
 4389SOL    HW214301   5.660   3.661   5.211  1.0514  0.0087  0.6574
 4390SOL     OW14302   4.687   0.441   5.243  0.2852 -0.0058  0.4698
 4390SOL    HW114303   4.713   0.443   5.151  1.0566 -0.3551  0.6720
 4390SOL    HW214304   4.667   0.532   5.265 -1.6159 -0.1346 -0.5045
 4391SOL     OW14305   3.695   3.898   7.936 -0.6222 -0.0017  0.3690
 4391SOL    HW114306   3.652   3.930   7.857  0.8478 -0.0596 -0.4799
 4391SOL    HW214307   3.692   3.972   7.997  0.0901  0.7556 -0.4970
 4392SOL     OW14308   1.221   7.114   6.422  0.0562 -0.5270 -0.8749
 4392SOL    HW114309   1.284   7.043   6.434 -0.5176 -1.0369 -0.8010
 4392SOL    HW214310   1.273   7.189   6.395  0.9318 -0.3601  1.1558
 4393SOL     OW14311   8.719   1.232   2.046  0.1730  0.0342  0.9603
 4393SOL    HW114312   8.684   1.318   2.070 -0.0461  0.0923  0.4348
 4393SOL    HW214313   8.649   1.170   2.067 -0.7520  0.2722 -1.2170
 4394SOL     OW14314   0.655   8.270   7.844  0.1953 -0.5741  0.1051
 4394SOL    HW114315   0.590   8.293   7.910  0.1864 -1.2216  0.3335
 4394SOL    HW214316   0.737   8.308   7.876 -0.3260  1.5610 -0.9418
 4395SOL     OW14317   6.883   3.357   2.131 -0.5847  0.2125 -0.3485
 4395SOL    HW114318   6.792   3.387   2.127 -0.2305  1.6333  1.1144
 4395SOL    HW214319   6.891   3.319   2.218  1.2640  4.0730  1.3921
 4396SOL     OW14320   5.281   7.726   4.108  0.1752 -0.6153 -0.0185
 4396SOL    HW114321   5.226   7.786   4.058  1.7444 -1.5747 -3.1512
 4396SOL    HW214322   5.230   7.646   4.115 -0.0123 -0.5091 -0.1754
 4397SOL     OW14323   4.858   3.686   4.951  0.1310  0.4700 -0.6193
 4397SOL    HW114324   4.805   3.650   5.022  0.5537  0.7304 -0.1660
 4397SOL    HW214325   4.900   3.610   4.911 -0.0500  0.3281 -0.5421
 4398SOL     OW14326   5.286   4.092   6.321  0.8313  0.1412 -0.6313
 4398SOL    HW114327   5.258   4.154   6.388 -1.6726 -1.0140 -0.5019
 4398SOL    HW214328   5.329   4.146   6.254 -2.0551  2.2254 -0.9921
 4399SOL     OW14329   2.549   8.902   2.740 -0.2014 -0.6607  0.3037
 4399SOL    HW114330   2.556   8.885   2.646  0.1258  0.8474  0.0313
 4399SOL    HW214331   2.623   8.961   2.759 -2.3099  2.0306  0.7392
 4400SOL     OW14332   8.565   7.936   2.972 -0.2009  0.4440 -0.2538
 4400SOL    HW114333   8.539   7.908   3.060  1.0875 -0.8468 -0.2451
 4400SOL    HW214334   8.597   7.857   2.930  1.1938  1.4442 -1.1596
 4401SOL     OW14335   4.903   1.156   8.996  0.2011 -0.0531 -0.4302
 4401SOL    HW114336   4.842   1.143   8.923  2.0879  0.7176 -2.2747
 4401SOL    HW214337   4.983   1.111   8.968  0.9895  0.3157  1.1385
 4402SOL     OW14338   3.320   6.738   9.077  0.4877  0.6583 -0.1778
 4402SOL    HW114339   3.356   6.779   8.998  1.6256  1.1783  0.5754
 4402SOL    HW214340   3.245   6.792   9.101 -0.4950 -0.1024 -1.4606
 4403SOL     OW14341   6.537   8.157   4.143 -0.3261 -0.4581 -0.0038
 4403SOL    HW114342   6.480   8.097   4.096 -1.0285  1.0489 -1.1839
 4403SOL    HW214343   6.495   8.243   4.133  2.2687  0.7927 -1.2343
 4404SOL     OW14344   9.010   3.509   0.262  0.6220 -0.7113  0.5698
 4404SOL    HW114345   8.967   3.440   0.211 -0.2043 -0.4169  0.8387
 4404SOL    HW214346   8.989   3.488   0.353  0.6475 -0.3019  0.6738
 4405SOL     OW14347   5.974   4.207   4.759 -0.9061  0.1959 -0.2231
 4405SOL    HW114348   5.960   4.118   4.727  1.1423  0.2087 -1.3353
 4405SOL    HW214349   5.890   4.251   4.744 -1.4106 -1.0675 -1.3202
 4406SOL     OW14350   1.142   0.402   1.599 -0.0273  0.6118  0.2663
 4406SOL    HW114351   1.064   0.351   1.620 -1.0242  1.5666 -0.9435
 4406SOL    HW214352   1.162   0.380   1.509  0.8586  0.7038  0.4321
 4407SOL     OW14353   7.634   2.079   5.943  0.1518 -0.0526 -0.0420
 4407SOL    HW114354   7.545   2.067   5.910  0.1755  0.8523 -0.4537
 4407SOL    HW214355   7.631   2.044   6.032 -0.4856 -0.4878 -0.2263
 4408SOL     OW14356   2.759   5.225   5.891  0.0913  0.6458 -0.3837
 4408SOL    HW114357   2.771   5.135   5.923  1.5631  0.6740 -0.7786
 4408SOL    HW214358   2.755   5.216   5.796  0.3391  1.0107 -0.4297
 4409SOL     OW14359   4.800   0.459   1.794 -0.2849 -0.0111 -0.1883
 4409SOL    HW114360   4.826   0.392   1.858 -0.6249 -0.5163 -0.5735
 4409SOL    HW214361   4.813   0.542   1.840  0.2058 -0.3371  0.2726
 4410SOL     OW14362   4.679   4.028   7.747  0.2928 -0.1719 -0.0371
 4410SOL    HW114363   4.708   4.118   7.736 -1.0380  0.1349 -1.2666
 4410SOL    HW214364   4.760   3.976   7.747  1.1835  1.0796  2.0073
 4411SOL     OW14365   8.136   6.189   1.346  0.0882  0.0231  0.8073
 4411SOL    HW114366   8.209   6.197   1.284  0.3901  0.7903  1.2538
 4411SOL    HW214367   8.176   6.157   1.427 -0.2155 -0.3883  0.8035
 4412SOL     OW14368   8.756   9.026   4.423 -0.4145 -0.0417 -0.2502
 4412SOL    HW114369   8.756   9.113   4.382 -0.3273  0.2071  0.2591
 4412SOL    HW214370   8.827   9.031   4.487 -0.4204 -0.4880 -0.2112
 4413SOL     OW14371   6.440   3.775   8.163  0.2172  0.5251 -0.2513
 4413SOL    HW114372   6.488   3.707   8.211  1.3107  1.0960 -0.5018
 4413SOL    HW214373   6.365   3.729   8.125 -0.6648  0.0339  1.9128
 4414SOL     OW14374   2.818   4.737   3.561  0.0947 -0.1499  0.2362
 4414SOL    HW114375   2.856   4.698   3.483 -0.7222 -0.5653  0.0354
 4414SOL    HW214376   2.863   4.821   3.570  0.6198 -0.3608 -0.3329
 4415SOL     OW14377   5.312   3.832   6.762  0.2991 -0.2217 -0.0319
 4415SOL    HW114378   5.314   3.811   6.855  0.3453 -0.1871 -0.0252
 4415SOL    HW214379   5.226   3.871   6.748 -0.6730 -2.3596 -0.4597
 4416SOL     OW14380   5.346   1.945   8.871 -0.0215 -0.0112  0.2561
 4416SOL    HW114381   5.410   1.927   8.802  0.2408 -0.2518  0.5580
 4416SOL    HW214382   5.314   2.033   8.853 -0.0695 -0.1326 -0.2640
 4417SOL     OW14383   1.159   7.066   0.239  0.2108  0.1711  0.2413
 4417SOL    HW114384   1.201   7.149   0.261  0.9490  0.2769 -1.3830
 4417SOL    HW214385   1.181   7.007   0.311  2.1563  0.5750  0.0309
 4418SOL     OW14386   2.014   6.865   3.900  0.4244 -0.1388 -0.6533
 4418SOL    HW114387   2.076   6.896   3.835  0.3983 -0.0984 -0.6588
 4418SOL    HW214388   1.928   6.893   3.867  0.4871  0.7285 -0.1211
 4419SOL     OW14389   4.352   6.044   5.085 -0.6057 -0.1692 -0.5322
 4419SOL    HW114390   4.327   6.083   5.168  0.2870 -0.6099 -0.0413
 4419SOL    HW214391   4.441   6.076   5.069  1.9729 -4.9448  1.9098
 4420SOL     OW14392   5.792   0.249   3.847 -0.3855  0.0550  0.1716
 4420SOL    HW114393   5.697   0.237   3.842 -0.2781 -0.4960 -1.5268
 4420SOL    HW214394   5.827   0.161   3.835  0.3551  0.1781  1.3024
 4421SOL     OW14395   4.575   7.721   7.462  0.3608 -0.2745  0.1586
 4421SOL    HW114396   4.542   7.764   7.383  0.8665 -1.0367 -0.4893
 4421SOL    HW214397   4.665   7.753   7.471  0.1951  0.0676  0.6230
 4422SOL     OW14398   4.721   5.653   1.525 -0.0413 -0.0084  0.3051
 4422SOL    HW114399   4.707   5.741   1.489  1.0818 -0.1322 -0.4502
 4422SOL    HW214400   4.633   5.624   1.550 -0.8519  0.2120 -2.0343
 4423SOL     OW14401   6.390   0.817   1.417  0.0320 -0.4807  0.0513
 4423SOL    HW114402   6.318   0.825   1.356  0.1416  0.6383  0.0416
 4423SOL    HW214403   6.461   0.776   1.367 -1.0002 -2.9017  0.4467
 4424SOL     OW14404   7.489   4.471   4.012 -0.1837  0.0292  0.6295
 4424SOL    HW114405   7.574   4.434   3.986  0.4737  2.1885 -0.4891
 4424SOL    HW214406   7.436   4.466   3.933 -0.7360 -0.2243  1.0061
 4425SOL     OW14407   6.705   5.367   7.409 -0.4045 -0.1328 -0.1924
 4425SOL    HW114408   6.694   5.278   7.374  2.5798 -0.1335 -1.4141
 4425SOL    HW214409   6.680   5.424   7.337 -2.6046  0.1330  0.6874
 4426SOL     OW14410   3.468   1.501   2.375 -0.3311  0.3692 -0.0716
 4426SOL    HW114411   3.407   1.532   2.309 -1.7286 -0.5621  0.7357
 4426SOL    HW214412   3.494   1.414   2.345 -2.1088 -0.6823  1.2704
 4427SOL     OW14413   3.131   7.446   1.076 -0.1393 -0.4893 -0.1834
 4427SOL    HW114414   3.174   7.531   1.064 -1.1202 -0.0759 -0.8738
 4427SOL    HW214415   3.157   7.418   1.164 -0.6577  1.0304  0.4823
 4428SOL     OW14416   4.779   3.450   3.176 -0.0307  0.0739 -0.0512
 4428SOL    HW114417   4.694   3.410   3.196  1.0042 -2.0865  0.3526
 4428SOL    HW214418   4.792   3.432   3.083 -0.1166  0.6105 -0.1672
 4429SOL     OW14419   5.923   3.637   4.161  0.2477  0.2604  0.0592
 4429SOL    HW114420   5.931   3.666   4.070  1.9602 -0.9753 -0.2496
 4429SOL    HW214421   5.872   3.556   4.156  0.7331 -0.0536  0.1252
 4430SOL     OW14422   1.720   4.109   6.381  0.1286 -0.4969 -0.1133
 4430SOL    HW114423   1.787   4.141   6.321 -1.3095  1.5477 -0.7400
 4430SOL    HW214424   1.672   4.043   6.331  0.6698 -0.8274 -0.2062
 4431SOL     OW14425   2.561   8.077   8.347 -0.0170 -0.2255  0.2272
 4431SOL    HW114426   2.493   8.018   8.378 -0.6543  0.1850 -0.3624
 4431SOL    HW214427   2.549   8.081   8.253 -0.2002  1.0863  0.2833
 4432SOL     OW14428   6.078   6.322   5.534  0.0908 -0.4306  0.0938
 4432SOL    HW114429   6.022   6.274   5.473 -0.3149  0.3705 -0.1780
 4432SOL    HW214430   6.100   6.403   5.488  0.5341 -0.2287  0.6517
 4433SOL     OW14431   2.080   3.851   2.713 -0.2917 -0.2505  0.2875
 4433SOL    HW114432   2.152   3.897   2.671  1.3601 -1.9733  1.0890
 4433SOL    HW214433   2.012   3.847   2.645  0.4399  1.1691 -0.5775
 4434SOL     OW14434   7.105   1.256   0.486  0.0521  0.2056  0.0419
 4434SOL    HW114435   7.190   1.252   0.531 -0.3565  2.1384  1.0618
 4434SOL    HW214436   7.042   1.222   0.550 -0.0877 -0.2170 -0.3183
 4435SOL     OW14437   7.988   7.484   0.332 -0.2613  0.0848 -0.1136
 4435SOL    HW114438   8.040   7.458   0.256  0.2713  0.9580 -0.0748
 4435SOL    HW214439   8.004   7.415   0.396 -0.0076 -0.2130 -0.4872
 4436SOL     OW14440   4.086   0.561   5.515  0.0076  0.4683 -0.1018
 4436SOL    HW114441   4.012   0.511   5.479 -0.3151  1.8671 -1.4896
 4436SOL    HW214442   4.145   0.572   5.441  0.8977  0.6576  0.6292
 4437SOL     OW14443   2.261   2.263   2.957 -0.2113  0.3308  0.7987
 4437SOL    HW114444   2.209   2.341   2.976 -1.9237 -0.1769 -1.3561
 4437SOL    HW214445   2.352   2.292   2.965 -0.8012  2.5274  0.2425
 4438SOL     OW14446   8.276   6.184   2.707 -0.4780 -0.0163  0.0888
 4438SOL    HW114447   8.180   6.187   2.705 -0.4794  1.9047  0.9366
 4438SOL    HW214448   8.297   6.155   2.796 -0.2205 -2.4130 -0.6763
 4439SOL     OW14449   1.394   4.703   1.279  0.7630  0.0324 -0.5776
 4439SOL    HW114450   1.354   4.637   1.223 -1.5763  0.6651  0.2347
 4439SOL    HW214451   1.402   4.781   1.224 -1.0557  0.4987 -0.2413
 4440SOL     OW14452   4.932   5.432   5.839  0.0534  0.4124 -0.3238
 4440SOL    HW114453   4.866   5.500   5.823  1.8955  2.2140 -0.7916
 4440SOL    HW214454   5.015   5.474   5.815  1.6068 -1.1041  2.0082
 4441SOL     OW14455   8.985   3.972   6.207  0.3459 -1.1863  0.1391
 4441SOL    HW114456   9.079   3.968   6.227  0.1189  1.3748  2.2634
 4441SOL    HW214457   8.954   3.883   6.223  1.8464 -1.3007  3.0835
 4442SOL     OW14458   6.374   4.966   0.828 -0.2000  0.2517  0.3101
 4442SOL    HW114459   6.372   4.888   0.883  1.4188 -0.0510  0.0023
 4442SOL    HW214460   6.465   4.997   0.834 -0.6450  1.7216 -0.1136
 4443SOL     OW14461   3.089   3.191   8.572  0.1285  1.1957 -0.3116
 4443SOL    HW114462   3.017   3.138   8.606 -1.4991  2.6347 -1.3642
 4443SOL    HW214463   3.164   3.168   8.628 -1.0736 -0.4644  0.7147
 4444SOL     OW14464   6.156   0.864   8.924  0.5427 -0.4647 -0.1852
 4444SOL    HW114465   6.226   0.896   8.866 -1.2796 -1.2068 -2.9742
 4444SOL    HW214466   6.128   0.942   8.972 -0.4538  1.1774 -3.2048
 4445SOL     OW14467   0.511   7.390   0.870 -0.1966  0.5696 -0.2632
 4445SOL    HW114468   0.479   7.428   0.952 -0.0059 -0.5706  0.3736
 4445SOL    HW214469   0.605   7.381   0.883 -0.2166  0.0335 -0.4372
 4446SOL     OW14470   0.537   7.188   1.200 -0.0347  0.3282  0.0473
 4446SOL    HW114471   0.515   7.176   1.107  3.3089 -0.4528 -0.7818
 4446SOL    HW214472   0.482   7.124   1.246  1.1824 -2.3781 -1.9425
 4447SOL     OW14473   7.909   2.284   8.425 -0.4775  0.3436  0.1927
 4447SOL    HW114474   7.815   2.295   8.432 -0.9712 -2.2091 -1.4622
 4447SOL    HW214475   7.936   2.344   8.356 -1.2272 -0.3548 -0.7197
 4448SOL     OW14476   4.953   5.287   2.496 -0.4555  0.4509 -0.5657
 4448SOL    HW114477   4.917   5.228   2.429 -0.9278  0.6235 -0.4691
 4448SOL    HW214478   4.988   5.361   2.446  1.6800 -0.6756 -0.8154
 4449SOL     OW14479   4.656   5.026   6.892  0.1222  0.1266  0.2144
 4449SOL    HW114480   4.694   5.096   6.840  0.8835 -0.8380 -0.5778
 4449SOL    HW214481   4.564   5.049   6.901  0.6047  1.8367  1.0285
 4450SOL     OW14482   1.885   5.082   2.853 -0.2053  0.0598 -0.2088
 4450SOL    HW114483   1.827   5.120   2.919  0.9578  1.1342  0.2424
 4450SOL    HW214484   1.923   5.006   2.895  2.1188  1.8825  1.2399
 4451SOL     OW14485   4.341   0.664   3.591 -0.5478  0.2876 -0.4433
 4451SOL    HW114486   4.423   0.709   3.615 -0.1846 -1.4432  1.9763
 4451SOL    HW214487   4.360   0.622   3.508  1.6839 -1.3865  0.7823
 4452SOL     OW14488   4.601   2.527   2.003 -0.2001  0.2459 -0.1345
 4452SOL    HW114489   4.602   2.518   1.907  0.4438  2.8825 -0.4656
 4452SOL    HW214490   4.513   2.500   2.029 -0.4940 -0.2019 -1.5001
 4453SOL     OW14491   1.381   7.996   8.519 -0.4783  0.5669  0.2475
 4453SOL    HW114492   1.307   7.947   8.556 -1.0920  1.2623 -0.0488
 4453SOL    HW214493   1.380   8.079   8.566  0.9325  0.1073  1.1837
 4454SOL     OW14494   7.513   6.947   0.841 -0.1840  0.0095  0.5053
 4454SOL    HW114495   7.540   6.962   0.750 -0.8437  2.0599  0.6030
 4454SOL    HW214496   7.595   6.946   0.890  0.2167 -1.5323 -0.1213
 4455SOL     OW14497   6.841   0.320   8.192 -0.1342  0.8752  0.4537
 4455SOL    HW114498   6.919   0.269   8.216 -1.1849 -0.5478  0.9510
 4455SOL    HW214499   6.861   0.353   8.104  0.1648 -1.3790 -0.4053
 4456SOL     OW14500   7.677   3.159   5.520  0.0882 -0.1981  0.1721
 4456SOL    HW114501   7.750   3.129   5.575 -0.6905 -0.4304  1.1143
 4456SOL    HW214502   7.691   3.117   5.436  2.3320  1.5729 -0.4596
 4457SOL     OW14503   2.659   2.512   1.944 -0.0715  0.5736 -0.1626
 4457SOL    HW114504   2.745   2.545   1.971  0.3063 -0.5869  0.0864
 4457SOL    HW214505   2.676   2.463   1.864 -0.2776 -0.7269  0.5693
 4458SOL     OW14506   1.451   5.039   0.200 -0.3126 -1.1342 -0.1418
 4458SOL    HW114507   1.366   5.021   0.160  0.0279  2.6056 -3.1440
 4458SOL    HW214508   1.511   5.050   0.126  1.9032  0.1077  1.6726
 4459SOL     OW14509   7.179   0.416   7.363 -0.1895 -0.1058  0.6120
 4459SOL    HW114510   7.166   0.499   7.409  0.7585 -0.2133  1.0939
 4459SOL    HW214511   7.167   0.349   7.430  0.0551 -0.3148  0.4483
 4460SOL     OW14512   8.612   4.646   7.592  0.2344  0.1846 -0.5108
 4460SOL    HW114513   8.706   4.642   7.609  0.3965 -0.7142 -1.5371
 4460SOL    HW214514   8.603   4.628   7.498 -0.9410  0.5505 -0.4920
 4461SOL     OW14515   8.702   1.553   1.005 -0.3373 -0.6597 -0.3535
 4461SOL    HW114516   8.717   1.625   1.065  0.0490  0.5427 -1.8363
 4461SOL    HW214517   8.697   1.594   0.919 -0.8688 -2.3232 -1.1521
 4462SOL     OW14518   4.226   4.157   2.487  0.2611  0.1554  0.6173
 4462SOL    HW114519   4.208   4.103   2.410 -2.1167  2.2340 -0.4121
 4462SOL    HW214520   4.296   4.216   2.459  0.6965 -0.3134  0.7022
 4463SOL     OW14521   8.639   3.760   3.868 -0.6931  0.2303  0.4987
 4463SOL    HW114522   8.617   3.825   3.801 -0.3715  0.9449  1.0673
 4463SOL    HW214523   8.567   3.698   3.866 -0.2896 -0.2463 -1.0948
 4464SOL     OW14524   0.446   3.177   1.092 -0.3784  0.4816 -0.4559
 4464SOL    HW114525   0.405   3.196   1.007 -0.2415  2.1713 -0.1773
 4464SOL    HW214526   0.501   3.254   1.109 -0.1239 -0.0056  0.9959
 4465SOL     OW14527   6.409   4.447   5.663  0.0269 -0.1761 -0.1982
 4465SOL    HW114528   6.344   4.517   5.673 -0.9096 -0.9814 -0.4631
 4465SOL    HW214529   6.370   4.372   5.708  0.8578 -0.6406 -0.2320
 4466SOL     OW14530   8.179   4.360   2.240 -0.2153  0.1667  0.1086
 4466SOL    HW114531   8.237   4.331   2.310  1.8645  0.8339 -1.2430
 4466SOL    HW214532   8.154   4.281   2.193  0.7922 -0.0000 -0.1547
 4467SOL     OW14533   7.452   0.297   2.806 -0.2818  0.2004  0.0747
 4467SOL    HW114534   7.494   0.375   2.842  0.4793 -1.3585  2.8245
 4467SOL    HW214535   7.524   0.245   2.771 -0.4895 -0.2830  0.3507
 4468SOL     OW14536   8.389   5.339   3.843 -0.1114  0.1898 -0.4725
 4468SOL    HW114537   8.375   5.258   3.892  0.3136  0.1867 -0.3489
 4468SOL    HW214538   8.456   5.385   3.893 -0.7740  0.8927 -0.2157
 4469SOL     OW14539   3.870   0.062   0.342 -0.3314  0.4447 -0.4259
 4469SOL    HW114540   3.965   0.071   0.338 -0.2597 -0.1099 -0.0923
 4469SOL    HW214541   3.853  -0.029   0.320 -0.6809  0.1696  0.8842
 4470SOL     OW14542   2.295   9.064   5.660 -0.5604 -0.0704  0.0215
 4470SOL    HW114543   2.388   9.085   5.660 -0.5608 -0.0543  0.3733
 4470SOL    HW214544   2.279   9.029   5.748 -1.1286  0.9909  0.3519
 4471SOL     OW14545   0.398   1.679   0.791 -0.3017  0.1192  0.1560
 4471SOL    HW114546   0.467   1.734   0.753  0.0058  0.2387  0.8808
 4471SOL    HW214547   0.324   1.690   0.730 -0.4166  1.7346  0.5272
 4472SOL     OW14548   7.044   7.786   5.696  0.0793  0.2603  0.4573
 4472SOL    HW114549   7.013   7.846   5.764 -0.5402  0.4651  0.0027
 4472SOL    HW214550   6.997   7.704   5.713  0.6508  0.0078  0.8550
 4473SOL     OW14551   2.870   6.311   4.017  0.3345  0.3220  0.3133
 4473SOL    HW114552   2.941   6.263   4.060  0.2266  0.3250  0.4953
 4473SOL    HW214553   2.899   6.320   3.926  0.2115 -0.3870  0.1941
 4474SOL     OW14554   5.510   6.009   5.608 -0.1816 -0.3017  0.3756
 4474SOL    HW114555   5.476   5.920   5.597 -1.3199 -0.2423  2.7710
 4474SOL    HW214556   5.573   6.002   5.679  0.6272  0.6134 -0.2316
 4475SOL     OW14557   0.224   7.149   7.377  0.3680 -0.2613  0.0971
 4475SOL    HW114558   0.174   7.230   7.371  0.7471  0.2217  2.4258
 4475SOL    HW214559   0.224   7.113   7.288  0.1070  2.2206 -0.9705
 4476SOL     OW14560   6.446   0.366   5.091 -0.7581  0.0018  0.0806
 4476SOL    HW114561   6.528   0.393   5.049 -1.3049  1.4560 -0.1046
 4476SOL    HW214562   6.427   0.436   5.153 -1.7454 -0.4500  0.3084
 4477SOL     OW14563   2.528   4.738   3.597  0.4204 -0.6977  0.4951
 4477SOL    HW114564   2.513   4.724   3.691  0.3292  0.7730  0.7356
 4477SOL    HW214565   2.623   4.746   3.589  0.3265  1.4215  0.8723
 4478SOL     OW14566   5.421   8.436   7.843 -0.2542 -0.3509  0.1631
 4478SOL    HW114567   5.494   8.425   7.904  1.0821 -1.7674 -1.5502
 4478SOL    HW214568   5.425   8.528   7.817 -0.3447  0.0713  1.5635
 4479SOL     OW14569   2.029   4.557   6.055 -0.0147  0.5798 -0.6025
 4479SOL    HW114570   2.068   4.578   6.140  0.4342 -0.6765 -0.4754
 4479SOL    HW214571   2.017   4.642   6.012  0.0587  1.1991  0.5825
 4480SOL     OW14572   7.339   4.148   7.648 -0.2832 -0.0560 -0.2210
 4480SOL    HW114573   7.382   4.066   7.624  0.8123  0.5637 -0.4276
 4480SOL    HW214574   7.368   4.166   7.737 -0.8456 -0.0864 -0.0237
 4481SOL     OW14575   8.831   3.011   3.047 -0.1912  0.4014 -0.6798
 4481SOL    HW114576   8.750   3.051   3.017  0.8052  2.7527 -0.5100
 4481SOL    HW214577   8.875   3.081   3.096  0.8286 -1.5377  1.3559
 4482SOL     OW14578   1.705   3.593   0.114  0.1783 -0.1822 -0.2426
 4482SOL    HW114579   1.610   3.595   0.129  0.1117  0.9791 -0.7254
 4482SOL    HW214580   1.714   3.571   0.021  0.3671  0.1035 -0.2936
 4483SOL     OW14581   2.727   3.331   5.618 -0.2787 -0.1576  0.3078
 4483SOL    HW114582   2.816   3.333   5.584 -0.5232  0.2006 -0.3266
 4483SOL    HW214583   2.671   3.340   5.540 -0.8426  1.9394  0.8904
 4484SOL     OW14584   1.639   1.662   2.092  0.5315  0.4701  0.8107
 4484SOL    HW114585   1.628   1.757   2.079 -0.3732  0.5652  2.0778
 4484SOL    HW214586   1.580   1.623   2.027 -1.1908  0.8646  2.0555
 4485SOL     OW14587   5.779   6.362   2.027 -0.1737 -0.4319  0.4426
 4485SOL    HW114588   5.776   6.397   1.938  0.0564 -2.3745 -0.3775
 4485SOL    HW214589   5.858   6.309   2.030  0.5632  0.6542  2.2769
 4486SOL     OW14590   9.096   0.506   6.408 -0.5009  0.7420  0.3332
 4486SOL    HW114591   9.134   0.547   6.486  0.0495  0.2447  0.3288
 4486SOL    HW214592   9.033   0.570   6.376  0.5546  1.7254  0.1553
 4487SOL     OW14593   4.851   3.995   8.243 -0.4937  0.5225 -0.1523
 4487SOL    HW114594   4.845   4.086   8.215 -2.2711  0.4640 -0.1052
 4487SOL    HW214595   4.776   3.952   8.201  0.3612 -0.9515 -0.2538
 4488SOL     OW14596   5.722   0.930   4.587  0.1777  0.0159  0.0131
 4488SOL    HW114597   5.639   0.965   4.556  0.5384  0.6409 -0.2625
 4488SOL    HW214598   5.711   0.921   4.682 -0.0577  0.5120  0.0369
 4489SOL     OW14599   7.858   0.500   8.501  0.1467 -0.0686 -0.1233
 4489SOL    HW114600   7.923   0.432   8.515  0.1508 -0.1084 -0.3208
 4489SOL    HW214601   7.898   0.580   8.535  0.4346 -0.0295 -0.5430
 4490SOL     OW14602   2.435   2.428   7.618  0.4070 -0.4517  0.4625
 4490SOL    HW114603   2.436   2.509   7.569  0.2896 -1.9071 -2.1292
 4490SOL    HW214604   2.488   2.367   7.565 -0.7423 -2.4697  1.4988
 4491SOL     OW14605   1.632   6.671   5.926 -0.3520 -0.1096 -0.6134
 4491SOL    HW114606   1.706   6.720   5.960 -0.0864 -0.8061 -0.1812
 4491SOL    HW214607   1.665   6.582   5.912 -1.0077 -0.3429 -0.7498
 4492SOL     OW14608   3.917   1.346   3.133  0.2126 -0.4069  0.2657
 4492SOL    HW114609   3.911   1.442   3.135  1.4475 -0.3077 -0.0803
 4492SOL    HW214610   3.833   1.316   3.169  0.0737  0.8078  1.0005
 4493SOL     OW14611   7.759   4.649   4.997 -0.4838  0.4391  0.2684
 4493SOL    HW114612   7.773   4.707   4.922  0.5453 -0.9728 -0.6681
 4493SOL    HW214613   7.666   4.657   5.016 -0.8307  0.6058 -1.3421
 4494SOL     OW14614   2.985   7.943   2.422  0.2968  0.1599  0.3295
 4494SOL    HW114615   3.072   7.955   2.461  0.5628  0.9840 -0.4693
 4494SOL    HW214616   2.930   7.913   2.494  1.1711 -0.0639  0.9234
 4495SOL     OW14617   6.388   4.720   2.657  0.0882  0.1794  0.3732
 4495SOL    HW114618   6.480   4.716   2.632 -0.4378  0.0861 -1.8257
 4495SOL    HW214619   6.380   4.801   2.707  0.9358  1.5380 -1.5688
 4496SOL     OW14620   5.174   3.132   8.202  0.7041 -0.3375 -0.1520
 4496SOL    HW114621   5.179   3.224   8.229  2.9544 -0.8719  1.6166
 4496SOL    HW214622   5.232   3.126   8.127 -0.1189 -0.1860 -0.8170
 4497SOL     OW14623   4.031   8.860   5.626  0.0747  0.2587  0.2505
 4497SOL    HW114624   4.058   8.917   5.553 -0.8072 -0.5898 -0.7604
 4497SOL    HW214625   3.962   8.805   5.590  0.1257 -0.6958  1.5336
 4498SOL     OW14626   0.594   4.567   6.442  0.8603 -0.3060 -0.0837
 4498SOL    HW114627   0.534   4.639   6.461  2.4491  1.0404  0.0814
 4498SOL    HW214628   0.616   4.577   6.350  1.3886 -0.3371  0.0341
 4499SOL     OW14629   2.091   7.687   7.311 -0.5139  0.6738  0.3048
 4499SOL    HW114630   2.133   7.687   7.225 -1.0656 -0.3754  0.0218
 4499SOL    HW214631   2.067   7.596   7.326  1.0922  0.5196  2.3382
 4500SOL     OW14632   6.048   7.121   1.762 -0.3984 -0.0409  0.5671
 4500SOL    HW114633   5.975   7.059   1.755 -1.2076  0.5885  2.6712
 4500SOL    HW214634   6.118   7.071   1.805  0.1471 -0.3955 -0.6838
 4501SOL     OW14635   7.126   5.791   5.995 -0.1345  0.0047  0.1295
 4501SOL    HW114636   7.151   5.709   6.038  0.7214  0.0888 -0.1769
 4501SOL    HW214637   7.084   5.842   6.064 -0.1648 -0.4709  0.4693
 4502SOL     OW14638   7.491   2.188   1.737  0.0791 -0.2518  0.1075
 4502SOL    HW114639   7.425   2.153   1.677  1.6875  0.4190 -2.2058
 4502SOL    HW214640   7.547   2.243   1.681  1.3110  0.9361  2.3792
 4503SOL     OW14641   0.408   6.605   7.103  1.0538 -0.2282 -0.0799
 4503SOL    HW114642   0.331   6.630   7.154 -0.4154 -0.2387 -2.1877
 4503SOL    HW214643   0.399   6.511   7.090  1.5727 -0.2760 -0.1171
 4504SOL     OW14644   8.221   6.271   0.859  0.2256  0.2645  0.4180
 4504SOL    HW114645   8.169   6.191   0.868  0.2740  0.3611  1.6800
 4504SOL    HW214646   8.162   6.341   0.887 -0.1825  0.8381 -1.6882
 4505SOL     OW14647   0.898   0.683   8.950 -0.1828  0.0141 -0.0419
 4505SOL    HW114648   0.987   0.669   8.983  0.3552  0.0476 -1.4084
 4505SOL    HW214649   0.908   0.748   8.880 -0.7382 -2.2749 -2.4306
 4506SOL     OW14650   0.176   5.604   3.613 -0.5092 -0.3244 -0.4739
 4506SOL    HW114651   0.232   5.650   3.676 -0.9276 -1.3851  0.7150
 4506SOL    HW214652   0.235   5.545   3.567 -0.4625 -0.7535  0.1174
 4507SOL     OW14653   7.253   1.417   8.050  0.0584  0.2827 -0.2732
 4507SOL    HW114654   7.342   1.391   8.072  0.0226  1.5939  1.6159
 4507SOL    HW214655   7.209   1.425   8.135 -1.4356  1.1056 -1.0919
 4508SOL     OW14656   1.538   4.143   4.231  0.6158  0.0898  0.0242
 4508SOL    HW114657   1.466   4.084   4.209  0.7146 -0.4207  1.0023
 4508SOL    HW214658   1.566   4.115   4.318  0.5912  1.6688  0.5678
 4509SOL     OW14659   3.667   0.295   5.920 -0.5998  0.2455  0.0771
 4509SOL    HW114660   3.679   0.388   5.898 -1.3655  0.4142  0.3474
 4509SOL    HW214661   3.574   0.288   5.942 -0.4080 -0.4594  0.6774
 4510SOL     OW14662   2.001   0.963   8.323  0.0819 -0.5179  0.4281
 4510SOL    HW114663   2.013   1.022   8.397  0.2463  2.9146 -2.0564
 4510SOL    HW214664   1.906   0.957   8.312  0.0190  1.3555 -0.6267
 4511SOL     OW14665   3.313   7.976   1.137  0.3593  0.1631 -0.3148
 4511SOL    HW114666   3.326   8.068   1.159  1.1704 -0.0119 -0.0419
 4511SOL    HW214667   3.221   7.959   1.160  1.1988 -0.1224  3.3917
 4512SOL     OW14668   2.205   3.014   6.507  0.5854  0.1117 -0.2116
 4512SOL    HW114669   2.209   2.930   6.554 -0.4349  0.1656 -0.0039
 4512SOL    HW214670   2.229   2.992   6.417  1.4553 -0.1970  0.0851
 4513SOL     OW14671   5.102   2.671   5.594  0.1989  0.5265  0.0382
 4513SOL    HW114672   5.025   2.625   5.561  0.7463 -0.5322  0.1875
 4513SOL    HW214673   5.173   2.644   5.534  1.1970 -1.3487  1.9475
 4514SOL     OW14674   8.721   0.447   8.029 -0.1820  0.5083  0.3695
 4514SOL    HW114675   8.725   0.505   8.104  0.5330  0.2515  0.5386
 4514SOL    HW214676   8.684   0.500   7.959  1.0974  1.3800  0.3307
 4515SOL     OW14677   0.684   4.611   8.520  0.2080 -0.4329 -0.3053
 4515SOL    HW114678   0.701   4.701   8.548  1.2196 -0.7802  0.2636
 4515SOL    HW214679   0.614   4.619   8.455 -0.0508  0.7088  0.0861
 4516SOL     OW14680   6.546   5.127   9.112  0.1884  0.5369 -0.5861
 4516SOL    HW114681   6.520   5.056   9.053 -0.3007  0.4290 -0.2459
 4516SOL    HW214682   6.570   5.082   9.193 -1.0682  0.8178 -0.0378
 4517SOL     OW14683   5.199   5.853   7.848 -0.7871  0.0047 -0.1873
 4517SOL    HW114684   5.250   5.855   7.929 -0.2157 -0.3634 -0.5330
 4517SOL    HW214685   5.250   5.797   7.789 -0.8650  0.8060 -1.0281
 4518SOL     OW14686   9.072   4.529   3.477 -0.0939  0.9102 -0.3227
 4518SOL    HW114687   9.134   4.522   3.550  0.0089 -0.9882 -0.5359
 4518SOL    HW214688   8.988   4.545   3.519 -0.3356 -1.7778  0.4393
 4519SOL     OW14689   7.069   3.647   5.713  0.4569 -0.2426 -0.2105
 4519SOL    HW114690   7.121   3.587   5.766 -0.8666 -2.2526 -1.0551
 4519SOL    HW214691   7.025   3.703   5.777 -0.0932 -1.7422  0.7801
 4520SOL     OW14692   4.791   0.372   8.105 -0.1778  0.5519  0.0786
 4520SOL    HW114693   4.823   0.459   8.128  0.1491  0.4805 -0.0968
 4520SOL    HW214694   4.871   0.321   8.086 -0.4141  0.4874 -0.7762
 4521SOL     OW14695   8.634   1.576   6.586  0.2300 -0.4865  0.2264
 4521SOL    HW114696   8.616   1.665   6.555  0.9337  0.5036  2.4278
 4521SOL    HW214697   8.602   1.519   6.516 -0.8309  1.4721 -0.9751
 4522SOL     OW14698   1.477   3.582   6.706 -0.1045 -0.2807 -0.0515
 4522SOL    HW114699   1.522   3.648   6.759 -0.8939 -0.7359  1.2448
 4522SOL    HW214700   1.401   3.627   6.670 -0.6217 -0.4365  0.8008
 4523SOL     OW14701   2.820   3.713   8.700 -1.1256  0.2441  0.2775
 4523SOL    HW114702   2.826   3.719   8.795 -0.5623  1.7685  0.1707
 4523SOL    HW214703   2.730   3.741   8.680 -1.1880  0.0974  0.3532
 4524SOL     OW14704   1.051   2.223   7.847  0.1124 -0.0887  0.1372
 4524SOL    HW114705   1.090   2.200   7.763 -0.4951 -1.4106  0.2038
 4524SOL    HW214706   1.051   2.319   7.848  1.0142 -0.0599 -0.9393
 4525SOL     OW14707   8.663   6.051   8.646 -0.1285 -0.0510 -0.2829
 4525SOL    HW114708   8.683   6.131   8.694  0.4079 -0.2938 -0.0944
 4525SOL    HW214709   8.645   5.986   8.715  1.2695 -0.5650 -0.3829
 4526SOL     OW14710   1.566   2.112   2.680 -0.0264  0.3248  0.0395
 4526SOL    HW114711   1.596   2.031   2.638  0.7067  1.1502 -1.0696
 4526SOL    HW214712   1.507   2.082   2.750 -0.7165 -1.1131 -1.1107
 4527SOL     OW14713   2.441   6.434   7.315 -0.7454  0.1857 -0.7155
 4527SOL    HW114714   2.359   6.427   7.365  0.2350  0.5526  1.0220
 4527SOL    HW214715   2.496   6.364   7.349  0.5812  1.5177  0.0265
 4528SOL     OW14716   7.982   8.905   7.611 -0.1173  0.1955  0.3289
 4528SOL    HW114717   7.948   8.968   7.674  1.8012  0.4820  1.1359
 4528SOL    HW214718   8.015   8.833   7.664  1.8604  0.6064 -0.2717
 4529SOL     OW14719   3.410   6.858   8.863 -0.1466 -0.3693 -0.0023
 4529SOL    HW114720   3.480   6.924   8.864 -0.8476  0.3957  0.0563
 4529SOL    HW214721   3.335   6.904   8.826 -0.7181 -1.0775  0.2529
 4530SOL     OW14722   6.093   1.980   3.917  0.4061  0.0563  0.1935
 4530SOL    HW114723   6.041   2.004   3.841 -1.1508 -0.9397  0.8843
 4530SOL    HW214724   6.082   2.053   3.978  1.9500  1.0213 -0.6341
 4531SOL     OW14725   1.382   2.383   0.094  0.6793  0.6919  0.2112
 4531SOL    HW114726   1.477   2.384   0.093  0.6687  1.0596 -0.3004
 4531SOL    HW214727   1.359   2.388   0.187  1.1587  0.2781  0.3551
 4532SOL     OW14728   2.003   1.312   6.124 -0.1409  0.1850  0.1467
 4532SOL    HW114729   1.912   1.331   6.144  0.4701  2.2232  1.2723
 4532SOL    HW214730   2.052   1.342   6.201  1.5139 -0.5550 -0.5513
 4533SOL     OW14731   2.850   5.946   7.730  0.7693  0.1738  0.0844
 4533SOL    HW114732   2.887   5.858   7.721  0.0956 -0.1551  0.4597
 4533SOL    HW214733   2.872   5.990   7.647 -0.1442 -0.8332 -0.7244
 4534SOL     OW14734   0.195   2.928   3.905 -0.5142 -0.2145 -0.3595
 4534SOL    HW114735   0.116   2.966   3.868 -0.6399  0.6830  0.7773
 4534SOL    HW214736   0.265   2.952   3.843 -0.5966  1.8833  0.3082
 4535SOL     OW14737   3.141   1.457   1.449 -0.3065 -0.1449 -0.0690
 4535SOL    HW114738   3.188   1.495   1.523  0.8587 -1.6748  0.0428
 4535SOL    HW214739   3.050   1.449   1.478 -0.6139  2.5045 -0.1314
 4536SOL     OW14740   0.230   3.956   4.838 -0.5052 -0.2077 -0.2068
 4536SOL    HW114741   0.191   3.869   4.851  0.5349 -0.5975  0.5293
 4536SOL    HW214742   0.317   3.949   4.879 -1.0835  1.7208  1.5139
 4537SOL     OW14743   2.079   1.188   8.966  0.4612 -0.5688 -0.1269
 4537SOL    HW114744   2.158   1.227   9.004  0.1226  0.0142 -0.0115
 4537SOL    HW214745   2.018   1.261   8.956  0.3869 -0.7840 -1.4085
 4538SOL     OW14746   0.314   6.194   1.033 -0.1604 -0.2001  0.2113
 4538SOL    HW114747   0.409   6.199   1.042  0.0778 -0.1528 -1.9826
 4538SOL    HW214748   0.289   6.277   0.992 -1.3566  0.4058  2.0270
 4539SOL     OW14749   7.662   2.311   2.677  0.0152 -0.3334  0.4483
 4539SOL    HW114750   7.701   2.333   2.592 -0.0674 -0.0981  0.4720
 4539SOL    HW214751   7.614   2.230   2.660 -0.0110 -0.2810  0.2677
 4540SOL     OW14752   8.849   2.079   5.605  0.4529 -0.3738 -0.2913
 4540SOL    HW114753   8.911   2.151   5.598  0.3851 -0.3855 -1.1016
 4540SOL    HW214754   8.789   2.091   5.532  0.1841 -1.0086 -0.1872
 4541SOL     OW14755   1.100   6.321   0.589 -0.4979 -0.1464 -0.1375
 4541SOL    HW114756   1.126   6.300   0.679  2.1905 -4.7139 -1.6116
 4541SOL    HW214757   1.035   6.254   0.566  0.3752 -0.4150 -2.0897
 4542SOL     OW14758   4.164   7.478   6.485  0.6626  0.2766 -0.1751
 4542SOL    HW114759   4.167   7.512   6.574  0.5138  0.8206 -0.3748
 4542SOL    HW214760   4.094   7.412   6.486  0.0974  0.8701 -0.0879
 4543SOL     OW14761   7.927   2.413   0.409 -0.3693  0.0001  0.5445
 4543SOL    HW114762   8.007   2.451   0.372 -1.0058 -0.3861 -1.3286
 4543SOL    HW214763   7.953   2.385   0.497  0.3496  4.0248  1.8294
 4544SOL     OW14764   1.947   8.151   0.272 -0.0263 -0.5151 -0.0309
 4544SOL    HW114765   2.020   8.213   0.273 -1.1318  0.8317 -0.0800
 4544SOL    HW214766   1.985   8.069   0.303  1.6020  0.0298 -0.4995
 4545SOL     OW14767   2.516   7.427   3.414  0.5422 -0.3896 -0.6308
 4545SOL    HW114768   2.530   7.519   3.390 -1.2416  0.0854 -0.0626
 4545SOL    HW214769   2.473   7.388   3.338  0.4226 -0.4893 -0.5143
 4546SOL     OW14770   6.256   8.194   7.183 -0.1050  0.2062  0.4379
 4546SOL    HW114771   6.228   8.122   7.128 -0.2983  0.3912  0.2941
 4546SOL    HW214772   6.310   8.249   7.126 -2.2451  1.6904 -0.2913
 4547SOL     OW14773   0.217   3.874   1.226 -0.2875  0.0599 -0.2996
 4547SOL    HW114774   0.179   3.838   1.306 -0.7296  0.2641 -0.4155
 4547SOL    HW214775   0.272   3.803   1.192  0.8512  0.3919  0.8089
 4548SOL     OW14776   3.432   7.158   7.614 -0.4351 -0.0775 -0.8212
 4548SOL    HW114777   3.358   7.153   7.554  0.2910 -1.1465 -1.6569
 4548SOL    HW214778   3.450   7.252   7.621 -0.0126  0.0468 -2.9375
 4549SOL     OW14779   6.092   2.678   2.328 -0.2542  0.0277  0.0179
 4549SOL    HW114780   6.107   2.645   2.416 -0.5102  0.4945  0.2405
 4549SOL    HW214781   6.128   2.610   2.270  1.5765  0.5092  0.5079
 4550SOL     OW14782   4.408   0.376   3.060  0.0795  0.8769 -0.3120
 4550SOL    HW114783   4.342   0.379   2.991  0.1555 -1.0253 -0.5357
 4550SOL    HW214784   4.390   0.452   3.115 -1.9100  0.7607 -0.7224
 4551SOL     OW14785   4.374   0.359   6.234 -0.3704  0.5792  1.0276
 4551SOL    HW114786   4.438   0.430   6.224  1.7957 -1.1965  1.4624
 4551SOL    HW214787   4.419   0.294   6.288 -1.5320 -1.9074 -0.8086
 4552SOL     OW14788   4.540   6.700   5.759  0.9404 -0.4614 -0.1430
 4552SOL    HW114789   4.629   6.719   5.786  0.1140  0.7372  2.0213
 4552SOL    HW214790   4.513   6.777   5.709  0.4820  0.1597  1.0128
 4553SOL     OW14791   3.670   5.500   3.025 -0.1711  0.1776  0.1660
 4553SOL    HW114792   3.658   5.447   3.104  0.0794  0.1143  0.1629
 4553SOL    HW214793   3.639   5.587   3.050 -0.7772 -0.0135  0.1072
 4554SOL     OW14794   7.498   8.702   3.461  0.3714 -0.5875 -0.1824
 4554SOL    HW114795   7.436   8.722   3.531  0.4663  1.2460 -0.5687
 4554SOL    HW214796   7.448   8.712   3.380  1.1950  1.3505 -0.5245
 4555SOL     OW14797   4.485   3.151   6.412  0.1917 -0.4186 -0.7042
 4555SOL    HW114798   4.462   3.074   6.464 -0.1000  0.6328  0.7867
 4555SOL    HW214799   4.417   3.156   6.344  0.3268 -1.5625 -0.9402
 4556SOL     OW14800   7.153   2.120   4.573  0.2978  0.0713  0.2203
 4556SOL    HW114801   7.095   2.127   4.497 -0.1047  0.8775  0.5975
 4556SOL    HW214802   7.097   2.136   4.649  0.9196  0.4264  0.6167
 4557SOL     OW14803   1.816   6.788   7.803 -0.5456  0.1713  0.0314
 4557SOL    HW114804   1.854   6.853   7.862 -0.7388 -0.3350  0.7330
 4557SOL    HW214805   1.735   6.828   7.772 -0.7272  0.2328  0.5612
 4558SOL     OW14806   8.020   4.239   4.342 -0.0444  0.7466  0.1298
 4558SOL    HW114807   7.976   4.157   4.366  0.0796  0.8906  0.8854
 4558SOL    HW214808   8.113   4.219   4.346 -0.0168  0.8792  0.1730
 4559SOL     OW14809   4.214   4.125   5.349 -0.0860 -0.0456  0.1804
 4559SOL    HW114810   4.298   4.164   5.374  0.7933 -1.6033 -0.2289
 4559SOL    HW214811   4.167   4.116   5.432  0.0839  0.9827  0.3970
 4560SOL     OW14812   7.325   8.643   2.186  0.8110  0.2377  0.5512
 4560SOL    HW114813   7.319   8.736   2.212  0.1277  0.6608 -1.0317
 4560SOL    HW214814   7.237   8.609   2.199  1.2261 -0.4263  1.8373
 4561SOL     OW14815   5.892   9.039   1.941 -0.2546  0.0194  0.3671
 4561SOL    HW114816   5.849   8.967   1.895  0.2549  0.1728 -0.3693
 4561SOL    HW214817   5.884   9.016   2.033 -0.8853 -0.5329  0.1841
 4562SOL     OW14818   7.185   8.101   0.969 -0.0142 -0.5913  0.2932
 4562SOL    HW114819   7.139   8.099   1.053 -2.8236 -0.0338 -1.0999
 4562SOL    HW214820   7.175   8.012   0.935  0.5842 -0.6528  0.2750
 4563SOL     OW14821   8.066   0.277   0.889  0.5720 -0.6226  0.1559
 4563SOL    HW114822   8.075   0.206   0.952 -1.0968 -1.2101 -0.2086
 4563SOL    HW214823   7.972   0.293   0.884  0.9059  1.8113  0.4123
 4564SOL     OW14824   4.361   1.586   1.048  0.3043  0.1369 -0.1055
 4564SOL    HW114825   4.320   1.572   1.133  1.2478  1.5706  0.6191
 4564SOL    HW214826   4.307   1.537   0.986 -2.0930  1.3715  0.9090
 4565SOL     OW14827   3.721   7.663   1.259  0.0908  0.2959 -0.2871
 4565SOL    HW114828   3.731   7.758   1.257 -1.8337  0.5170 -1.5627
 4565SOL    HW214829   3.661   7.646   1.332 -0.5915  0.1910 -0.8629
 4566SOL     OW14830   2.850   0.105   1.137 -0.1416 -0.0954  0.3103
 4566SOL    HW114831   2.858   0.135   1.227 -2.2009  0.3471  0.3799
 4566SOL    HW214832   2.756   0.096   1.122  0.1874 -0.9348 -1.5499
 4567SOL     OW14833   3.403   6.777   7.813  0.1624 -0.1386  0.4036
 4567SOL    HW114834   3.360   6.821   7.886 -2.1164 -1.0134 -0.3313
 4567SOL    HW214835   3.381   6.829   7.736  1.8855  0.3360  0.1939
 4568SOL     OW14836   1.095   3.594   8.856  0.0442 -0.3353 -0.2647
 4568SOL    HW114837   1.003   3.573   8.838 -0.7470  2.4168  0.1647
 4568SOL    HW214838   1.133   3.609   8.769 -0.0713 -0.8188 -0.4037
 4569SOL     OW14839   5.992   5.608   1.405 -0.3745 -0.2906 -0.2236
 4569SOL    HW114840   6.020   5.552   1.332  0.0449  1.0033 -1.1042
 4569SOL    HW214841   6.026   5.565   1.483 -1.1778 -1.9321 -0.7419
 4570SOL     OW14842   2.505   2.035   5.051 -0.9079  0.0172 -0.1225
 4570SOL    HW114843   2.529   2.117   5.095  0.2985 -1.0112  1.2448
 4570SOL    HW214844   2.412   2.024   5.072 -0.8978  0.6670  0.3236
 4571SOL     OW14845   7.304   1.876   7.028 -0.9522  0.0986  0.1562
 4571SOL    HW114846   7.388   1.893   7.071 -1.4288 -0.8973  1.5648
 4571SOL    HW214847   7.316   1.791   6.986 -1.1867  0.0294  0.2254
 4572SOL     OW14848   0.216   0.758   6.536 -0.1602  0.0434 -0.2035
 4572SOL    HW114849   0.290   0.700   6.550  0.5495  0.7464 -0.9467
 4572SOL    HW214850   0.234   0.834   6.591 -0.8377 -0.2056  0.3817
 4573SOL     OW14851   3.129   7.880   6.223 -0.1424  0.7254  0.4874
 4573SOL    HW114852   3.111   7.874   6.129 -0.3126  1.3136  0.4751
 4573SOL    HW214853   3.142   7.789   6.251 -2.1881  0.3332  0.3008
 4574SOL     OW14854   2.225   5.831   0.661  0.6469  0.2126  0.1211
 4574SOL    HW114855   2.300   5.810   0.717 -0.4584 -1.6290  0.9856
 4574SOL    HW214856   2.152   5.784   0.700 -0.3305 -0.6074 -2.4952
 4575SOL     OW14857   0.366   1.248   3.727 -0.1489 -0.1237 -0.8255
 4575SOL    HW114858   0.386   1.196   3.805  0.0196  1.3980  0.1785
 4575SOL    HW214859   0.272   1.232   3.711 -0.7910  1.3854  1.1382
 4576SOL     OW14860   4.662   6.651   6.494  0.2506  0.2336 -0.3399
 4576SOL    HW114861   4.667   6.685   6.584  0.1476 -1.3033  0.2877
 4576SOL    HW214862   4.749   6.666   6.458  0.5499  0.1135  0.3124
 4577SOL     OW14863   2.598   1.301   7.495  0.3675  0.2818  0.6708
 4577SOL    HW114864   2.637   1.382   7.464 -0.4149  1.1569  1.8981
 4577SOL    HW214865   2.520   1.290   7.441  0.5173  0.2909  0.4489
 4578SOL     OW14866   0.024   7.714   0.731  0.3732  0.2874 -0.4563
 4578SOL    HW114867   0.045   7.804   0.755 -0.2393  0.2085  0.4094
 4578SOL    HW214868   0.078   7.697   0.654  0.9431  1.1948 -0.2746
 4579SOL     OW14869   8.814   8.626   6.028  0.2199 -0.0500 -0.5309
 4579SOL    HW114870   8.804   8.707   5.978  0.8063  1.1581  1.2212
 4579SOL    HW214871   8.908   8.611   6.031  0.3738  0.9224  1.6540
 4580SOL     OW14872   6.450   0.365   6.513  0.0846 -0.5833 -0.3513
 4580SOL    HW114873   6.400   0.337   6.590 -2.7487 -0.5652 -2.0460
 4580SOL    HW214874   6.467   0.458   6.529 -0.1543 -0.6581  0.4035
 4581SOL     OW14875   2.257   8.516   8.747  0.6962 -0.0922  0.0015
 4581SOL    HW114876   2.351   8.532   8.760  0.3650  1.8747  0.1709
 4581SOL    HW214877   2.254   8.447   8.681  2.2773 -2.4127  2.1488
 4582SOL     OW14878   0.893   7.827   7.353 -0.3417  0.1303 -0.4979
 4582SOL    HW114879   0.834   7.814   7.279 -0.3254  2.2936 -0.9656
 4582SOL    HW214880   0.835   7.849   7.426 -0.2361  0.1394 -0.4174
 4583SOL     OW14881   2.022   0.873   0.602  0.6216  0.0911  0.1923
 4583SOL    HW114882   2.074   0.849   0.526  0.4558 -0.3036  0.2023
 4583SOL    HW214883   2.086   0.883   0.673  0.9266  1.6693 -0.2664
 4584SOL     OW14884   7.705   7.637   4.479 -0.5381  0.0397  0.5364
 4584SOL    HW114885   7.613   7.658   4.461  0.3112  2.3308 -1.6654
 4584SOL    HW214886   7.713   7.647   4.574 -2.9622 -2.3851  1.1598
 4585SOL     OW14887   0.168   1.196   6.838  0.3495  0.4164  0.4949
 4585SOL    HW114888   0.158   1.114   6.887 -1.1847 -0.0923 -0.6053
 4585SOL    HW214889   0.178   1.262   6.906  0.7693 -0.5634  1.4284
 4586SOL     OW14890   2.153   0.035   1.090 -0.1448  0.2085 -0.0135
 4586SOL    HW114891   2.095   0.018   1.164 -1.9584 -0.2450 -1.4599
 4586SOL    HW214892   2.204   0.112   1.116 -2.4774  1.5837  0.7508
 4587SOL     OW14893   5.962   5.578   0.847 -0.1656 -0.2387  0.4765
 4587SOL    HW114894   6.037   5.629   0.878  0.3470 -0.3938 -0.4688
 4587SOL    HW214895   5.892   5.643   0.836 -0.2065 -0.1051  1.4315
 4588SOL     OW14896   7.476   7.898   5.806  0.2307  0.7165  0.1462
 4588SOL    HW114897   7.487   7.993   5.807  0.0765  0.7370 -0.0179
 4588SOL    HW214898   7.386   7.885   5.836  0.1870  0.6327 -0.0202
 4589SOL     OW14899   7.732   3.533   6.341 -0.0693  0.3847 -0.4789
 4589SOL    HW114900   7.682   3.609   6.313  0.7292  1.8257  1.7515
 4589SOL    HW214901   7.820   3.566   6.356  0.5758 -1.2257 -0.5087
 4590SOL     OW14902   4.315   1.307   6.504  0.1193  0.3708  0.1014
 4590SOL    HW114903   4.373   1.372   6.544 -0.3208  1.2267 -0.6189
 4590SOL    HW214904   4.358   1.283   6.422 -0.1999  0.4918 -0.1049
 4591SOL     OW14905   4.033   4.567   5.545 -0.3447 -0.4459  0.0084
 4591SOL    HW114906   3.960   4.513   5.517 -1.0716  1.0379 -1.0800
 4591SOL    HW214907   4.110   4.527   5.505 -0.5871 -1.7781  0.8310
 4592SOL     OW14908   7.423   2.152   3.415  0.1233  0.0289  0.4260
 4592SOL    HW114909   7.421   2.247   3.406  0.4843  0.0163  0.2249
 4592SOL    HW214910   7.437   2.137   3.509 -0.5165  0.1684  0.5480
 4593SOL     OW14911   0.924   2.866   3.521  0.2009 -0.4480  0.2157
 4593SOL    HW114912   0.874   2.810   3.461 -0.8882 -0.1101  0.7772
 4593SOL    HW214913   0.942   2.811   3.597 -1.7300  0.1749  1.2056
 4594SOL     OW14914   0.441   1.227   4.685  0.5794  0.1902 -0.0257
 4594SOL    HW114915   0.431   1.306   4.632  1.4341  0.7972  0.6857
 4594SOL    HW214916   0.517   1.244   4.740  0.4329 -0.9042  0.5546
 4595SOL     OW14917   1.009   8.009   8.613 -0.4294  0.1771 -0.4681
 4595SOL    HW114918   1.051   8.084   8.656  0.0062  1.2504 -2.6172
 4595SOL    HW214919   1.070   7.936   8.628 -1.2457 -0.0498  2.3532
 4596SOL     OW14920   7.890   0.874   6.351  0.2358 -0.0862  0.0474
 4596SOL    HW114921   7.847   0.809   6.407 -0.5650 -2.0859 -2.6484
 4596SOL    HW214922   7.968   0.829   6.317  0.8503  1.1542 -0.2626
 4597SOL     OW14923   2.486   4.696   4.951 -0.1114  0.0677 -0.8379
 4597SOL    HW114924   2.480   4.676   5.045  2.2665  0.5535 -0.5240
 4597SOL    HW214925   2.533   4.621   4.914  1.7292  1.2807 -1.0611
 4598SOL     OW14926   2.482   5.820   1.824  0.1818  0.4823  0.2317
 4598SOL    HW114927   2.542   5.892   1.805  0.6398  0.3642  1.1657
 4598SOL    HW214928   2.402   5.862   1.855  0.6196  0.6028  1.2566
 4599SOL     OW14929   0.353   2.911   7.901 -0.1002  0.0589 -0.1358
 4599SOL    HW114930   0.346   2.989   7.846 -0.3263 -0.4336 -0.8198
 4599SOL    HW214931   0.265   2.874   7.901  0.1791 -0.6170 -0.4533
 4600SOL     OW14932   6.052   0.578   6.132  0.1018  0.2027 -0.7158
 4600SOL    HW114933   6.130   0.632   6.121 -0.2903  0.5223 -2.1974
 4600SOL    HW214934   6.085   0.489   6.144  0.7182  0.5368  0.1415
 4601SOL     OW14935   0.883   2.083   9.049 -0.0696 -0.4590  0.0379
 4601SOL    HW114936   0.847   2.168   9.073  0.3171 -0.4731  0.6968
 4601SOL    HW214937   0.807   2.025   9.041 -0.3358 -0.0488 -0.4465
 4602SOL     OW14938   0.571   2.565   7.317  0.4232  0.1515 -0.3830
 4602SOL    HW114939   0.580   2.471   7.298  1.0189 -0.2216  1.5280
 4602SOL    HW214940   0.486   2.571   7.362 -0.1319  0.7289 -1.4635
 4603SOL     OW14941   1.220   5.157   5.130  0.0310 -0.0790 -0.2033
 4603SOL    HW114942   1.250   5.246   5.111 -0.1905  0.2386  0.9086
 4603SOL    HW214943   1.233   5.110   5.047  1.5285  0.5968 -0.3874
 4604SOL     OW14944   0.626   4.378   1.080 -0.0080  0.0067 -0.1692
 4604SOL    HW114945   0.608   4.332   0.998 -0.5444  0.4616 -0.3118
 4604SOL    HW214946   0.622   4.471   1.057 -1.5831  0.1647  0.6582
 4605SOL     OW14947   5.152   3.870   2.133  0.0414  0.4997  0.2106
 4605SOL    HW114948   5.067   3.859   2.090  0.2028  0.3406 -0.0724
 4605SOL    HW214949   5.202   3.794   2.104  0.2321  0.5191  0.4925
 4606SOL     OW14950   2.831   4.943   4.922  0.0166 -0.1561  0.0375
 4606SOL    HW114951   2.879   4.985   4.851  0.4399  0.9531  0.9537
 4606SOL    HW214952   2.775   5.012   4.959 -1.1257 -1.0284 -0.0017
 4607SOL     OW14953   6.147   7.067   3.497  0.0059 -0.2405 -0.0442
 4607SOL    HW114954   6.117   7.026   3.578 -1.0885  0.9547  0.1826
 4607SOL    HW214955   6.201   7.140   3.526 -0.7910  0.4937 -0.3599
 4608SOL     OW14956   5.957   5.795   8.266 -0.1757  0.1390 -0.0881
 4608SOL    HW114957   5.982   5.811   8.357 -1.8986  0.1705  0.4183
 4608SOL    HW214958   5.993   5.870   8.218  1.1290 -0.1030  0.4731
 4609SOL     OW14959   8.303   2.265   4.148  0.0803 -0.3792 -0.0320
 4609SOL    HW114960   8.382   2.296   4.104 -1.8671  3.1313 -1.5144
 4609SOL    HW214961   8.294   2.323   4.223 -1.2188 -0.5288 -0.0571
 4610SOL     OW14962   7.514   5.146   1.844 -0.5390  0.2483  0.5285
 4610SOL    HW114963   7.473   5.161   1.759 -0.2763 -0.1218  0.3332
 4610SOL    HW214964   7.608   5.147   1.826 -0.4776  0.4185  0.8576
 4611SOL     OW14965   8.099   1.361   6.232  0.5663  0.2307  0.4258
 4611SOL    HW114966   8.094   1.455   6.250 -0.3000  0.1604  0.6125
 4611SOL    HW214967   8.147   1.325   6.306  1.0262  0.5421  0.2830
 4612SOL     OW14968   0.289   8.261   4.566 -0.6932 -0.2405  0.1036
 4612SOL    HW114969   0.308   8.282   4.658 -1.5059 -0.5946  0.3640
 4612SOL    HW214970   0.366   8.291   4.518 -0.7202  0.9852  0.7673
 4613SOL     OW14971   3.542   2.645   0.437 -0.0290  0.0327 -0.7402
 4613SOL    HW114972   3.468   2.683   0.483  0.7105  1.0824 -0.3610
 4613SOL    HW214973   3.547   2.694   0.355  0.6962  0.5364 -0.4185
 4614SOL     OW14974   0.050   3.453   1.293  0.4301 -0.3395  0.3956
 4614SOL    HW114975   0.064   3.545   1.316 -0.6428  0.2257 -1.0269
 4614SOL    HW214976   0.137   3.414   1.294  0.9901  0.8644  0.3789
 4615SOL     OW14977   3.906   8.432   7.075  0.1593  0.1683  0.2163
 4615SOL    HW114978   3.930   8.401   6.988 -0.1969 -0.7474  0.4297
 4615SOL    HW214979   3.811   8.425   7.079  0.1889 -0.0303  0.7603
 4616SOL     OW14980   7.259   4.151   1.164  0.3245 -0.6760 -0.2080
 4616SOL    HW114981   7.268   4.105   1.080  1.5652 -0.8800  0.0057
 4616SOL    HW214982   7.174   4.193   1.160 -0.2324 -1.8361 -0.9947
 4617SOL     OW14983   6.003   1.077   7.694  0.3540  0.2663  0.0927
 4617SOL    HW114984   5.994   1.086   7.789 -1.5976  0.9663 -0.1103
 4617SOL    HW214985   5.916   1.053   7.663  0.8310  0.5146 -1.5762
 4618SOL     OW14986   9.014   6.993   2.438  0.5092  0.2258 -0.6255
 4618SOL    HW114987   9.062   7.070   2.405 -0.3422  0.6464 -0.9047
 4618SOL    HW214988   9.014   6.932   2.364  0.8386  0.1167 -0.5369
 4619SOL     OW14989   0.808   4.952   6.573  0.0059  0.3479  0.3129
 4619SOL    HW114990   0.812   4.860   6.548  0.1724  0.1962  0.8888
 4619SOL    HW214991   0.896   4.974   6.602 -0.2766  0.3946  1.1745
 4620SOL     OW14992   0.768   6.842   5.519 -0.1079  0.2975 -1.1010
 4620SOL    HW114993   0.856   6.869   5.548 -0.4723  0.1319  0.2366
 4620SOL    HW214994   0.764   6.749   5.539 -0.6077  0.3206 -1.0896
 4621SOL     OW14995   0.712   7.772   5.012 -0.2278  0.3208  0.4087
 4621SOL    HW114996   0.641   7.836   5.017  0.7364  1.3456  3.2059
 4621SOL    HW214997   0.702   7.719   5.091  0.6241 -1.2168 -0.4649
 4622SOL     OW14998   4.609   2.911   7.343 -0.0505  0.6735 -0.2702
 4622SOL    HW114999   4.526   2.951   7.368  0.0393  1.2777 -0.8830
 4622SOL    HW215000   4.663   2.917   7.422 -1.2899 -1.7654  0.8519
 4623SOL     OW15001   1.038   4.235   6.937  0.2813  0.2090  0.4168
 4623SOL    HW115002   1.132   4.218   6.947  0.0676 -0.7907  0.9006
 4623SOL    HW215003   0.996   4.168   6.991 -0.7595 -0.5666 -1.2677
 4624SOL     OW15004   5.764   2.183   5.322 -0.2129  0.1043 -0.3205
 4624SOL    HW115005   5.832   2.213   5.262 -1.4480  1.1570 -1.2590
 4624SOL    HW215006   5.797   2.205   5.409  0.0759  1.8677 -0.8370
 4625SOL     OW15007   0.005   2.371   6.205 -0.1181 -0.0328 -0.2243
 4625SOL    HW115008  -0.001   2.464   6.185  3.9542  0.0540 -2.0412
 4625SOL    HW215009   0.034   2.367   6.296 -0.2356  0.4423 -0.1648
 4626SOL     OW15010   6.932   5.482   4.402  0.1491 -0.4227 -0.1473
 4626SOL    HW115011   6.887   5.440   4.329 -0.9798  1.4788 -0.6106
 4626SOL    HW215012   7.024   5.485   4.376 -0.1923 -0.0283 -1.3847
 4627SOL     OW15013   2.232   1.563   3.631  0.0466  0.3553  0.1392
 4627SOL    HW115014   2.240   1.476   3.592 -0.6016  0.4676 -0.2679
 4627SOL    HW215015   2.164   1.553   3.698 -1.5091  0.9776 -1.2770
 4628SOL     OW15016   7.792   7.787   1.965  0.1282 -0.1697 -0.4662
 4628SOL    HW115017   7.768   7.797   1.873 -0.8035 -0.3572 -0.2543
 4628SOL    HW215018   7.819   7.696   1.974  1.2471  0.1207 -0.7713
 4629SOL     OW15019   1.143   3.077   8.391  0.1346 -0.0197  0.1346
 4629SOL    HW115020   1.135   3.172   8.376  0.4140  0.1787  1.1554
 4629SOL    HW215021   1.062   3.041   8.355 -0.6209  0.7733  0.9582
 4630SOL     OW15022   2.881   0.286   6.315 -0.2236 -0.4872  0.5570
 4630SOL    HW115023   2.874   0.331   6.399 -2.1714  1.3166 -0.4733
 4630SOL    HW215024   2.865   0.354   6.249 -0.6419 -2.1777 -1.1976
 4631SOL     OW15025   4.570   8.151   7.524 -0.3366 -0.0121  0.6073
 4631SOL    HW115026   4.481   8.180   7.547 -1.1590 -2.3964  0.6935
 4631SOL    HW215027   4.570   8.149   7.428  0.9265  3.5422  0.3971
 4632SOL     OW15028   2.815   0.349   0.258  0.1788 -0.3538  0.4338
 4632SOL    HW115029   2.734   0.298   0.256  0.0001 -0.0963  0.9712
 4632SOL    HW215030   2.874   0.297   0.312  0.3991 -0.5735 -0.0123
 4633SOL     OW15031   3.713   3.146   8.547  0.7231 -1.1654 -0.3878
 4633SOL    HW115032   3.724   3.198   8.627  0.2812  1.0427 -1.6904
 4633SOL    HW215033   3.797   3.101   8.536  1.3638 -0.2134  0.4431
 4634SOL     OW15034   2.700   6.628   0.711 -0.0089  0.3322 -0.1926
 4634SOL    HW115035   2.628   6.628   0.774 -1.4933  1.8881 -1.7960
 4634SOL    HW215036   2.768   6.681   0.753 -1.0221  1.4432  0.0828
 4635SOL     OW15037   4.777   8.700   0.609 -0.1750  0.1921 -0.0908
 4635SOL    HW115038   4.760   8.627   0.669 -0.5247  1.0243  0.8517
 4635SOL    HW215039   4.711   8.690   0.540  1.3988 -1.8762 -1.4554
 4636SOL     OW15040   9.042   6.898   2.718  0.2484 -0.1616 -0.2683
 4636SOL    HW115041   9.007   6.924   2.633  0.3197 -0.0727 -0.2715
 4636SOL    HW215042   9.099   6.823   2.699  1.2519  0.6250 -0.4863
 4637SOL     OW15043   1.198   7.974   2.732 -0.0487  0.0527  0.1364
 4637SOL    HW115044   1.230   7.996   2.820 -0.9719  0.6433  0.3463
 4637SOL    HW215045   1.212   8.054   2.681  0.4936 -0.2926 -0.2669
 4638SOL     OW15046   4.484   8.786   8.052  0.3248 -0.1863  0.3030
 4638SOL    HW115047   4.391   8.801   8.034  0.2739 -0.3989  0.3821
 4638SOL    HW215048   4.502   8.701   8.012  0.7786  0.3991 -0.7390
 4639SOL     OW15049   5.663   6.610   5.039 -0.5839 -0.2449 -0.2333
 4639SOL    HW115050   5.656   6.522   5.003  0.8553 -1.4839  2.2588
 4639SOL    HW215051   5.590   6.617   5.101 -1.2480  0.7161 -1.0812
 4640SOL     OW15052   8.521   5.992   5.507  0.3721  0.2499 -0.6427
 4640SOL    HW115053   8.483   6.045   5.578 -0.5653 -1.3324  0.0950
 4640SOL    HW215054   8.608   5.968   5.540  0.3972  0.4773 -0.5380
 4641SOL     OW15055   2.955   3.167   1.092  0.2641 -0.1624 -0.1163
 4641SOL    HW115056   2.888   3.118   1.139 -0.5389  1.6292  0.6963
 4641SOL    HW215057   3.035   3.117   1.107  0.1579  0.4396  3.5463
 4642SOL     OW15058   7.803   7.050   1.098 -0.1682  0.6419  0.4565
 4642SOL    HW115059   7.811   7.089   1.011 -0.7800  2.0375  1.0064
 4642SOL    HW215060   7.733   6.985   1.088 -0.9495  1.5136  0.1277
 4643SOL     OW15061   6.610   1.781   4.255 -0.2941 -0.2417  0.2914
 4643SOL    HW115062   6.578   1.787   4.345 -0.7912  2.3195  0.0189
 4643SOL    HW215063   6.697   1.819   4.258 -0.5429  0.4001 -0.3947
 4644SOL     OW15064   0.885   6.317   5.961 -0.5999 -0.3066 -0.7684
 4644SOL    HW115065   0.834   6.260   5.903 -2.0967  0.8150 -0.6245
 4644SOL    HW215066   0.973   6.319   5.922 -1.1896 -0.6973 -2.1962
 4645SOL     OW15067   0.354   2.437   0.778 -0.5099  0.0301 -0.1285
 4645SOL    HW115068   0.415   2.363   0.775 -0.1991  0.2682  0.2457
 4645SOL    HW215069   0.372   2.479   0.862 -0.3061  0.8661 -0.5922
 4646SOL     OW15070   7.687   3.963   8.449 -0.2359 -0.3833 -0.0052
 4646SOL    HW115071   7.680   3.958   8.354 -1.1478 -2.7102  0.1196
 4646SOL    HW215072   7.610   4.012   8.476 -0.0560  0.1529 -0.4394
 4647SOL     OW15073   4.032   2.610   1.170  0.1743  0.0923 -0.1221
 4647SOL    HW115074   3.993   2.684   1.216  0.9733  1.5692 -1.7126
 4647SOL    HW215075   4.102   2.648   1.117  0.0193 -1.6641 -1.7151
 4648SOL     OW15076   4.495   2.798   4.527  0.0094 -0.1403  0.2413
 4648SOL    HW115077   4.557   2.804   4.600  0.7810 -2.6079 -0.1142
 4648SOL    HW215078   4.423   2.746   4.561 -1.0691  1.1739  0.0790
 4649SOL     OW15079   8.075   8.736   4.119 -0.0773 -0.4647  0.1460
 4649SOL    HW115080   8.077   8.642   4.137 -1.1718 -0.2737  1.4129
 4649SOL    HW215081   7.993   8.766   4.159  0.8375  1.2322  0.8342
 4650SOL     OW15082   7.689   4.313   2.528  0.2058  0.3151  0.1193
 4650SOL    HW115083   7.717   4.350   2.445  0.2886  1.1781  0.5238
 4650SOL    HW215084   7.665   4.388   2.582  0.8114 -0.1763  1.1159
 4651SOL     OW15085   2.532   0.472   5.732 -0.5117  0.4628  0.1240
 4651SOL    HW115086   2.581   0.465   5.813  0.6334 -0.2137 -0.6071
 4651SOL    HW215087   2.543   0.563   5.704  0.1186  0.3838  0.1052
 4652SOL     OW15088   4.706   0.162   8.277  0.1833 -0.3356  0.2460
 4652SOL    HW115089   4.713   0.257   8.287  2.6283 -0.2783 -1.2260
 4652SOL    HW215090   4.612   0.145   8.274 -0.3432  1.8419  1.9647
 4653SOL     OW15091   6.282   9.081   0.756  0.2075  0.0166 -0.3745
 4653SOL    HW115092   6.192   9.059   0.732  0.7974 -2.4394 -0.5991
 4653SOL    HW215093   6.335   9.034   0.692  1.6810  2.0680 -0.7444
 4654SOL     OW15094   3.595   7.616   3.008  0.1091  0.0081 -0.4688
 4654SOL    HW115095   3.615   7.689   3.067 -0.8328  0.1508 -0.3179
 4654SOL    HW215096   3.511   7.583   3.039  0.7149 -1.4052 -0.2832
 4655SOL     OW15097   7.558   4.282   1.681  0.1257  0.1232 -0.1699
 4655SOL    HW115098   7.608   4.249   1.607 -0.4970 -0.8739 -0.1661
 4655SOL    HW215099   7.505   4.353   1.645  1.4210  1.1101 -0.1983
 4656SOL     OW15100   2.184   7.966   1.153  0.1519 -0.3433  0.6461
 4656SOL    HW115101   2.236   8.040   1.122 -3.1223  0.7976 -2.9361
 4656SOL    HW215102   2.216   7.891   1.102 -0.3773 -0.0770 -0.0870
 4657SOL     OW15103   1.317   1.256   2.774  0.5947 -0.2836 -0.9214
 4657SOL    HW115104   1.314   1.288   2.864  1.9406  0.9352 -1.2772
 4657SOL    HW215105   1.335   1.334   2.722  1.6765 -1.2588 -2.0630
 4658SOL     OW15106   7.645   7.916   5.264 -0.0661 -0.1862 -0.2661
 4658SOL    HW115107   7.726   7.882   5.302  1.2958  1.7798 -1.2140
 4658SOL    HW215108   7.591   7.939   5.339 -0.3094 -2.6125  0.3967
 4659SOL     OW15109   7.694   2.776   3.092  0.1978 -0.7727 -0.0557
 4659SOL    HW115110   7.769   2.723   3.118  1.4175  0.7807 -0.2492
 4659SOL    HW215111   7.711   2.800   3.001 -0.2425  0.0546  0.0679
 4660SOL     OW15112   5.248   6.982   6.900 -0.0334 -0.4673 -0.3213
 4660SOL    HW115113   5.177   6.935   6.856  0.5873  0.7698 -2.7889
 4660SOL    HW215114   5.203   7.046   6.955 -0.8731  0.3108 -1.8555
 4661SOL     OW15115   7.584   3.503   0.031 -0.1264  0.4666 -0.3630
 4661SOL    HW115116   7.595   3.588   0.075  0.3830  0.2245 -0.0127
 4661SOL    HW215117   7.560   3.526  -0.059  1.2868  1.0239 -0.6246
 4662SOL     OW15118   6.386   7.961   3.990  0.5281 -0.5733 -0.3098
 4662SOL    HW115119   6.369   7.948   3.897  3.4308 -0.0578 -0.9984
 4662SOL    HW215120   6.404   7.873   4.023  0.7668 -0.5981 -0.5091
 4663SOL     OW15121   0.821   5.595   0.014  0.2376  0.1184 -0.0685
 4663SOL    HW115122   0.780   5.533  -0.046  2.2866 -1.4389  0.0119
 4663SOL    HW215123   0.862   5.540   0.081  0.7224  1.6533  0.9460
 4664SOL     OW15124   1.753   6.961   5.024 -0.1104 -0.4755 -0.4068
 4664SOL    HW115125   1.699   7.040   5.022  0.1825 -0.2464  0.3316
 4664SOL    HW215126   1.694   6.891   4.997 -0.7972 -0.2349  0.4198
 4665SOL     OW15127   7.678   2.714   5.848 -0.5714  0.3910 -0.3913
 4665SOL    HW115128   7.612   2.747   5.908 -0.4916 -0.7891  0.3693
 4665SOL    HW215129   7.631   2.695   5.767 -1.4952 -1.8538  0.6118
 4666SOL     OW15130   8.478   5.015   3.514  0.2574  0.4911 -0.0649
 4666SOL    HW115131   8.470   4.920   3.517 -0.6279  0.5720  0.5782
 4666SOL    HW215132   8.389   5.047   3.502  0.5232  1.2497 -0.1162
 4667SOL     OW15133   9.083   9.072   5.529 -0.6448  0.0717 -0.0635
 4667SOL    HW115134   9.050   8.983   5.542 -1.7184  0.5816  0.8191
 4667SOL    HW215135   9.014   9.129   5.564  0.8366  1.2013  1.1682
 4668SOL     OW15136   1.722   4.778   8.069 -0.2013  0.3283 -0.0752
 4668SOL    HW115137   1.788   4.738   8.013 -0.0843 -0.9100  0.9147
 4668SOL    HW215138   1.640   4.765   8.023 -0.4580 -2.8128  1.0079
 4669SOL     OW15139   8.392   2.029   7.928  0.1300  0.6188 -0.4133
 4669SOL    HW115140   8.427   2.110   7.892 -1.2427  0.3075 -2.6436
 4669SOL    HW215141   8.310   2.014   7.880 -0.8472 -0.8932  1.5618
 4670SOL     OW15142   7.022   2.135   3.899 -0.0323  0.0310  0.6158
 4670SOL    HW115143   7.100   2.164   3.852 -1.9662  0.0660 -2.8653
 4670SOL    HW215144   7.021   2.040   3.889 -0.5706  0.0571  0.3791
 4671SOL     OW15145   8.944   0.836   5.099  0.7377  0.3707  0.4343
 4671SOL    HW115146   8.905   0.819   5.185  0.9192  1.5688  0.7792
 4671SOL    HW215147   9.029   0.793   5.102  0.2298 -0.6537  0.3827
 4672SOL     OW15148   3.501   3.490   6.001  0.0678 -0.2978 -0.1256
 4672SOL    HW115149   3.499   3.424   6.070  2.1958  1.7439  2.0658
 4672SOL    HW215150   3.593   3.516   5.995 -0.5629  1.9336 -1.4078
 4673SOL     OW15151   8.503   6.222   5.095  0.5371 -0.3617 -0.0977
 4673SOL    HW115152   8.547   6.184   5.172  0.6703 -0.4849 -0.2336
 4673SOL    HW215153   8.532   6.167   5.022 -0.3564 -0.8679 -0.0996
 4674SOL     OW15154   8.973   0.069   8.896 -0.0308 -0.5902  0.2846
 4674SOL    HW115155   9.034   0.005   8.932  0.5916 -0.4102 -0.4209
 4674SOL    HW215156   8.992   0.150   8.943  0.3118 -0.5243  0.0377
 4675SOL     OW15157   2.312   5.401   8.992 -0.1623  0.2097  0.0552
 4675SOL    HW115158   2.268   5.395   9.077  0.5089 -0.2425  0.3800
 4675SOL    HW215159   2.248   5.365   8.930 -0.0199 -1.0612  0.6138
 4676SOL     OW15160   4.505   3.545   1.493 -0.2509 -0.5531  0.4122
 4676SOL    HW115161   4.524   3.474   1.432  1.7298  0.5017 -0.2927
 4676SOL    HW215162   4.544   3.516   1.576 -0.0602 -0.5813  0.3126
 4677SOL     OW15163   0.822   7.077   8.472  0.6446  0.3086 -0.3851
 4677SOL    HW115164   0.728   7.091   8.461  0.7422  1.2693 -0.0585
 4677SOL    HW215165   0.828   7.019   8.549  0.3422  0.8655  0.0666
 4678SOL     OW15166   1.714   8.495   5.968 -0.3263 -0.2594 -0.0293
 4678SOL    HW115167   1.689   8.587   5.978  1.0528  0.3390 -1.6541
 4678SOL    HW215168   1.805   8.498   5.939 -1.0161 -2.0051 -2.7924
 4679SOL     OW15169   7.459   3.006   1.278 -0.7620 -0.4425 -0.3519
 4679SOL    HW115170   7.424   2.974   1.360 -1.4054  0.8307 -0.0994
 4679SOL    HW215171   7.553   3.015   1.293 -1.0670  1.2462  0.7938
 4680SOL     OW15172   0.592   6.756   1.404  0.1935 -0.3334  0.3836
 4680SOL    HW115173   0.526   6.730   1.340  0.2474  1.9140 -0.7026
 4680SOL    HW215174   0.638   6.829   1.362  0.3293  1.1574  2.8870
 4681SOL     OW15175   1.990   8.817   5.367 -0.1827 -0.4243 -0.1247
 4681SOL    HW115176   2.047   8.893   5.370  0.3043 -0.8167  1.9216
 4681SOL    HW215177   1.902   8.853   5.366  0.0503  0.1550 -0.0739
 4682SOL     OW15178   3.830   1.192   6.216  0.0835 -0.2281 -0.3600
 4682SOL    HW115179   3.789   1.193   6.129  1.5993 -0.5583 -1.1122
 4682SOL    HW215180   3.915   1.234   6.203  0.9176 -1.5210  0.6437
 4683SOL     OW15181   2.656   5.549   5.680 -0.0191  0.1864  0.2165
 4683SOL    HW115182   2.739   5.520   5.642 -0.3462  0.0463 -0.4065
 4683SOL    HW215183   2.681   5.599   5.758  0.8273  2.4981 -1.4053
 4684SOL     OW15184   5.827   8.228   0.636  0.2700 -0.3927  0.4356
 4684SOL    HW115185   5.809   8.169   0.563 -0.4493 -1.5340  1.4811
 4684SOL    HW215186   5.830   8.315   0.597  1.0495 -1.0796 -1.1111
 4685SOL     OW15187   2.109   3.369   4.555  0.5553 -0.0803 -0.7632
 4685SOL    HW115188   2.044   3.308   4.590  1.1048 -0.0041  0.4340
 4685SOL    HW215189   2.102   3.446   4.611  1.0019  0.3061 -1.2349
 4686SOL     OW15190   8.864   1.395   6.400  0.6843  0.2488  0.9737
 4686SOL    HW115191   8.823   1.367   6.482 -0.4395  1.4974  0.8588
 4686SOL    HW215192   8.824   1.479   6.380  1.0735  0.0565 -0.7715
 4687SOL     OW15193   5.541   2.912   2.016 -0.4643  0.4907 -0.4029
 4687SOL    HW115194   5.604   2.891   2.084 -1.2248  0.2884  0.2550
 4687SOL    HW215195   5.591   2.963   1.952  0.0939  1.2958  0.6396
 4688SOL     OW15196   8.268   8.258   9.089  0.9519 -0.1754 -0.3994
 4688SOL    HW115197   8.348   8.240   9.138  1.0290  1.0713 -0.0559
 4688SOL    HW215198   8.206   8.288   9.154  0.3964 -0.4904 -0.7697
 4689SOL     OW15199   4.648   2.997   8.969  0.4165 -0.2740  0.2340
 4689SOL    HW115200   4.665   2.953   9.053  1.9130 -1.2008 -0.5216
 4689SOL    HW215201   4.649   2.927   8.904  0.0107  0.5359 -0.6689
 4690SOL     OW15202   4.382   6.008   2.065 -0.2512 -0.0956 -0.1314
 4690SOL    HW115203   4.371   6.097   2.032  0.5821  0.1099  0.1266
 4690SOL    HW215204   4.340   5.952   1.999 -1.5987  0.5374  0.1574
 4691SOL     OW15205   0.124   0.475   0.109 -0.3912 -0.5374 -0.7394
 4691SOL    HW115206   0.056   0.409   0.096  0.0332 -1.4704  1.3759
 4691SOL    HW215207   0.206   0.426   0.101 -0.0405 -0.0077 -0.4180
 4692SOL     OW15208   2.902   9.024   6.137 -0.1176  0.3243 -0.8937
 4692SOL    HW115209   2.967   9.094   6.134 -0.2608  0.5621  0.5449
 4692SOL    HW215210   2.826   9.063   6.181 -0.7421 -0.3231 -1.3708
 4693SOL     OW15211   5.144   5.498   5.386  0.6405  0.2881 -0.2632
 4693SOL    HW115212   5.171   5.584   5.419  0.5065  0.1505  0.2067
 4693SOL    HW215213   5.072   5.472   5.443 -0.5169  0.6491 -1.4969
 4694SOL     OW15214   0.091   0.111   5.306  0.2093 -0.1103  0.1276
 4694SOL    HW115215   0.027   0.050   5.343  0.5534 -0.7596 -0.3184
 4694SOL    HW215216   0.040   0.188   5.283 -0.1778 -0.0858  1.0250
 4695SOL     OW15217   2.782   2.642   4.874 -0.3066 -0.1912  0.1285
 4695SOL    HW115218   2.821   2.646   4.787 -0.2638  2.3137  0.1905
 4695SOL    HW215219   2.857   2.631   4.933 -0.3236 -1.7489 -0.1006
 4696SOL     OW15220   9.055   1.431   6.931  0.4828  0.4347  0.0781
 4696SOL    HW115221   9.025   1.346   6.964  0.4874  0.6472  0.6346
 4696SOL    HW215222   9.137   1.446   6.977 -0.2412  1.4192  1.1061
 4697SOL     OW15223   0.258   4.343   2.837  0.1147 -0.1679 -0.5269
 4697SOL    HW115224   0.302   4.259   2.823  1.2098  0.4772 -1.1239
 4697SOL    HW215225   0.169   4.320   2.864 -0.0618 -1.5263 -2.1197
 4698SOL     OW15226   1.295   2.704   1.238 -0.0759  1.0085  0.2782
 4698SOL    HW115227   1.239   2.627   1.224  0.2879  0.3813  2.0064
 4698SOL    HW215228   1.308   2.740   1.150 -1.0567 -0.3267 -0.4654
 4699SOL     OW15229   4.856   2.615   1.459 -0.6948 -0.1440  1.1281
 4699SOL    HW115230   4.837   2.707   1.480  0.5810  0.1764  1.0114
 4699SOL    HW215231   4.903   2.582   1.535 -0.4768 -0.4623  0.8608
 4700SOL     OW15232   4.936   7.622   8.809  0.0038  0.0199  0.8712
 4700SOL    HW115233   4.872   7.693   8.800  0.8680  1.0277  2.2491
 4700SOL    HW215234   5.012   7.653   8.760 -1.1537 -2.1334 -2.7067
 4701SOL     OW15235   5.127   8.966   0.795  0.6505 -0.3800 -0.6506
 4701SOL    HW115236   5.209   9.010   0.814  0.1486  0.8032 -1.1561
 4701SOL    HW215237   5.063   9.036   0.785 -0.7498 -1.3090  1.1629
 4702SOL     OW15238   3.589   7.734   4.357  0.1166 -0.8190 -0.7582
 4702SOL    HW115239   3.660   7.797   4.345  0.2271 -1.0416 -1.3016
 4702SOL    HW215240   3.632   7.655   4.389  0.0742 -0.8430 -0.7609
 4703SOL     OW15241   3.864   0.282   7.562 -0.0495 -0.3854  0.1104
 4703SOL    HW115242   3.851   0.261   7.655  1.3055 -0.7832  0.2275
 4703SOL    HW215243   3.957   0.302   7.555 -0.5269  1.8844 -0.7434
 4704SOL     OW15244   2.005   7.390   5.455  0.0253  0.1596  0.4726
 4704SOL    HW115245   2.035   7.372   5.544  0.5595  0.4419  0.3541
 4704SOL    HW215246   1.924   7.440   5.467 -0.3805 -0.5574  0.7956
 4705SOL     OW15247   4.165   5.965   1.529  0.5325  0.3049 -0.7161
 4705SOL    HW115248   4.078   5.965   1.490  0.4288  0.6699 -0.4923
 4705SOL    HW215249   4.225   5.982   1.456  0.3553  0.7968 -0.7533
 4706SOL     OW15250   0.814   5.683   2.336 -0.0425 -0.0264  0.1115
 4706SOL    HW115251   0.839   5.684   2.429 -0.4971  0.3454  0.2354
 4706SOL    HW215252   0.735   5.629   2.333 -0.1508  0.1390 -0.0268
 4707SOL     OW15253   4.722   4.007   7.281  0.0687 -0.1617 -0.1389
 4707SOL    HW115254   4.651   4.024   7.219  0.1782  0.9951  0.0279
 4707SOL    HW215255   4.724   3.912   7.291 -1.3512 -0.2204 -0.2762
 4708SOL     OW15256   4.220   4.596   4.637  0.3573 -0.3537  0.0235
 4708SOL    HW115257   4.142   4.629   4.591  0.9520 -0.8133 -1.3595
 4708SOL    HW215258   4.249   4.521   4.585  0.4924 -1.5384  1.7228
 4709SOL     OW15259   6.522   5.205   2.555 -0.3249 -0.2382  0.1554
 4709SOL    HW115260   6.547   5.290   2.590  1.6445  0.1511 -1.9787
 4709SOL    HW215261   6.431   5.217   2.526  0.0458  1.3068 -0.4752
 4710SOL     OW15262   5.235   3.635   7.595 -0.1257 -0.1159  0.8763
 4710SOL    HW115263   5.151   3.590   7.582 -0.5048  1.0020 -0.9511
 4710SOL    HW215264   5.284   3.616   7.515  0.2243  1.5406  0.6647
 4711SOL     OW15265   5.588   3.532   5.713  0.3125 -0.1663  0.4029
 4711SOL    HW115266   5.613   3.584   5.789 -0.6718  0.3575  0.3984
 4711SOL    HW215267   5.622   3.445   5.730  1.3042  0.2895  0.7902
 4712SOL     OW15268   5.136   1.195   1.717 -0.5368  0.0572 -0.1588
 4712SOL    HW115269   5.069   1.235   1.661 -1.4171 -1.1721 -0.0391
 4712SOL    HW215270   5.216   1.243   1.697 -1.2701  1.0071 -0.9442
 4713SOL     OW15271   8.523   7.659   5.199 -0.1013 -0.4263  0.4096
 4713SOL    HW115272   8.476   7.589   5.153 -1.7175  0.6829  0.2573
 4713SOL    HW215273   8.560   7.617   5.276 -1.8050 -1.3248  0.8017
 4714SOL     OW15274   1.241   5.710   0.662  0.4324  0.0892  0.1868
 4714SOL    HW115275   1.147   5.712   0.640  0.9890  3.0587 -2.7733
 4714SOL    HW215276   1.248   5.767   0.739 -0.1540  0.2975  0.0951
 4715SOL     OW15277   5.895   7.295   1.901  0.2508 -0.2017  0.4685
 4715SOL    HW115278   5.968   7.320   1.959  1.5684 -1.0517 -0.7552
 4715SOL    HW215279   5.933   7.229   1.843 -1.6288 -0.9571  0.0374
 4716SOL     OW15280   4.560   1.893   6.046 -0.2593 -0.4463 -0.2229
 4716SOL    HW115281   4.526   1.863   5.962 -0.6521  0.0440 -0.2444
 4716SOL    HW215282   4.482   1.905   6.101  0.0597 -1.8801  0.6009
 4717SOL     OW15283   0.194   1.850   4.592  0.1943  0.3852  0.5239
 4717SOL    HW115284   0.172   1.837   4.500  0.6882 -0.8963  0.5626
 4717SOL    HW215285   0.140   1.923   4.620 -0.5895  0.2386 -0.5616
 4718SOL     OW15286   7.186   0.089   8.504  0.1750 -0.3483 -0.4004
 4718SOL    HW115287   7.119   0.126   8.446  0.4005 -0.3005 -0.6306
 4718SOL    HW215288   7.146   0.009   8.538 -0.0478 -0.2558 -0.4400
 4719SOL     OW15289   8.056   1.498   7.281 -0.0094 -0.1033  0.3922
 4719SOL    HW115290   8.095   1.537   7.359  0.5175 -2.0697  1.1630
 4719SOL    HW215291   8.006   1.423   7.314 -0.2713 -0.6171 -1.0957
 4720SOL     OW15292   0.364   7.954   5.330  0.1710  0.3043  0.1490
 4720SOL    HW115293   0.354   8.010   5.407 -0.7409  0.7093 -0.2545
 4720SOL    HW215294   0.294   7.981   5.271 -0.0112 -0.9717 -0.2426
 4721SOL     OW15295   7.490   7.121   8.041 -0.5735  0.8806  0.1501
 4721SOL    HW115296   7.516   7.067   8.115 -0.8511 -1.0606 -1.0865
 4721SOL    HW215297   7.397   7.102   8.029 -0.5106  1.0968 -0.7446
 4722SOL     OW15298   8.377   8.879   8.456  0.2440 -0.2806 -0.4049
 4722SOL    HW115299   8.402   8.793   8.421  0.8994 -0.5382  0.6738
 4722SOL    HW215300   8.383   8.938   8.380  1.7160 -0.8084 -0.7217
 4723SOL     OW15301   1.007   3.065   4.891  0.1006 -0.7574  0.0448
 4723SOL    HW115302   1.008   2.972   4.913  0.6477 -0.8153 -0.2075
 4723SOL    HW215303   1.090   3.099   4.923 -0.1557 -0.3185  0.2609
 4724SOL     OW15304   4.592   5.378   3.151 -0.0461  0.4130  0.5250
 4724SOL    HW115305   4.612   5.340   3.236 -1.0483  0.0198  0.5984
 4724SOL    HW215306   4.509   5.337   3.124 -0.4057  1.4596 -0.0524
 4725SOL     OW15307   5.597   1.849   0.742 -0.0727 -0.3899  0.0890
 4725SOL    HW115308   5.646   1.785   0.690 -0.3356 -0.5973  0.1003
 4725SOL    HW215309   5.538   1.891   0.680  0.9994  0.7615 -0.2026
 4726SOL     OW15310   1.293   6.698   4.695  0.5951  0.1133 -0.3237
 4726SOL    HW115311   1.259   6.608   4.701  1.4947 -0.1263  2.3809
 4726SOL    HW215312   1.215   6.753   4.705 -0.0362 -0.2759 -2.4640
 4727SOL     OW15313   4.951   3.971   3.380  0.4795  0.2004  0.4045
 4727SOL    HW115314   4.892   4.041   3.352  0.9531 -0.0367 -1.2652
 4727SOL    HW215315   4.987   4.002   3.463 -0.6041  1.1499  0.5492
 4728SOL     OW15316   4.285   6.941   3.556  0.4411 -0.1346 -0.1523
 4728SOL    HW115317   4.332   6.971   3.633 -1.2352  1.6320  0.2402
 4728SOL    HW215318   4.315   6.850   3.544  1.8348  0.0280  1.6532
 4729SOL     OW15319   3.680   0.705   4.991  0.0427 -0.6231  0.0330
 4729SOL    HW115320   3.682   0.633   5.054  0.0160 -0.2379  0.4769
 4729SOL    HW215321   3.757   0.758   5.013 -0.3548 -0.1099  0.1886
 4730SOL     OW15322   7.624   1.664   7.629  0.6959  0.0338 -1.0623
 4730SOL    HW115323   7.631   1.575   7.596  0.6496 -0.6200  0.6259
 4730SOL    HW215324   7.530   1.678   7.642  0.7880 -0.1471 -0.1222
 4731SOL     OW15325   8.337   5.251   4.878  0.3890  0.2552 -0.1598
 4731SOL    HW115326   8.395   5.178   4.856  0.7690  0.2265  0.8805
 4731SOL    HW215327   8.250   5.220   4.856  0.5200 -0.6003  0.4613
 4732SOL     OW15328   2.145   1.564   1.432  0.1043  0.6804 -0.0502
 4732SOL    HW115329   2.088   1.545   1.357  0.5687 -2.0779  0.1870
 4732SOL    HW215330   2.230   1.527   1.408  0.7393  1.3077  1.1472
 4733SOL     OW15331   3.594   5.957   4.967  0.7785  0.1150  0.2102
 4733SOL    HW115332   3.569   6.048   4.947  0.7915 -0.3625 -2.2605
 4733SOL    HW215333   3.683   5.964   5.002  0.7450  1.0695  0.1305
 4734SOL     OW15334   2.588   9.023   5.688  0.0790 -0.3322  0.2572
 4734SOL    HW115335   2.672   8.992   5.723  0.9687 -0.0188 -1.4981
 4734SOL    HW215336   2.610   9.058   5.602 -1.4769  1.9356  0.7103
 4735SOL     OW15337   4.569   6.612   0.299  0.2578 -0.2700 -0.0687
 4735SOL    HW115338   4.513   6.535   0.304  0.6767 -0.5135  1.4048
 4735SOL    HW215339   4.515   6.679   0.257 -1.0847 -0.5277  1.1876
 4736SOL     OW15340   2.106   3.055   5.394  0.7195  0.2248  0.6467
 4736SOL    HW115341   2.110   3.132   5.337 -0.7912 -0.4816 -0.4919
 4736SOL    HW215342   2.178   3.066   5.455  0.4188  2.6573  0.6492
 4737SOL     OW15343   8.239   5.805   8.235 -0.0396 -0.6512  0.3401
 4737SOL    HW115344   8.223   5.893   8.269  0.8536  0.2039 -1.3298
 4737SOL    HW215345   8.297   5.764   8.299  0.9525  0.6156  0.2910
 4738SOL     OW15346   4.178   3.349   2.210 -0.2071 -0.0099  0.2728
 4738SOL    HW115347   4.110   3.400   2.253 -0.7171 -0.2154 -0.2916
 4738SOL    HW215348   4.175   3.263   2.253  1.2644  0.6611  1.8717
 4739SOL     OW15349   8.286   4.129   4.306  0.5574 -0.3150 -0.0602
 4739SOL    HW115350   8.337   4.056   4.341 -0.3959 -1.5490 -1.1426
 4739SOL    HW215351   8.268   4.104   4.216 -0.1924  1.0665 -0.3126
 4740SOL     OW15352   0.408   8.954   2.358 -0.4216 -0.6173 -0.3744
 4740SOL    HW115353   0.489   8.981   2.315  0.4144 -3.1474 -0.5353
 4740SOL    HW215354   0.339   8.979   2.296  0.2624  0.9760 -0.5303
 4741SOL     OW15355   1.793   4.134   7.654  0.1775  0.2469  0.4375
 4741SOL    HW115356   1.815   4.140   7.747  0.7107 -0.3536  0.3554
 4741SOL    HW215357   1.858   4.073   7.618 -0.3442  0.0769 -0.2274
 4742SOL     OW15358   8.675   2.665   0.587  0.1784  0.0924 -0.1683
 4742SOL    HW115359   8.660   2.570   0.581 -0.9283  0.1188  1.5827
 4742SOL    HW215360   8.770   2.673   0.596  0.3054 -0.8269 -0.5024
 4743SOL     OW15361   1.743   3.717   5.321  0.0120 -0.3887  0.1562
 4743SOL    HW115362   1.648   3.708   5.320  0.1433 -1.8926  0.1310
 4743SOL    HW215363   1.775   3.633   5.352  1.3748 -0.3102 -0.9498
 4744SOL     OW15364   1.299   1.494   3.407  0.1079 -0.4043  0.2617
 4744SOL    HW115365   1.359   1.481   3.334  0.0048 -1.6689  0.3729
 4744SOL    HW215366   1.287   1.588   3.413  0.6534 -0.2526 -0.9178
 4745SOL     OW15367   4.793   6.803   5.702 -0.3745 -0.2936  0.0487
 4745SOL    HW115368   4.736   6.871   5.666 -1.5715 -1.0930  0.3322
 4745SOL    HW215369   4.838   6.766   5.626 -1.1293 -0.4200 -0.3459
 4746SOL     OW15370   7.108   6.676   1.420 -0.7053  0.0959 -0.4389
 4746SOL    HW115371   7.035   6.627   1.459 -0.6919  1.2930  1.1913
 4746SOL    HW215372   7.186   6.642   1.462 -0.5919  0.7090 -0.1365
 4747SOL     OW15373   0.706   2.312   7.088  0.1778  0.2853 -0.0252
 4747SOL    HW115374   0.655   2.324   7.168 -0.8177 -1.2349 -0.3915
 4747SOL    HW215375   0.797   2.322   7.116 -0.1258 -0.7555  1.4193
 4748SOL     OW15376   1.171   6.593   2.570  0.3383 -0.0209 -0.0767
 4748SOL    HW115377   1.245   6.648   2.544 -0.9759  1.6532 -0.4394
 4748SOL    HW215378   1.112   6.594   2.495  0.5180 -2.5054 -0.3552
 4749SOL     OW15379   7.243   5.610   8.035  0.2116  0.0860 -0.6263
 4749SOL    HW115380   7.156   5.571   8.041  0.1573  0.0213 -1.6451
 4749SOL    HW215381   7.301   5.548   8.080 -0.3322  0.3876  0.5178
 4750SOL     OW15382   1.546   9.058   6.220  0.3369  0.0965  1.2082
 4750SOL    HW115383   1.467   9.018   6.257 -0.4991  0.6241  0.0542
 4750SOL    HW215384   1.618   9.015   6.267 -0.5779 -1.4731  1.2754
 4751SOL     OW15385   0.938   2.018   4.591  0.8753  0.1764  0.3231
 4751SOL    HW115386   0.986   2.030   4.509  1.1662 -0.6308  0.3664
 4751SOL    HW215387   0.847   2.004   4.564  0.3178  3.0844  0.2900
 4752SOL     OW15388   0.645   1.045   2.937 -0.5496  0.3961  0.0116
 4752SOL    HW115389   0.722   0.994   2.911 -1.0345 -0.1766 -0.3266
 4752SOL    HW215390   0.648   1.122   2.881 -0.8970 -0.2317 -0.8986
 4753SOL     OW15391   2.503   7.506   4.507 -0.4266 -0.5926 -0.5365
 4753SOL    HW115392   2.423   7.532   4.553 -0.2618  0.0313 -0.6035
 4753SOL    HW215393   2.489   7.413   4.487 -1.2852 -0.4051 -0.8595
 4754SOL     OW15394   4.094   4.785   6.482 -0.0347  0.5579  0.1457
 4754SOL    HW115395   4.027   4.780   6.414  1.1428  1.4407 -1.1398
 4754SOL    HW215396   4.075   4.866   6.529  0.7674  1.4395 -0.9804
 4755SOL     OW15397   2.796   1.650   5.990 -0.1478  0.5335 -0.6194
 4755SOL    HW115398   2.836   1.696   6.064 -0.2376 -0.7473  0.2785
 4755SOL    HW215399   2.714   1.616   6.025  0.3135 -1.0172 -0.9626
 4756SOL     OW15400   5.567   1.545   3.669  0.0278  0.3170 -0.5362
 4756SOL    HW115401   5.563   1.466   3.723 -1.0184  1.9384  1.8914
 4756SOL    HW215402   5.660   1.567   3.665  0.0846  0.5755  1.3313
 4757SOL     OW15403   0.572   3.242   3.018  0.3790  0.5455  0.4246
 4757SOL    HW115404   0.567   3.304   3.090  1.0649  2.5666 -1.1600
 4757SOL    HW215405   0.664   3.239   2.994  0.4149 -1.4314  0.7100
 4758SOL     OW15406   1.733   8.896   5.378  0.3112  0.2788 -0.4698
 4758SOL    HW115407   1.718   8.829   5.444 -1.3924 -0.5177 -1.5682
 4758SOL    HW215408   1.651   8.946   5.376  0.3356  0.3160 -1.8932
 4759SOL     OW15409   2.097   8.361   6.724  0.3575  0.1146 -0.0146
 4759SOL    HW115410   2.053   8.443   6.746  0.1948 -0.4176  1.8188
 4759SOL    HW215411   2.177   8.362   6.777  0.4799 -0.7910 -0.1637
 4760SOL     OW15412   5.442   4.814   7.010 -0.3669  0.3471 -0.4240
 4760SOL    HW115413   5.385   4.781   6.940 -0.6165  1.6005 -0.8337
 4760SOL    HW215414   5.493   4.883   6.969 -0.9089  1.4889  0.7566
 4761SOL     OW15415   7.192   2.359   6.653 -0.2447 -0.2717 -0.1010
 4761SOL    HW115416   7.158   2.447   6.634 -0.7670 -0.2472  0.8872
 4761SOL    HW215417   7.116   2.311   6.686 -0.4188 -1.6989 -2.4281
 4762SOL     OW15418   3.531   8.272   3.704 -0.3992  0.5394  0.6715
 4762SOL    HW115419   3.569   8.285   3.617 -0.6351 -0.8127  0.3379
 4762SOL    HW215420   3.504   8.360   3.732  1.1271  1.2264  0.0798
 4763SOL     OW15421   5.647   6.815   5.350  0.2485 -0.6108  0.1037
 4763SOL    HW115422   5.663   6.747   5.416  0.1824 -0.1022  0.6486
 4763SOL    HW215423   5.589   6.878   5.394 -0.6485 -0.7883 -0.7824
 4764SOL     OW15424   4.112   5.764   7.369 -0.1197 -0.3061  0.0530
 4764SOL    HW115425   4.182   5.812   7.412 -0.2007  0.6932 -0.8772
 4764SOL    HW215426   4.127   5.673   7.392  1.6538 -0.1456 -0.3559
 4765SOL     OW15427   2.015   6.148   1.270 -0.2862 -0.1670  0.5315
 4765SOL    HW115428   1.964   6.200   1.332  0.4490  1.1313  0.0874
 4765SOL    HW215429   1.965   6.153   1.188  0.8545  1.7262 -0.1062
 4766SOL     OW15430   3.674   3.932   7.643 -0.3927 -0.0696 -0.4971
 4766SOL    HW115431   3.615   3.964   7.575 -2.3246  2.6063  2.1548
 4766SOL    HW215432   3.754   3.983   7.630 -0.3674 -0.3027 -1.3220
 4767SOL     OW15433   1.356   5.860   7.782  0.0825 -0.4146 -0.3214
 4767SOL    HW115434   1.350   5.782   7.837 -0.3029  0.4770  0.9645
 4767SOL    HW215435   1.449   5.878   7.775  0.1105  0.2361  1.2496
 4768SOL     OW15436   3.666   3.851   4.879 -0.0005 -0.4896 -0.9910
 4768SOL    HW115437   3.648   3.830   4.788 -0.7501 -1.3597 -0.6574
 4768SOL    HW215438   3.629   3.938   4.892  1.6028  0.3913 -1.9406
 4769SOL     OW15439   4.285   9.004   2.663 -0.1890 -0.7180  0.3052
 4769SOL    HW115440   4.295   9.061   2.740  0.7779 -1.0739  0.4477
 4769SOL    HW215441   4.208   9.040   2.618  0.4124  0.7350  0.3653
 4770SOL     OW15442   8.299   6.658   7.704  0.2436 -0.0060  0.6476
 4770SOL    HW115443   8.244   6.595   7.659 -0.3653 -0.3131  1.7781
 4770SOL    HW215444   8.388   6.624   7.694 -0.0921 -1.1328  1.3535
 4771SOL     OW15445   8.815   3.383   6.527  0.3600  0.0672 -0.5119
 4771SOL    HW115446   8.847   3.470   6.549  0.6578 -0.0780 -0.3508
 4771SOL    HW215447   8.884   3.324   6.557  0.6052 -0.1659 -1.5187
 4772SOL     OW15448   7.522   1.377   1.831 -0.2107 -0.0991  0.1774
 4772SOL    HW115449   7.487   1.338   1.911 -0.4024 -0.3412 -0.0248
 4772SOL    HW215450   7.565   1.305   1.785 -1.3977 -0.3035 -0.6634
 4773SOL     OW15451   7.041   2.942   9.116  0.6886  0.0270  0.2962
 4773SOL    HW115452   6.994   2.976   9.040  2.5285  1.9404 -0.0616
 4773SOL    HW215453   7.022   3.004   9.186  2.0095  0.4027  0.3508
 4774SOL     OW15454   2.579   2.730   8.731  0.3998  0.5426 -0.2874
 4774SOL    HW115455   2.555   2.765   8.817 -0.9830  1.4417 -0.9963
 4774SOL    HW215456   2.646   2.665   8.750 -1.1723 -0.6501  1.6739
 4775SOL     OW15457   4.335   3.066   6.891  0.2602 -0.0039  0.3376
 4775SOL    HW115458   4.266   3.105   6.837  0.6443 -0.5398 -0.5736
 4775SOL    HW215459   4.334   3.117   6.972  1.2524  2.4487 -1.0803
 4776SOL     OW15460   4.761   1.415   5.235 -0.2827  0.2153  0.3880
 4776SOL    HW115461   4.731   1.474   5.166  0.4639  0.7320  0.4962
 4776SOL    HW215462   4.851   1.443   5.253  0.1916 -1.1651  0.2284
 4777SOL     OW15463   8.238   1.291   6.446 -0.3260  0.0114  0.1548
 4777SOL    HW115464   8.271   1.348   6.516 -0.4004 -0.6775  0.7719
 4777SOL    HW215465   8.272   1.204   6.469  0.1789 -0.1135 -1.0299
 4778SOL     OW15466   2.757   7.600   4.569 -0.2666 -0.3157  0.1082
 4778SOL    HW115467   2.679   7.545   4.568 -0.0668 -0.6447  1.0328
 4778SOL    HW215468   2.814   7.564   4.502  0.2479 -1.8515  1.3082
 4779SOL     OW15469   4.996   7.902   8.555  0.0845 -0.0697 -0.1606
 4779SOL    HW115470   4.917   7.892   8.502  0.7877 -0.5681 -1.1527
 4779SOL    HW215471   5.068   7.882   8.495  0.8683 -1.8637  1.2717
 4780SOL     OW15472   2.962   1.452   7.373 -0.5556  0.2383  0.3580
 4780SOL    HW115473   2.871   1.468   7.398 -1.1934 -2.5426  0.1375
 4780SOL    HW215474   2.963   1.467   7.278 -1.5217 -2.1507 -0.1186
 4781SOL     OW15475   4.039   6.765   1.135 -0.4218 -0.7510  0.0193
 4781SOL    HW115476   4.039   6.678   1.095 -1.1505 -0.5258 -0.4997
 4781SOL    HW215477   3.998   6.752   1.221  1.8454 -1.3790  1.0913
 4782SOL     OW15478   5.681   5.427   7.600  0.0321 -0.7544 -0.2067
 4782SOL    HW115479   5.728   5.490   7.656  2.0788 -1.3863 -1.0946
 4782SOL    HW215480   5.669   5.474   7.518 -0.6911 -0.6957 -0.0739
 4783SOL     OW15481   1.431   8.115   2.132  0.3625  0.5942 -0.0800
 4783SOL    HW115482   1.522   8.139   2.114  0.0966  2.5920  0.9182
 4783SOL    HW215483   1.380   8.190   2.103 -0.6733  0.7775  1.9869
 4784SOL     OW15484   7.408   4.384   2.752 -0.3075 -0.2795 -0.0316
 4784SOL    HW115485   7.489   4.415   2.793 -1.2489  2.3848 -0.0323
 4784SOL    HW215486   7.368   4.327   2.819 -0.1738  1.2855  1.4530
 4785SOL     OW15487   8.670   0.652   5.038 -0.1926 -0.2186  0.5561
 4785SOL    HW115488   8.602   0.710   5.071  0.7436  0.7006  0.9117
 4785SOL    HW215489   8.698   0.692   4.955 -0.2110 -0.6888  0.3195
 4786SOL     OW15490   6.948   1.840   1.647 -0.2409 -0.3737  0.0806
 4786SOL    HW115491   6.943   1.909   1.582 -1.4006  0.0706  0.6177
 4786SOL    HW215492   6.947   1.886   1.731  0.7720 -0.9625  0.4398
 4787SOL     OW15493   3.235   0.358   6.256  0.0927  0.1334 -0.1611
 4787SOL    HW115494   3.236   0.453   6.245  1.7160 -0.0340 -2.0982
 4787SOL    HW215495   3.161   0.327   6.204  0.6171  0.2502 -1.0045
 4788SOL     OW15496   5.202   4.553   5.441 -0.8186 -0.3563  0.5056
 4788SOL    HW115497   5.218   4.467   5.402 -0.4704 -0.3086  0.5386
 4788SOL    HW215498   5.191   4.535   5.535 -3.2284 -0.6703  0.2198
 4789SOL     OW15499   4.625   8.217   0.372  0.0496  0.5617 -0.0365
 4789SOL    HW115500   4.582   8.230   0.456 -0.5556  0.9615 -0.3992
 4789SOL    HW215501   4.588   8.285   0.315  1.6172  1.3453 -0.2014
 4790SOL     OW15502   3.655   4.774   6.264 -0.0071 -0.0053  0.2143
 4790SOL    HW115503   3.596   4.826   6.319  0.2532 -0.4186  0.8977
 4790SOL    HW215504   3.598   4.712   6.219 -0.1444 -0.1308  0.5568
 4791SOL     OW15505   4.450   6.120   0.659 -0.4808  0.0482  0.4945
 4791SOL    HW115506   4.469   6.027   0.649  1.1353  0.3787  0.1810
 4791SOL    HW215507   4.449   6.135   0.753  1.9841  0.1782  0.5592
 4792SOL     OW15508   6.487   7.084   8.557 -0.0558  0.0503  0.6597
 4792SOL    HW115509   6.520   7.005   8.599 -1.7073 -0.2403  1.5127
 4792SOL    HW215510   6.493   7.067   8.463  0.8187 -0.5386  0.8117
 4793SOL     OW15511   6.551   2.549   8.060 -0.3666 -0.4412  0.0333
 4793SOL    HW115512   6.470   2.524   8.105 -0.4805 -1.5738 -0.7695
 4793SOL    HW215513   6.613   2.564   8.131 -1.0147 -0.5233  0.6305
 4794SOL     OW15514   7.980   5.584   8.651  0.0405 -0.0882 -0.2725
 4794SOL    HW115515   7.993   5.657   8.590  1.0293  0.0115  0.0398
 4794SOL    HW215516   7.885   5.579   8.662 -0.0138  2.9014  1.7773
 4795SOL     OW15517   8.634   5.094   7.009  0.0600  0.2599 -0.4212
 4795SOL    HW115518   8.715   5.101   6.959 -0.2631  0.8365 -0.8772
 4795SOL    HW215519   8.636   5.169   7.069  0.6331 -0.6516  0.7233
 4796SOL     OW15520   6.919   2.472   5.113  0.0027  0.1025  0.1142
 4796SOL    HW115521   6.977   2.399   5.091 -0.2688  0.4315 -1.8175
 4796SOL    HW215522   6.964   2.516   5.185  0.9601 -1.0300  0.2517
 4797SOL     OW15523   3.213   0.250   5.245  0.0033  0.4440 -0.2510
 4797SOL    HW115524   3.179   0.184   5.305 -0.8510 -0.3770 -1.5758
 4797SOL    HW215525   3.306   0.230   5.238  0.3272  1.1904  1.5513
 4798SOL     OW15526   3.273   7.904   6.651  0.1437  0.6832  0.0697
 4798SOL    HW115527   3.313   7.977   6.698  1.6660  0.8371 -1.3723
 4798SOL    HW215528   3.321   7.900   6.569 -0.3889 -1.5121 -0.1783
 4799SOL     OW15529   3.936   6.260   5.417 -0.0390 -0.6119  0.2440
 4799SOL    HW115530   3.931   6.335   5.478 -0.9735 -2.2406  2.3173
 4799SOL    HW215531   3.907   6.295   5.333  1.7731  1.8729  0.5382
 4800SOL     OW15532   8.606   3.998   3.194  0.4081 -0.0961  0.3254
 4800SOL    HW115533   8.549   3.934   3.150  0.8484  0.7035 -1.4595
 4800SOL    HW215534   8.624   4.064   3.128  2.2564  0.4260  1.2863
 4801SOL     OW15535   3.244   8.883   7.122 -0.0830 -0.1168 -0.2754
 4801SOL    HW115536   3.203   8.838   7.048 -0.6851  1.9356 -1.2542
 4801SOL    HW215537   3.338   8.873   7.107 -0.2042 -0.1508 -1.0515
 4802SOL     OW15538   4.076   4.750   1.083  0.2786  0.4955  0.1156
 4802SOL    HW115539   4.106   4.663   1.056  1.0789  1.1607 -1.2720
 4802SOL    HW215540   4.018   4.734   1.157  1.1755 -1.1389  0.5000
 4803SOL     OW15541   3.257   5.541   2.527 -0.0193  0.4893  0.1084
 4803SOL    HW115542   3.311   5.482   2.474 -0.3189  0.9968 -0.7731
 4803SOL    HW215543   3.227   5.608   2.466  0.9492  2.0278  1.2425
 4804SOL     OW15544   2.440   6.760   4.538  0.2452 -0.4758 -0.3652
 4804SOL    HW115545   2.400   6.728   4.618  0.6891  0.6605  0.3354
 4804SOL    HW215546   2.448   6.682   4.483 -0.8883 -1.1181  0.3207
 4805SOL     OW15547   0.489   5.806   1.809  0.4795  0.7780  0.5878
 4805SOL    HW115548   0.549   5.878   1.825  0.8051  0.3196  1.5156
 4805SOL    HW215549   0.435   5.801   1.888 -2.0524  2.3389 -0.9082
 4806SOL     OW15550   0.243   1.032   5.945  0.3969 -0.0522  0.3060
 4806SOL    HW115551   0.233   1.060   6.036  0.5296 -0.2182  0.3719
 4806SOL    HW215552   0.218   1.109   5.894 -0.6251 -0.2682  0.4722
 4807SOL     OW15553   2.216   8.335   4.073  0.1459  0.1435  0.1568
 4807SOL    HW115554   2.196   8.274   4.144  0.8169  0.3606  0.5402
 4807SOL    HW215555   2.272   8.285   4.013  2.2270  0.8918  1.3829
 4808SOL     OW15556   2.503   8.445   6.195  0.1817  0.7342 -0.0562
 4808SOL    HW115557   2.581   8.416   6.241  0.6218  0.0857 -1.1755
 4808SOL    HW215558   2.435   8.446   6.263  1.0705  0.9978  0.8623
 4809SOL     OW15559   5.007   1.947   8.887 -0.5657  0.4375  0.1703
 4809SOL    HW115560   5.038   1.940   8.797  0.0028  2.0138  0.2057
 4809SOL    HW215561   4.970   2.036   8.892 -2.7552 -0.4395  0.8584
 4810SOL     OW15562   8.007   1.721   2.753 -0.8083  0.0641  0.1268
 4810SOL    HW115563   7.971   1.665   2.684 -1.2728  0.3637  0.1188
 4810SOL    HW215564   8.010   1.666   2.831  2.7714 -1.3410 -0.7899
 4811SOL     OW15565   2.404   6.275   6.888  0.5049 -0.6847 -0.4432
 4811SOL    HW115566   2.376   6.317   6.807  0.5955 -0.9751 -0.6284
 4811SOL    HW215567   2.328   6.226   6.918  0.6826 -1.1383 -0.7252
 4812SOL     OW15568   3.629   3.727   8.555 -0.2425 -0.0046 -0.0485
 4812SOL    HW115569   3.690   3.752   8.486 -1.2197 -0.7243 -1.2273
 4812SOL    HW215570   3.558   3.683   8.509 -0.8886 -0.5995  1.4406
 4813SOL     OW15571   5.136   3.431   2.836  0.0914  0.1476 -0.3792
 4813SOL    HW115572   5.075   3.366   2.871 -0.1997  0.6089 -0.0277
 4813SOL    HW215573   5.187   3.383   2.770 -1.1435 -0.0699 -1.2049
 4814SOL     OW15574   3.100   7.460   2.539 -0.2920 -0.4909 -0.4735
 4814SOL    HW115575   3.102   7.365   2.525  0.4711 -0.6976  0.8523
 4814SOL    HW215576   3.192   7.485   2.545 -0.5019  0.2387 -0.1987
 4815SOL     OW15577   1.859   2.451   8.854  0.3539 -0.5392 -0.1460
 4815SOL    HW115578   1.830   2.374   8.903  1.3749 -0.5975  0.4073
 4815SOL    HW215579   1.859   2.522   8.919  1.4426 -0.5539 -0.1093
 4816SOL     OW15580   4.701   2.128   5.307 -0.0227  0.2671 -0.1915
 4816SOL    HW115581   4.618   2.125   5.260 -0.4013  0.5088  0.4623
 4816SOL    HW215582   4.751   2.054   5.272 -0.2601  0.4903 -1.0418
 4817SOL     OW15583   6.302   8.048   0.875 -0.2368  0.4225  0.0355
 4817SOL    HW115584   6.343   8.134   0.865  0.4035  0.0112 -1.1384
 4817SOL    HW215585   6.360   7.989   0.827 -0.5947 -0.6975  0.9378
 4818SOL     OW15586   5.294   3.377   1.470  0.6455 -0.3381  0.4848
 4818SOL    HW115587   5.223   3.316   1.490  0.8602 -0.5662  0.5571
 4818SOL    HW215588   5.272   3.456   1.519 -1.0244  0.6296 -1.6372
 4819SOL     OW15589   0.515   4.190   8.317  0.5950  0.5132 -0.5472
 4819SOL    HW115590   0.483   4.277   8.344  1.6787  1.5764 -2.5328
 4819SOL    HW215591   0.459   4.166   8.243  0.1748 -0.6242  0.1052
 4820SOL     OW15592   5.458   7.226   4.467 -0.9042  0.0019  0.1195
 4820SOL    HW115593   5.412   7.143   4.478 -1.2058 -0.0325 -1.2561
 4820SOL    HW215594   5.442   7.273   4.549 -2.5178 -0.4438  0.0919
 4821SOL     OW15595   0.879   2.371   8.954 -0.2592 -0.0126 -0.0359
 4821SOL    HW115596   0.915   2.343   8.869  0.1535  2.7686 -0.8688
 4821SOL    HW215597   0.786   2.382   8.939  0.0195  1.8998 -0.6223
 4822SOL     OW15598   0.392   6.974   1.668 -0.5173  0.2464 -0.1524
 4822SOL    HW115599   0.485   6.994   1.682  0.0378 -0.4175 -2.3704
 4822SOL    HW215600   0.379   6.988   1.574 -2.7302  0.5038  0.1438
 4823SOL     OW15601   1.688   5.101   8.876  0.1518 -0.0453 -0.0046
 4823SOL    HW115602   1.766   5.051   8.901  0.9973  1.4331  0.4459
 4823SOL    HW215603   1.614   5.047   8.903  1.0111 -1.4090 -0.2984
 4824SOL     OW15604   4.169   1.865   1.981 -0.4474 -0.4357  0.5903
 4824SOL    HW115605   4.210   1.807   2.045 -2.6337 -2.2270  0.5053
 4824SOL    HW215606   4.200   1.833   1.896 -0.0186 -0.0912  0.6112
 4825SOL     OW15607   9.047   6.591   3.000 -0.2671  0.1576  0.3251
 4825SOL    HW115608   9.012   6.538   2.929  2.1795 -0.3771 -0.6011
 4825SOL    HW215609   9.073   6.673   2.957  1.1066 -0.1166  0.5698
 4826SOL     OW15610   4.019   3.745   5.082  0.3031 -0.5917 -0.1674
 4826SOL    HW115611   4.082   3.815   5.098  0.1296 -0.2088 -1.1333
 4826SOL    HW215612   4.058   3.694   5.011 -0.4279 -0.4118 -0.7034
 4827SOL     OW15613   7.433   8.692   7.368 -0.2996 -0.2992  0.0576
 4827SOL    HW115614   7.419   8.782   7.398  0.6108  0.1239 -0.7451
 4827SOL    HW215615   7.518   8.668   7.404  1.6943  0.8447 -3.4295
 4828SOL     OW15616   4.150   4.902   5.440 -0.5938 -0.2665 -0.0622
 4828SOL    HW115617   4.231   4.869   5.479 -0.9568 -0.6960  0.3436
 4828SOL    HW215618   4.112   4.827   5.394  0.1395  0.3792 -1.8218
 4829SOL     OW15619   6.886   1.876   7.526  0.0619  0.7910  0.2171
 4829SOL    HW115620   6.964   1.859   7.578 -0.2481  0.9645  0.7487
 4829SOL    HW215621   6.815   1.830   7.572  0.0549 -0.3787 -0.9243
 4830SOL     OW15622   2.086   1.102   7.582  0.3589 -0.2702 -0.1231
 4830SOL    HW115623   2.105   1.168   7.649 -0.2823 -0.3738  0.1621
 4830SOL    HW215624   2.010   1.055   7.615 -1.0820  0.8174 -1.7337
 4831SOL     OW15625   7.794   8.120   5.561 -0.2227 -0.3071 -0.4273
 4831SOL    HW115626   7.836   8.113   5.646 -0.7666  1.5048  0.0478
 4831SOL    HW215627   7.859   8.085   5.499  1.5082  1.2299  0.4102
 4832SOL     OW15628   6.750   0.061   5.904 -0.2974  0.0060 -0.9388
 4832SOL    HW115629   6.683  -0.001   5.876  0.5837 -0.7243 -1.5302
 4832SOL    HW215630   6.763   0.042   5.997 -1.5445  0.7915 -0.5865
 4833SOL     OW15631   0.353   3.642   5.106  0.4329  0.7533  0.1396
 4833SOL    HW115632   0.444   3.659   5.128  0.8687  0.6533 -1.4594
 4833SOL    HW215633   0.330   3.564   5.157  1.3984  0.4629  0.1487
 4834SOL     OW15634   7.829   2.105   8.754  0.2557 -0.0239 -0.2248
 4834SOL    HW115635   7.853   2.127   8.844 -2.6535 -0.5349  0.8005
 4834SOL    HW215636   7.779   2.181   8.724 -0.4538 -0.6542 -0.6752
 4835SOL     OW15637   7.354   3.382   5.524  0.4897  0.5301  0.6050
 4835SOL    HW115638   7.378   3.358   5.613 -1.8150  0.1345  1.1880
 4835SOL    HW215639   7.331   3.298   5.483  1.8784  0.6586 -0.5212
 4836SOL     OW15640   1.596   2.087   4.985 -0.0476 -0.2460 -0.6347
 4836SOL    HW115641   1.504   2.096   5.008  0.1995 -1.2813  0.9228
 4836SOL    HW215642   1.600   2.108   4.892 -2.4151 -3.3229 -1.5988
 4837SOL     OW15643   5.433   7.894   3.438  0.2823  0.2965  0.2692
 4837SOL    HW115644   5.341   7.868   3.442  0.1586  0.7904  0.8798
 4837SOL    HW215645   5.438   7.974   3.491  1.2355 -0.2288  1.0196
 4838SOL     OW15646   7.980   1.410   8.023  0.2075 -0.0727  0.1299
 4838SOL    HW115647   7.967   1.449   7.937  0.0280  0.7784  0.5293
 4838SOL    HW215648   7.959   1.317   8.011 -1.0539  0.2667 -0.4610
 4839SOL     OW15649   3.557   7.713   8.928  0.0492 -0.1101 -0.0167
 4839SOL    HW115650   3.533   7.717   9.021 -1.5070  1.6359 -0.4523
 4839SOL    HW215651   3.523   7.794   8.891  2.4930  0.2303 -1.7247
 4840SOL     OW15652   0.929   7.512   5.710 -0.1177 -0.7228  0.0882
 4840SOL    HW115653   0.908   7.587   5.764 -0.2828 -1.3589  0.9270
 4840SOL    HW215654   1.006   7.473   5.750  0.0270 -0.9483 -0.3918
 4841SOL     OW15655   6.048   8.457   1.795 -0.4917 -0.2374  0.1209
 4841SOL    HW115656   6.044   8.387   1.860  0.6877  0.8615  1.4648
 4841SOL    HW215657   5.957   8.475   1.774 -0.8807 -1.0401  1.0246
 4842SOL     OW15658   7.774   8.664   0.600 -0.1111 -0.3630 -0.3089
 4842SOL    HW115659   7.781   8.572   0.624 -0.3819 -0.1921  0.4391
 4842SOL    HW215660   7.790   8.712   0.681 -2.3214  0.2107 -0.1518
 4843SOL     OW15661   8.599   6.496   2.691 -0.4983  0.5593 -0.5171
 4843SOL    HW115662   8.615   6.554   2.766  0.8760 -0.4023 -0.0269
 4843SOL    HW215663   8.600   6.554   2.615 -2.1059  1.5924  0.1865
 4844SOL     OW15664   0.056   5.208   4.502  0.2600 -0.1150 -0.4954
 4844SOL    HW115665   0.004   5.196   4.581  0.5279  0.7587 -0.1823
 4844SOL    HW215666   0.016   5.148   4.438 -0.4003 -0.2987  0.0768
 4845SOL     OW15667   9.010   3.696   6.238 -0.3289 -0.3860 -0.5230
 4845SOL    HW115668   8.976   3.632   6.174  1.1104 -0.4211 -1.2833
 4845SOL    HW215669   9.073   3.647   6.290  1.3544  0.5483 -1.6066
 4846SOL     OW15670   2.570   6.557   0.118  0.0699 -0.2374  0.4656
 4846SOL    HW115671   2.654   6.553   0.162 -0.6823 -2.6503  1.8589
 4846SOL    HW215672   2.546   6.466   0.102 -2.0328  0.3860 -0.3869
 4847SOL     OW15673   1.535   5.768   6.277 -0.0693  0.5918  0.4019
 4847SOL    HW115674   1.519   5.701   6.210  0.2073 -1.7304  2.5319
 4847SOL    HW215675   1.447   5.790   6.309 -0.2403  2.0326 -0.9257
 4848SOL     OW15676   7.740   6.011   5.062  0.1498  0.2361 -0.1505
 4848SOL    HW115677   7.688   6.091   5.052  0.8427  0.4834 -2.0933
 4848SOL    HW215678   7.811   6.020   5.000  0.0129 -2.0852 -0.7350
 4849SOL     OW15679   1.438   1.516   6.893 -0.0039  0.3800  0.1758
 4849SOL    HW115680   1.362   1.509   6.951  0.8076  0.7168  1.3000
 4849SOL    HW215681   1.512   1.489   6.947  0.4137 -2.5263 -1.6359
 4850SOL     OW15682   6.955   0.115   0.803 -0.2872  0.0613 -0.0175
 4850SOL    HW115683   6.993   0.202   0.785  1.2991 -0.2949  1.3592
 4850SOL    HW215684   6.929   0.119   0.895 -0.6096 -0.7869 -0.0647
 4851SOL     OW15685   7.509   8.482   9.053  0.5031  0.0792  0.6080
 4851SOL    HW115686   7.446   8.481   8.980  1.4912  0.8442 -0.2910
 4851SOL    HW215687   7.518   8.574   9.075  0.6934 -0.0988  1.2792
 4852SOL     OW15688   6.671   1.086   1.955 -0.4826 -0.6218  0.2270
 4852SOL    HW115689   6.712   1.006   1.988  0.5855 -0.5858 -0.9505
 4852SOL    HW215690   6.732   1.156   1.980  0.1472 -0.5509 -1.4104
 4853SOL     OW15691   4.847   2.780   7.922  0.1533  0.2010  0.1653
 4853SOL    HW115692   4.752   2.779   7.931  0.1078  0.3515 -0.3084
 4853SOL    HW215693   4.866   2.719   7.851  0.2727  1.5602 -1.0119
 4854SOL     OW15694   7.056   8.593   2.227 -0.8828  0.3224 -0.2347
 4854SOL    HW115695   6.963   8.613   2.236 -0.9051 -0.0254  0.4161
 4854SOL    HW215696   7.079   8.550   2.310 -0.3236 -0.2874 -0.6989
 4855SOL     OW15697   3.898   8.307   2.763  0.3018 -0.0441 -0.2893
 4855SOL    HW115698   3.919   8.333   2.853 -1.8277  1.0153 -0.0143
 4855SOL    HW215699   3.948   8.367   2.708 -0.2517  0.9675  0.2735
 4856SOL     OW15700   3.277   8.015   5.699 -0.2161 -0.0429  0.1554
 4856SOL    HW115701   3.303   7.992   5.788  0.4668 -0.0650 -0.0467
 4856SOL    HW215702   3.329   7.958   5.643  1.7160  2.1033 -0.3753
 4857SOL     OW15703   6.418   6.450   3.384  0.1389 -0.3052 -0.2243
 4857SOL    HW115704   6.497   6.421   3.339  0.3556 -0.5825  0.3382
 4857SOL    HW215705   6.445   6.526   3.434 -0.5701  1.3749 -2.2273
 4858SOL     OW15706   5.927   3.430   2.834 -0.1928  0.3602 -0.2498
 4858SOL    HW115707   5.898   3.377   2.908 -0.3475 -0.9936 -1.2259
 4858SOL    HW215708   6.021   3.415   2.830 -0.0677  1.0433  0.1333
 4859SOL     OW15709   8.032   8.749   5.879 -0.4105  0.2511 -0.0914
 4859SOL    HW115710   8.009   8.715   5.792  0.1081  1.6978 -0.8354
 4859SOL    HW215711   8.005   8.680   5.939 -2.5707 -0.0011 -1.2389
 4860SOL     OW15712   4.426   8.166   6.171  0.2686 -0.0624  0.1569
 4860SOL    HW115713   4.368   8.153   6.096  2.2524 -0.7325 -1.3527
 4860SOL    HW215714   4.411   8.257   6.197 -1.6532 -0.2957  0.0635
 4861SOL     OW15715   3.840   2.074   1.209  0.8573 -0.0125  0.0321
 4861SOL    HW115716   3.816   1.981   1.215  0.1796  0.1119 -0.6505
 4861SOL    HW215717   3.903   2.086   1.280  0.5498 -0.8731  0.4760
 4862SOL     OW15718   3.368   3.068   1.376 -0.6364  0.0430  0.1396
 4862SOL    HW115719   3.410   3.043   1.458  0.5996 -0.7755 -0.7110
 4862SOL    HW215720   3.383   3.163   1.369  0.2924 -0.0901  0.2901
 4863SOL     OW15721   6.400   2.964   6.597 -0.2935  0.2622 -0.3518
 4863SOL    HW115722   6.385   2.870   6.612  1.1119 -0.0606 -0.8348
 4863SOL    HW215723   6.410   2.971   6.502  0.1535  0.8210 -0.2621
 4864SOL     OW15724   8.423   0.820   1.523  0.6993 -0.0211  0.4655
 4864SOL    HW115725   8.378   0.842   1.441  1.2260 -1.7006 -0.3151
 4864SOL    HW215726   8.385   0.880   1.588 -1.9494 -0.6544 -0.3605
 4865SOL     OW15727   3.554   6.550   6.316 -0.1126 -0.3292 -0.7737
 4865SOL    HW115728   3.494   6.625   6.307 -0.3900 -0.6671 -1.8554
 4865SOL    HW215729   3.551   6.507   6.230  2.4108  0.1911 -1.1979
 4866SOL     OW15730   6.115   0.988   1.504 -0.5725  0.0484  0.2805
 4866SOL    HW115731   6.180   0.922   1.528 -1.9780 -1.3259  0.4684
 4866SOL    HW215732   6.162   1.047   1.444  0.6482 -1.3187 -0.1717
 4867SOL     OW15733   5.881   6.304   8.964 -0.2489  0.5757  0.4009
 4867SOL    HW115734   5.842   6.224   8.930 -0.9053  0.4105  1.4916
 4867SOL    HW215735   5.967   6.277   8.996 -0.0337  0.5327 -0.2037
 4868SOL     OW15736   4.723   5.381   2.230 -0.1758  0.4249  0.0208
 4868SOL    HW115737   4.812   5.404   2.203 -0.3680 -0.2571 -1.2631
 4868SOL    HW215738   4.671   5.458   2.207 -0.0945  0.4101 -0.2200
 4869SOL     OW15739   2.400   6.402   2.628  0.0188 -0.2478  0.2632
 4869SOL    HW115740   2.403   6.497   2.637  0.5623 -0.2718  0.3544
 4869SOL    HW215741   2.488   6.377   2.602 -0.8301 -0.4153 -2.8249
 4870SOL     OW15742   7.708   5.379   0.971 -0.1260 -0.1431 -0.2479
 4870SOL    HW115743   7.721   5.426   0.888 -0.7128 -2.3414 -1.6723
 4870SOL    HW215744   7.667   5.443   1.028  2.4822  2.1919 -0.7989
 4871SOL     OW15745   1.805   2.731   3.988  0.2887 -0.2762  0.9609
 4871SOL    HW115746   1.821   2.824   3.970  2.2421 -0.6720  0.4533
 4871SOL    HW215747   1.718   2.715   3.953  1.9571  0.0998 -4.2821
 4872SOL     OW15748   7.803   8.687   2.266  0.3433  0.3259 -0.2238
 4872SOL    HW115749   7.897   8.668   2.270  0.2455  0.0564  1.7679
 4872SOL    HW215750   7.763   8.607   2.232  0.7311  0.0842 -0.1148
 4873SOL     OW15751   3.328   8.364   8.864  0.1449 -0.4403  0.7583
 4873SOL    HW115752   3.399   8.428   8.860 -1.1422  0.9987 -0.5096
 4873SOL    HW215753   3.318   8.345   8.958  0.7501  1.0279  1.1501
 4874SOL     OW15754   7.037   9.010   3.936 -0.2196  0.1612 -0.3643
 4874SOL    HW115755   7.016   9.064   3.860 -0.7189 -0.3366 -0.5806
 4874SOL    HW215756   7.131   9.025   3.950  0.4441 -1.4957 -2.4825
 4875SOL     OW15757   3.072   7.693   3.267 -0.2074  0.0024  0.2715
 4875SOL    HW115758   2.993   7.666   3.221 -0.7778  0.1318  1.1629
 4875SOL    HW215759   3.142   7.679   3.203 -1.1095  1.3379 -1.0875
 4876SOL     OW15760   5.938   7.124   7.446  0.2138  0.0065 -0.4878
 4876SOL    HW115761   5.854   7.103   7.487  1.0380 -0.9796  0.7972
 4876SOL    HW215762   5.925   7.210   7.406 -1.2705  0.0661  0.0653
 4877SOL     OW15763   0.163   4.322   4.534  0.1477  0.3023 -0.4141
 4877SOL    HW115764   0.106   4.355   4.604 -0.4434 -2.2534  0.4380
 4877SOL    HW215765   0.251   4.331   4.570 -0.0666  0.0996  0.1861
 4878SOL     OW15766   4.424   7.642   5.466 -0.4013  0.3747  0.1615
 4878SOL    HW115767   4.500   7.681   5.509  1.9057 -1.0898 -2.2774
 4878SOL    HW215768   4.380   7.715   5.423  1.4992  0.8943 -1.0089
 4879SOL     OW15769   5.736   0.449   3.410 -0.0983  0.5257 -0.0005
 4879SOL    HW115770   5.791   0.451   3.488  0.6433  0.4150 -0.5043
 4879SOL    HW215771   5.659   0.501   3.433 -0.4600 -0.4879  1.2081
 4880SOL     OW15772   6.871   2.330   3.000 -0.4653  0.2141  0.0072
 4880SOL    HW115773   6.881   2.422   2.976  0.7088  0.2234  0.4884
 4880SOL    HW215774   6.939   2.314   3.064  0.5316 -1.4435 -1.3692
 4881SOL     OW15775   8.928   0.949   1.886 -0.0905  0.4876 -0.2851
 4881SOL    HW115776   9.006   0.972   1.938 -0.6056 -0.5939  1.0219
 4881SOL    HW215777   8.964   0.908   1.807  0.6753  0.6884 -0.0555
 4882SOL     OW15778   7.488   6.315   3.267 -0.0470  0.7752 -0.2738
 4882SOL    HW115779   7.454   6.398   3.300  0.7719  1.0068 -0.0076
 4882SOL    HW215780   7.542   6.281   3.338  2.1335  1.5053 -1.4871
 4883SOL     OW15781   7.917   0.511   4.036 -0.2267 -0.0359  0.5614
 4883SOL    HW115782   7.909   0.606   4.028  1.0894  0.0716  0.2331
 4883SOL    HW215783   8.010   0.496   4.056  0.0009 -1.3367 -1.1684
 4884SOL     OW15784   4.945   2.051   2.123 -0.3240 -0.2566 -0.1620
 4884SOL    HW115785   4.916   2.142   2.123 -0.6201 -0.3362  0.8946
 4884SOL    HW215786   4.988   2.039   2.038 -2.1001  0.2808 -1.1995
 4885SOL     OW15787   0.255   1.754   1.077  0.1644  0.0516  0.2186
 4885SOL    HW115788   0.267   1.843   1.044 -0.8486  0.7492  1.6351
 4885SOL    HW215789   0.217   1.706   1.004  1.3429  0.5943 -0.7757
 4886SOL     OW15790   0.285   5.663   2.722  0.0307 -0.2323  0.1226
 4886SOL    HW115791   0.200   5.620   2.718  0.2352 -0.7881  1.3324
 4886SOL    HW215792   0.342   5.601   2.767  0.4515  1.1107  1.5395
 4887SOL     OW15793   3.572   5.965   2.334 -0.5710 -0.0536  0.0181
 4887SOL    HW115794   3.629   5.908   2.284 -1.8988 -2.6576  1.2602
 4887SOL    HW215795   3.613   5.970   2.421 -1.7906 -1.4155  0.7205
 4888SOL     OW15796   3.568   3.855   0.916 -0.1493 -0.6037  0.3150
 4888SOL    HW115797   3.553   3.854   1.010  0.0127 -3.5048  0.4027
 4888SOL    HW215798   3.507   3.790   0.881 -1.7122  1.8527 -1.9307
 4889SOL     OW15799   6.935   3.932   7.223 -0.2347 -0.1083 -0.4923
 4889SOL    HW115800   6.956   4.015   7.266 -2.7120  0.8407 -0.9463
 4889SOL    HW215801   6.994   3.928   7.148  0.5084  0.8056  0.0227
 4890SOL     OW15802   6.766   3.158   3.504  0.7354  0.5275 -0.5397
 4890SOL    HW115803   6.686   3.136   3.553  2.5338 -1.1246  1.8752
 4890SOL    HW215804   6.734   3.191   3.420 -2.4638 -0.6738  0.0601
 4891SOL     OW15805   3.041   5.198   1.548 -0.3754 -0.2600 -0.2371
 4891SOL    HW115806   2.953   5.234   1.554 -0.1584  0.3308 -0.5442
 4891SOL    HW215807   3.082   5.219   1.632 -0.2868  0.1046 -0.3728
 4892SOL     OW15808   5.963   5.293   7.215  0.1096 -0.1261 -0.1943
 4892SOL    HW115809   5.977   5.224   7.280 -2.0507 -0.7133 -0.2713
 4892SOL    HW215810   6.050   5.332   7.203  1.1521 -1.9562  0.8124
 4893SOL     OW15811   2.697   7.652   7.952  0.0770 -0.0466 -0.2669
 4893SOL    HW115812   2.763   7.716   7.926  1.1572 -1.2280 -0.5582
 4893SOL    HW215813   2.746   7.570   7.963 -1.0586 -0.5747  1.2485
 4894SOL     OW15814   5.046   7.863   9.028 -0.3364  0.2605  0.3456
 4894SOL    HW115815   5.020   7.888   8.939 -0.8670  0.6662  0.6070
 4894SOL    HW215816   4.966   7.870   9.079 -0.1448 -0.4774  0.7568
 4895SOL     OW15817   5.438   3.823   1.208  0.2736 -0.3347 -0.4044
 4895SOL    HW115818   5.353   3.806   1.248 -0.0164  1.1654 -0.3267
 4895SOL    HW215819   5.418   3.847   1.117  0.3781  2.0018  0.1237
 4896SOL     OW15820   1.960   3.458   8.836  0.1694 -0.1054  0.2656
 4896SOL    HW115821   1.927   3.375   8.802  0.2920  1.1788 -3.3773
 4896SOL    HW215822   2.050   3.464   8.803  0.0610  1.5693  0.2013
 4897SOL     OW15823   2.469   2.772   2.900 -0.8267  0.3890 -0.5119
 4897SOL    HW115824   2.429   2.831   2.837 -0.6213 -1.2043 -2.2189
 4897SOL    HW215825   2.562   2.794   2.898 -0.8733  0.5855 -0.4905
 4898SOL     OW15826   4.729   4.902   4.100 -0.2667  0.6423  0.5071
 4898SOL    HW115827   4.686   4.838   4.044 -1.1944  0.4771  1.3764
 4898SOL    HW215828   4.678   4.901   4.181  2.2212 -0.7299  2.2190
 4899SOL     OW15829   8.409   3.257   2.275  0.0708 -0.3871  0.5907
 4899SOL    HW115830   8.437   3.294   2.191 -1.5683  1.4756  0.7783
 4899SOL    HW215831   8.489   3.221   2.313  0.9261 -0.9876 -1.5821
 4900SOL     OW15832   2.374   6.138   0.454 -0.0863  0.1916 -0.5918
 4900SOL    HW115833   2.287   6.098   0.453 -0.2387  0.5267 -1.0701
 4900SOL    HW215834   2.432   6.069   0.484 -0.2011 -0.6995 -2.3226
 4901SOL     OW15835   7.536   6.597   1.512  0.3512  0.6403  0.2648
 4901SOL    HW115836   7.552   6.619   1.420  2.3239  0.4224  0.4951
 4901SOL    HW215837   7.516   6.503   1.511 -0.7694  0.8675 -0.0235
 4902SOL     OW15838   8.234   7.987   6.110 -0.2689  0.1592  0.7078
 4902SOL    HW115839   8.184   7.993   6.191 -1.1053 -0.6594  0.2632
 4902SOL    HW215840   8.187   7.923   6.057  1.2894 -0.6944  0.2995
 4903SOL     OW15841   2.696   3.628   6.747 -0.1633  0.9569 -0.4252
 4903SOL    HW115842   2.731   3.710   6.714 -0.4787  0.7750 -1.2250
 4903SOL    HW215843   2.755   3.561   6.713 -0.3550  0.7867 -0.4273
 4904SOL     OW15844   7.718   4.641   9.098  0.3402 -0.3109 -0.6637
 4904SOL    HW115845   7.709   4.557   9.053  0.8954 -0.1616 -1.0680
 4904SOL    HW215846   7.767   4.696   9.036 -0.5964  0.5283 -0.6861
 4905SOL     OW15847   8.925   1.800   6.670 -0.0633  0.1307  0.3861
 4905SOL    HW115848   8.950   1.732   6.608  0.7274 -0.8864  1.7459
 4905SOL    HW215849   9.002   1.857   6.676 -0.8897  1.4768 -1.1033
 4906SOL     OW15850   8.793   0.244   8.499 -0.2628 -0.3271  0.1476
 4906SOL    HW115851   8.888   0.235   8.495 -0.4502 -2.4623 -2.2361
 4906SOL    HW215852   8.764   0.167   8.549 -0.7916 -0.9077 -0.9978
 4907SOL     OW15853   8.539   4.194   4.112  0.7814 -0.2912 -0.2240
 4907SOL    HW115854   8.465   4.134   4.106  0.1927  0.4526 -0.5621
 4907SOL    HW215855   8.525   4.241   4.194 -0.2061  1.2235 -1.2183
 4908SOL     OW15856   2.329   7.721   2.921 -0.2246  0.1633 -0.4721
 4908SOL    HW115857   2.402   7.751   2.868  0.5050 -1.2674 -0.3383
 4908SOL    HW215858   2.315   7.630   2.893 -0.4759 -0.2983  1.0416
 4909SOL     OW15859   7.446   5.230   3.093  0.5826  0.4421 -0.2944
 4909SOL    HW115860   7.532   5.262   3.119  0.8939 -0.5065 -0.1223
 4909SOL    HW215861   7.410   5.299   3.037  1.0155  1.3092  0.4736
 4910SOL     OW15862   0.091   7.096   1.238  0.0290 -0.3559  0.4438
 4910SOL    HW115863   0.101   7.090   1.143 -0.5050 -1.5099  0.4391
 4910SOL    HW215864  -0.002   7.113   1.251  0.1949  0.3234  0.7502
 4911SOL     OW15865   3.103   8.570   3.518 -0.4777  0.1661  0.3664
 4911SOL    HW115866   3.120   8.536   3.605 -2.5575  0.9690  1.1442
 4911SOL    HW215867   3.028   8.520   3.486 -0.9149  1.1287 -0.1755
 4912SOL     OW15868   7.192   4.060   5.756  0.0025 -0.1026 -0.4651
 4912SOL    HW115869   7.108   4.025   5.727 -0.4842  1.6904 -1.3841
 4912SOL    HW215870   7.193   4.045   5.851 -1.2638 -0.3565 -0.4717
 4913SOL     OW15871   1.271   2.120   6.814 -0.2083 -0.0110  0.4169
 4913SOL    HW115872   1.267   2.207   6.773  0.7882  0.5701  1.4923
 4913SOL    HW215873   1.358   2.087   6.792  0.3780  0.3404  2.0606
 4914SOL     OW15874   8.015   1.179   0.650  0.1821  0.5479  0.2810
 4914SOL    HW115875   8.018   1.116   0.722 -0.2021 -1.2182 -1.1650
 4914SOL    HW215876   7.922   1.188   0.629  0.2237  1.6870  0.5147
 4915SOL     OW15877   1.729   4.786   1.652 -0.4035  0.2649  0.0051
 4915SOL    HW115878   1.770   4.862   1.692 -3.2901  0.6444  2.6394
 4915SOL    HW215879   1.668   4.822   1.587 -1.1182  0.1721  0.6123
 4916SOL     OW15880   6.415   6.871   5.436  0.0566  0.0276  0.1074
 4916SOL    HW115881   6.372   6.937   5.490 -2.4066 -2.0501  0.8921
 4916SOL    HW215882   6.443   6.804   5.499 -0.7621 -1.3520 -0.9550
 4917SOL     OW15883   2.413   7.449   7.965 -0.2953 -0.3881  0.3158
 4917SOL    HW115884   2.436   7.454   8.058  0.9091  1.5712 -0.0274
 4917SOL    HW215885   2.495   7.431   7.920 -0.3628  1.1591 -0.5178
 4918SOL     OW15886   7.498   3.033   2.748  0.2709  0.8564 -0.2375
 4918SOL    HW115887   7.569   3.042   2.684  0.4909  2.1456  0.1583
 4918SOL    HW215888   7.486   2.938   2.757  0.6640  0.6365 -1.7004
 4919SOL     OW15889   5.140   7.243   0.727  0.7086  0.5459 -0.2355
 4919SOL    HW115890   5.078   7.309   0.694  2.0876  1.4082 -1.2028
 4919SOL    HW215891   5.179   7.283   0.805  1.2755  0.7278 -0.6082
 4920SOL     OW15892   7.646   8.202   4.778  0.0912 -0.1898  0.2487
 4920SOL    HW115893   7.739   8.213   4.759 -0.4300  0.0155 -2.6192
 4920SOL    HW215894   7.617   8.288   4.808  0.5755  0.1233 -0.1762
 4921SOL     OW15895   6.167   0.177   6.570 -0.2272 -0.0447  0.1661
 4921SOL    HW115896   6.072   0.179   6.559 -0.4611  2.5158  2.0372
 4921SOL    HW215897   6.182   0.112   6.638 -0.8131  0.7616  1.0802
 4922SOL     OW15898   3.742   5.568   4.147  0.1779  0.5045 -0.0051
 4922SOL    HW115899   3.762   5.590   4.238  0.2278 -0.2366  0.1694
 4922SOL    HW215900   3.826   5.575   4.102  0.3355 -0.0633  0.2005
 4923SOL     OW15901   0.589   7.513   0.184 -0.5351  0.0174  0.7719
 4923SOL    HW115902   0.505   7.468   0.190  0.1951 -1.7181 -0.8911
 4923SOL    HW215903   0.617   7.523   0.275 -1.0567 -2.3402  1.2620
 4924SOL     OW15904   7.701   2.199   7.553  0.1594 -0.6315 -0.4138
 4924SOL    HW115905   7.622   2.253   7.544 -0.7442 -1.4048  2.0271
 4924SOL    HW215906   7.759   2.250   7.609  0.6337 -0.8288 -0.7208
 4925SOL     OW15907   4.154   8.265   8.254 -0.0687  0.2632  0.3914
 4925SOL    HW115908   4.171   8.345   8.204  0.5723  0.6916  1.2643
 4925SOL    HW215909   4.092   8.215   8.200  1.4454  0.1824 -1.3487
 4926SOL     OW15910   1.620   8.915   2.210 -0.0969  0.3388  0.1550
 4926SOL    HW115911   1.588   8.962   2.288 -0.6575 -0.9222  0.7196
 4926SOL    HW215912   1.714   8.934   2.207 -0.3766  1.8359  0.1026
 4927SOL     OW15913   3.248   4.016   1.069  0.3353  0.5535  0.3091
 4927SOL    HW115914   3.324   3.962   1.047  1.6115  2.3879  0.0860
 4927SOL    HW215915   3.244   4.082   1.001 -2.1141 -0.0652 -0.2647
 4928SOL     OW15916   0.450   1.785   2.099  0.2592 -0.4540  0.0178
 4928SOL    HW115917   0.467   1.728   2.025 -0.1330  0.7293 -1.0181
 4928SOL    HW215918   0.355   1.799   2.097  0.3001 -0.0660  0.4959
 4929SOL     OW15919   2.984   5.715   7.720  0.3429 -0.1926 -0.0620
 4929SOL    HW115920   2.986   5.620   7.734 -1.0134  0.0658  2.6049
 4929SOL    HW215921   3.041   5.750   7.788 -1.8358  0.9968  1.2814
 4930SOL     OW15922   7.660   8.581   2.700 -0.2108  0.1122  0.4372
 4930SOL    HW115923   7.690   8.492   2.682 -0.8258  0.2628 -1.6071
 4930SOL    HW215924   7.633   8.579   2.792 -2.4033 -2.4612 -0.1421
 4931SOL     OW15925   1.743   0.825   6.343  0.2842 -0.1015 -0.3356
 4931SOL    HW115926   1.830   0.824   6.382 -0.7176  1.7954  2.2062
 4931SOL    HW215927   1.695   0.756   6.388  0.4061 -1.1835 -1.7722
 4932SOL     OW15928   3.511   6.942   6.363 -0.2292  0.6178  0.0459
 4932SOL    HW115929   3.464   7.024   6.352 -0.9398  0.1646 -0.3134
 4932SOL    HW215930   3.463   6.879   6.310  1.7313  0.4858 -1.7041
 4933SOL     OW15931   5.326   1.871   0.627 -0.0199 -0.4334 -0.0774
 4933SOL    HW115932   5.354   1.799   0.572  2.4092  1.2718 -1.2781
 4933SOL    HW215933   5.313   1.944   0.566  0.5700  0.9252  1.3530
 4934SOL     OW15934   5.895   2.689   0.031 -0.9110 -0.1736  0.0884
 4934SOL    HW115935   5.943   2.718  -0.047  2.3586  0.1264  2.0137
 4934SOL    HW215936   5.876   2.597   0.016 -1.5962  0.2017 -1.5716
 4935SOL     OW15937   5.024   1.357   1.520 -0.2336 -0.5200  0.1280
 4935SOL    HW115938   4.974   1.437   1.504  0.8192 -0.0328 -0.9016
 4935SOL    HW215939   5.115   1.386   1.522  0.1196 -1.6055  0.3697
 4936SOL     OW15940   4.138   4.006   6.979  0.2204  0.4969 -0.1645
 4936SOL    HW115941   4.171   4.058   7.052  0.1296 -0.6717  0.7471
 4936SOL    HW215942   4.188   4.036   6.903  0.2066  1.8475  0.3356
 4937SOL     OW15943   5.216   2.867   0.728 -0.2223  0.1338 -0.2099
 4937SOL    HW115944   5.262   2.836   0.650 -2.3907  0.8368 -1.8594
 4937SOL    HW215945   5.285   2.875   0.794  1.6987 -0.5180 -2.0101
 4938SOL     OW15946   6.721   3.058   0.075 -0.3146  0.1101 -0.3418
 4938SOL    HW115947   6.715   3.153   0.059 -2.0498  0.3681  1.3974
 4938SOL    HW215948   6.736   3.020  -0.012 -2.7216  1.7929 -1.6127
 4939SOL     OW15949   8.118   4.215   8.820  0.7482 -0.0253  0.2858
 4939SOL    HW115950   8.136   4.223   8.727  1.2615  0.0645  0.3875
 4939SOL    HW215951   8.116   4.305   8.852  1.5996 -0.0928  0.5446
 4940SOL     OW15952   7.052   3.644   0.239 -0.3060  0.3849 -0.1473
 4940SOL    HW115953   7.115   3.598   0.184 -0.3116 -0.1237  0.2672
 4940SOL    HW215954   7.060   3.604   0.325 -1.4950  0.0026 -0.1858
 4941SOL     OW15955   1.350   1.755   5.008  0.3709  0.2273 -0.3013
 4941SOL    HW115956   1.437   1.718   4.994 -0.0851 -0.3814 -1.7577
 4941SOL    HW215957   1.292   1.679   5.009  0.0088  0.4681  2.4889
 4942SOL     OW15958   5.738   1.701   3.014  0.6420 -0.3182 -0.3590
 4942SOL    HW115959   5.760   1.611   2.991 -0.6799 -0.6413 -0.4007
 4942SOL    HW215960   5.810   1.729   3.071  0.7970 -1.5623  0.0737
 4943SOL     OW15961   4.020   3.957   3.357 -0.2410 -0.1236  0.6870
 4943SOL    HW115962   4.067   4.000   3.428  1.0986 -0.8731  0.2929
 4943SOL    HW215963   3.976   3.883   3.398  0.9730 -0.8807  0.6898
 4944SOL     OW15964   1.914   1.590   5.833 -0.3008  0.5522  0.4748
 4944SOL    HW115965   1.971   1.516   5.853  0.0671  1.2217  2.0312
 4944SOL    HW215966   1.952   1.629   5.754 -1.6406 -2.0158 -1.5966
 4945SOL     OW15967   6.035   8.551   6.194  0.1674  0.8542 -0.0370
 4945SOL    HW115968   6.127   8.532   6.179  0.1193  0.0822  0.5548
 4945SOL    HW215969   6.014   8.622   6.133 -0.0668 -2.0636 -3.7069
 4946SOL     OW15970   6.706   1.753   6.548  0.0059  0.9005 -0.0281
 4946SOL    HW115971   6.694   1.817   6.618  1.5639  1.6853 -0.4390
 4946SOL    HW215972   6.703   1.668   6.592  2.5647  1.4227  1.3146
 4947SOL     OW15973   1.939   8.411   1.834  0.4108  0.4511 -0.1976
 4947SOL    HW115974   1.855   8.444   1.866  0.8538  3.1522 -1.5453
 4947SOL    HW215975   2.001   8.431   1.904  0.3204  0.6491 -0.1731
 4948SOL     OW15976   6.750   1.424   1.357  0.3499  0.0856  0.0870
 4948SOL    HW115977   6.749   1.351   1.295 -2.4089 -1.7229  2.0271
 4948SOL    HW215978   6.695   1.491   1.315  1.1103  0.1978 -0.7577
 4949SOL     OW15979   4.524   5.621   7.748 -0.1263  0.1674  0.2675
 4949SOL    HW115980   4.507   5.715   7.754  0.2457  0.2542 -0.0321
 4949SOL    HW215981   4.462   5.582   7.809  1.4499  0.8084  2.4311
 4950SOL     OW15982   1.020   7.376   0.873  0.6024  0.2264  0.2105
 4950SOL    HW115983   1.009   7.295   0.824 -0.0999  0.3723  0.1110
 4950SOL    HW215984   1.086   7.356   0.939  0.1760 -0.5317  0.4185
 4951SOL     OW15985   6.917   7.175   4.420  0.2304 -0.5308  0.0686
 4951SOL    HW115986   6.898   7.203   4.510  0.9320 -0.6301  0.2488
 4951SOL    HW215987   6.921   7.257   4.370 -0.5223 -0.4970  0.0502
 4952SOL     OW15988   9.002   6.068   8.697  0.0636 -0.2918 -0.3025
 4952SOL    HW115989   8.953   5.995   8.733  0.8203 -1.1140 -0.8942
 4952SOL    HW215990   9.027   6.120   8.773  1.6991 -2.0162  0.4190
 4953SOL     OW15991   6.611   6.260   0.937  0.0133 -0.0505 -0.0440
 4953SOL    HW115992   6.684   6.309   0.897 -0.4108  1.4384  0.9252
 4953SOL    HW215993   6.535   6.283   0.884 -0.2374  0.5930  0.5747
 4954SOL     OW15994   1.021   2.820   4.521  0.1680 -0.2289 -0.8226
 4954SOL    HW115995   0.976   2.904   4.528  2.4410  0.9784  0.2718
 4954SOL    HW215996   1.068   2.825   4.437 -0.7202 -0.9970 -1.3911
 4955SOL     OW15997   5.387   0.510   5.779 -0.5068 -0.0177  0.2332
 4955SOL    HW115998   5.464   0.462   5.808  0.1261 -0.9964 -2.7137
 4955SOL    HW215999   5.314   0.467   5.824  0.2985 -2.0247 -0.2404
 4956SOL     OW16000   5.952   3.581   4.626 -0.4871 -0.4934 -0.4304
 4956SOL    HW116001   5.866   3.583   4.670 -0.5794 -1.3042 -0.5613
 4956SOL    HW216002   6.010   3.630   4.685 -0.7565 -1.0111  0.2785
 4957SOL     OW16003   5.552   0.393   5.279 -0.3575  0.2427 -0.0219
 4957SOL    HW116004   5.524   0.475   5.318 -0.8197  0.0297  0.0982
 4957SOL    HW216005   5.483   0.330   5.301  1.0051 -0.7117  1.7476
 4958SOL     OW16006   7.516   5.642   3.922  0.4962 -0.1722  0.3419
 4958SOL    HW116007   7.482   5.711   3.865  1.2921 -1.2094 -1.4965
 4958SOL    HW216008   7.504   5.562   3.871  0.4642 -1.2718  2.0212
 4959SOL     OW16009   4.053   1.764   6.672  0.4787 -0.3334 -0.0044
 4959SOL    HW116010   4.049   1.668   6.666  1.5267 -0.4894  1.3184
 4959SOL    HW216011   4.078   1.781   6.763  0.7908  1.1893 -0.3538
 4960SOL     OW16012   0.034   3.054   6.042 -0.0446 -0.5285  0.6410
 4960SOL    HW116013   0.015   3.089   5.954 -1.0197  0.6210  1.2715
 4960SOL    HW216014   0.117   3.095   6.067  0.3853 -1.0876  0.1450
 4961SOL     OW16015   5.361   1.662   4.155  0.2246 -0.0000  0.1125
 4961SOL    HW116016   5.395   1.721   4.088  2.4998  0.9878  2.0017
 4961SOL    HW216017   5.284   1.707   4.190  1.0134  1.1487  0.4391
 4962SOL     OW16018   7.527   5.211   8.564  0.0943 -0.3382 -0.2163
 4962SOL    HW116019   7.507   5.194   8.472 -0.2003 -1.0151 -0.0337
 4962SOL    HW216020   7.532   5.124   8.604  1.1795 -0.1029  0.2134
 4963SOL     OW16021   7.251   5.728   8.689  0.2562 -0.1375 -0.2736
 4963SOL    HW116022   7.259   5.823   8.680  2.1023 -0.1713  0.4293
 4963SOL    HW216023   7.158   5.709   8.677 -0.3669  1.9168  0.9706
 4964SOL     OW16024   6.955   0.368   6.008  0.4447  0.3233  0.0684
 4964SOL    HW116025   7.016   0.433   5.973  1.0162  0.3469  1.0668
 4964SOL    HW216026   6.868   0.408   5.997  0.8418  1.6374  1.4060
 4965SOL     OW16027   8.942   4.468   2.556 -0.0706 -0.0299  0.3782
 4965SOL    HW116028   8.953   4.557   2.591 -0.1947 -0.0521  0.4735
 4965SOL    HW216029   8.847   4.459   2.542  0.1233  0.6587 -1.7411
 4966SOL     OW16030   0.921   3.360   8.170  0.8870 -0.2326  0.0619
 4966SOL    HW116031   0.916   3.311   8.088  1.8864  0.9022 -0.7081
 4966SOL    HW216032   0.830   3.384   8.189  0.3867 -2.3079  0.4429
 4967SOL     OW16033   3.042   4.832   3.144 -0.0499 -0.6270  0.1709
 4967SOL    HW116034   3.028   4.922   3.115 -0.0699  0.5272  3.4560
 4967SOL    HW216035   2.959   4.788   3.126 -0.3882  0.2513 -0.5037
 4968SOL     OW16036   3.531   7.153   1.343  0.2731  0.1187  0.3942
 4968SOL    HW116037   3.458   7.184   1.396  1.6039  0.0214  2.3746
 4968SOL    HW216038   3.573   7.232   1.311 -1.1636  0.1784 -1.5429
 4969SOL     OW16039   4.633   0.148   1.600 -0.4321 -0.3372  0.2572
 4969SOL    HW116040   4.556   0.137   1.544  0.1699  2.3933 -1.2984
 4969SOL    HW216041   4.621   0.234   1.641  1.6347  0.0474  0.1664
 4970SOL     OW16042   0.281   8.939   6.526 -0.0806 -0.7220  0.1922
 4970SOL    HW116043   0.189   8.927   6.502 -0.0914  0.6865 -0.5595
 4970SOL    HW216044   0.291   9.033   6.539  0.7297 -1.0684  2.6027
 4971SOL     OW16045   7.589   8.304   7.508 -0.0225 -0.1958 -0.0922
 4971SOL    HW116046   7.535   8.329   7.583 -0.8675 -0.2240 -0.6835
 4971SOL    HW216047   7.549   8.223   7.476  0.5367 -0.3658 -0.3639
 4972SOL     OW16048   5.512   6.802   3.454 -0.0540  0.7293  0.3867
 4972SOL    HW116049   5.464   6.789   3.536 -2.0256  1.8100 -0.5258
 4972SOL    HW216050   5.489   6.727   3.400 -1.0549  1.4282 -0.1837
 4973SOL     OW16051   7.682   2.347   3.488 -0.4377 -0.1875  0.2585
 4973SOL    HW116052   7.702   2.295   3.410  0.9174  0.6489  0.0125
 4973SOL    HW216053   7.602   2.308   3.522 -0.4925 -1.2387 -0.9604
 4974SOL     OW16054   4.231   7.129   7.627 -0.5030  0.2075  0.0111
 4974SOL    HW116055   4.257   7.159   7.714 -0.6514 -0.1668  0.1883
 4974SOL    HW216056   4.254   7.036   7.625 -1.3409 -0.0134 -0.0132
 4975SOL     OW16057   2.747   2.517   7.151 -0.3047  0.1631 -0.5001
 4975SOL    HW116058   2.753   2.609   7.125  0.0017  0.1333 -0.5371
 4975SOL    HW216059   2.837   2.490   7.166 -0.3876 -0.1480 -0.5431
 4976SOL     OW16060   6.538   0.600   8.633 -0.4471  0.0733 -0.2735
 4976SOL    HW116061   6.608   0.547   8.670  0.3649 -0.8273 -2.9014
 4976SOL    HW216062   6.536   0.678   8.689  2.4990  0.0400  0.0716
 4977SOL     OW16063   0.907   8.341   1.768  0.3716  0.2710  0.0431
 4977SOL    HW116064   0.815   8.341   1.795  0.4609 -0.2555  0.3508
 4977SOL    HW216065   0.926   8.251   1.745  0.8853  0.3263  0.2353
 4978SOL     OW16066   8.284   0.681   8.350  0.1224  0.4069 -0.0217
 4978SOL    HW116067   8.341   0.723   8.414  1.3155  1.6979 -1.8173
 4978SOL    HW216068   8.344   0.647   8.283 -1.1266  0.4541 -1.2154
 4979SOL     OW16069   7.554   0.058   7.726  0.6614  0.1871  0.1463
 4979SOL    HW116070   7.566  -0.005   7.797  2.3818 -0.4858 -0.6986
 4979SOL    HW216071   7.587   0.140   7.761  0.5397  0.1049  0.4620
 4980SOL     OW16072   1.707   9.101   7.009 -0.1519 -0.4226 -0.4999
 4980SOL    HW116073   1.687   9.012   7.036 -1.2527  0.0555  0.3531
 4980SOL    HW216074   1.795   9.096   6.972 -0.2747 -1.8897 -0.6553
 4981SOL     OW16075   0.245   4.675   4.367  0.1537  0.1037  0.0295
 4981SOL    HW116076   0.274   4.742   4.305  0.6004 -0.9598 -0.9512
 4981SOL    HW216077   0.174   4.630   4.321  0.8451 -1.0402  0.0529
 4982SOL     OW16078   4.841   5.023   5.952 -0.1805  0.1787  0.1710
 4982SOL    HW116079   4.860   5.038   5.859  1.2348 -2.0601  0.0054
 4982SOL    HW216080   4.878   5.099   5.997  0.1569  0.7325 -1.0020
 4983SOL     OW16081   1.911   0.203   1.727  0.4691 -0.2669  0.7586
 4983SOL    HW116082   1.871   0.119   1.704 -1.0366  0.0172  2.0946
 4983SOL    HW216083   1.837   0.255   1.760  1.1623  1.9648 -0.9953
 4984SOL     OW16084   2.128   3.466   7.214 -0.5544  0.6018 -0.5458
 4984SOL    HW116085   2.039   3.461   7.249 -0.4750 -2.8663 -0.4894
 4984SOL    HW216086   2.124   3.537   7.150 -2.1217  3.5216  2.4920
 4985SOL     OW16087   1.137   5.909   2.009  0.0461 -0.3061  0.0696
 4985SOL    HW116088   1.111   5.996   1.980 -1.6122 -0.9904 -0.6300
 4985SOL    HW216089   1.068   5.882   2.070  0.5812 -1.0903  0.3439
 4986SOL     OW16090   2.340   4.380   6.850  0.4635  0.1378 -0.2943
 4986SOL    HW116091   2.331   4.391   6.755 -0.1318  1.2420 -0.1175
 4986SOL    HW216092   2.381   4.293   6.859  0.2778 -0.1090 -1.5401
 4987SOL     OW16093   0.097   3.576   1.723 -0.2380  0.0928 -0.0779
 4987SOL    HW116094   0.038   3.640   1.764 -1.3191 -0.3481 -0.8926
 4987SOL    HW216095   0.162   3.629   1.678 -1.1628  0.6435 -0.8029
 4988SOL     OW16096   4.567   0.383   1.718  0.0009  0.5841 -0.4110
 4988SOL    HW116097   4.638   0.423   1.767 -1.2712  0.6313  1.4856
 4988SOL    HW216098   4.506   0.454   1.700 -0.2921  0.2650 -0.7024
 4989SOL     OW16099   7.848   8.464   0.779  0.8781  0.2078 -0.3309
 4989SOL    HW116100   7.895   8.387   0.812  0.6225  0.3977  0.4885
 4989SOL    HW216101   7.787   8.487   0.849  0.7624  1.0003 -0.6840
 4990SOL     OW16102   7.776   9.005   0.605  0.2590 -0.0553  0.0588
 4990SOL    HW116103   7.718   8.994   0.680  0.9508  0.7912  0.7332
 4990SOL    HW216104   7.719   8.992   0.529 -1.0179  1.5872  0.6812
 4991SOL     OW16105   7.017   2.835   1.584 -0.4410 -0.4476 -0.3355
 4991SOL    HW116106   6.929   2.874   1.579 -0.1609  0.2163 -0.1674
 4991SOL    HW216107   7.022   2.799   1.672 -1.0237 -1.6748 -0.7739
 4992SOL     OW16108   3.736   4.731   1.102 -0.0231 -0.4479 -0.6881
 4992SOL    HW116109   3.739   4.771   1.015 -1.6367  0.0218 -0.5690
 4992SOL    HW216110   3.653   4.683   1.103  1.4606 -3.2268 -0.5382
 4993SOL     OW16111   1.865   4.810   7.348 -0.5765  0.4083 -0.8365
 4993SOL    HW116112   1.815   4.888   7.322 -0.4596  1.6894  2.2905
 4993SOL    HW216113   1.800   4.750   7.384 -0.2514  0.8556  0.5581
 4994SOL     OW16114   9.088   6.051   4.987 -0.2744  0.0678 -0.1340
 4994SOL    HW116115   9.181   6.031   4.974 -0.4136 -2.2636  1.8608
 4994SOL    HW216116   9.043   5.999   4.920 -0.2361  0.1582 -0.2319
 4995SOL     OW16117   3.337   1.376   0.405  0.6517  0.1850  1.2467
 4995SOL    HW116118   3.286   1.346   0.481  1.1293 -0.1569  1.4348
 4995SOL    HW216119   3.368   1.463   0.429 -0.2694  0.6156  0.9251
 4996SOL     OW16120   7.949   3.829   1.342  0.3269  0.1850  0.8638
 4996SOL    HW116121   7.982   3.850   1.429 -1.1612  2.0259  1.0351
 4996SOL    HW216122   7.864   3.787   1.358 -0.5665  1.7163  0.3212
 4997SOL     OW16123   7.178   4.521   5.148 -0.4807 -0.2323 -0.7888
 4997SOL    HW116124   7.160   4.615   5.139 -0.1990 -0.2144 -1.1871
 4997SOL    HW216125   7.177   4.488   5.058 -0.3937 -0.5755 -0.6641
 4998SOL     OW16126   5.562   6.917   2.649 -0.4739 -0.7145 -0.8877
 4998SOL    HW116127   5.632   6.983   2.653 -0.5949 -0.6331 -0.1030
 4998SOL    HW216128   5.491   6.961   2.603 -0.6969 -0.1550 -0.0287
 4999SOL     OW16129   2.821   2.165   4.392 -0.1730 -0.1188 -0.0107
 4999SOL    HW116130   2.874   2.238   4.360  1.6915 -1.2291  0.3755
 4999SOL    HW216131   2.885   2.096   4.411 -1.6743 -1.1816  1.4541
 5000SOL     OW16132   3.861   0.444   1.265  0.1138  0.2158 -0.2825
 5000SOL    HW116133   3.787   0.503   1.276 -0.6898 -0.4684 -1.6393
 5000SOL    HW216134   3.938   0.499   1.276 -0.5711  0.9399  1.1886
 5001SOL     OW16135   3.588   2.192   5.272  0.6351 -0.3927  0.1217
 5001SOL    HW116136   3.631   2.215   5.355  0.3042  0.6803  0.0140
 5001SOL    HW216137   3.507   2.149   5.298  0.3861  0.2182  0.3636
 5002SOL     OW16138   5.987   8.891   4.691 -0.2562 -0.9782 -0.1992
 5002SOL    HW116139   6.004   8.986   4.694  1.2414 -1.1770 -1.2399
 5002SOL    HW216140   5.891   8.884   4.689 -0.4931  0.3988  2.3971
 5003SOL     OW16141   2.092   2.962   4.094  0.1371  0.1974  0.4486
 5003SOL    HW116142   2.111   3.055   4.106  1.7859  0.2599 -2.1141
 5003SOL    HW216143   1.997   2.959   4.083  0.2435  1.9158 -1.5915
 5004SOL     OW16144   6.649   2.012   5.106 -0.3959  0.0114  0.4306
 5004SOL    HW116145   6.682   2.081   5.163  2.8021 -0.5349 -0.5628
 5004SOL    HW216146   6.674   1.930   5.149 -1.3279 -0.4835  0.0670
 5005SOL     OW16147   8.537   5.444   8.448 -0.1344 -0.2655  0.1316
 5005SOL    HW116148   8.583   5.400   8.377  0.0226 -0.4290  0.3337
 5005SOL    HW216149   8.587   5.422   8.526  1.4439  2.2909 -0.0412
 5006SOL     OW16150   1.880   1.126   7.754  0.1042 -0.4342 -0.0129
 5006SOL    HW116151   1.813   1.083   7.808 -1.8079 -0.2617 -2.1001
 5006SOL    HW216152   1.835   1.202   7.716  1.9713  0.5998 -0.2844
 5007SOL     OW16153   4.045   2.569   7.765  0.6056 -0.4312 -0.1124
 5007SOL    HW116154   4.098   2.606   7.695 -1.4553 -1.9392 -2.6734
 5007SOL    HW216155   3.992   2.642   7.797  1.3291  0.2045 -0.3464
 5008SOL     OW16156   0.270   3.083   8.815  0.1488  0.0401 -0.1325
 5008SOL    HW116157   0.298   3.019   8.881  0.7454  0.0509 -0.3655
 5008SOL    HW216158   0.277   3.168   8.859  2.4114  0.2496 -0.7516
 5009SOL     OW16159   8.959   2.354   1.166 -0.4358  0.3275  0.1992
 5009SOL    HW116160   8.913   2.287   1.115  0.3244 -0.3201  0.3459
 5009SOL    HW216161   9.029   2.384   1.109  0.3381 -0.3040  0.7830
 5010SOL     OW16162   5.867   1.670   5.259 -1.1628 -0.5495 -0.1299
 5010SOL    HW116163   5.895   1.676   5.168 -3.2493  0.6141 -0.7551
 5010SOL    HW216164   5.825   1.754   5.277  1.6088  0.4341  2.8345
 5011SOL     OW16165   0.278   5.151   5.402  0.7193  0.4515 -0.1515
 5011SOL    HW116166   0.202   5.188   5.446  1.0292  0.0706  0.7155
 5011SOL    HW216167   0.261   5.057   5.399  2.0811  0.0796  1.9388
 5012SOL     OW16168   7.421   8.739   6.889 -0.0280 -0.5574  0.4448
 5012SOL    HW116169   7.334   8.751   6.927 -0.9038 -1.1627 -1.2701
 5012SOL    HW216170   7.420   8.650   6.854  0.7399 -0.0509 -0.9298
 5013SOL     OW16171   3.788   7.569   7.095 -0.1501  0.1588  0.3715
 5013SOL    HW116172   3.731   7.642   7.073  0.0522  0.1270 -0.2797
 5013SOL    HW216173   3.729   7.501   7.128 -0.3758  0.4842  0.6393
 5014SOL     OW16174   9.109   1.748   5.313  0.0153  0.1003 -0.1826
 5014SOL    HW116175   9.086   1.655   5.316  0.0362  0.0428 -1.2963
 5014SOL    HW216176   9.175   1.753   5.245 -1.8942  1.2934 -2.0733
 5015SOL     OW16177   1.002   4.408   6.407  0.1836 -0.0399 -0.1218
 5015SOL    HW116178   1.014   4.434   6.316  2.0660  0.5979  0.2736
 5015SOL    HW216179   1.085   4.366   6.431  0.4437  1.4488  1.8189
 5016SOL     OW16180   3.900   0.209   5.784 -0.4400  0.1893  0.0185
 5016SOL    HW116181   3.871   0.132   5.833  0.3961  0.9034  1.7216
 5016SOL    HW216182   3.822   0.263   5.776  0.0669  1.8951  4.1772
 5017SOL     OW16183   0.052   8.613   8.279 -0.0323  0.6632  0.0488
 5017SOL    HW116184   0.124   8.557   8.307  0.6754  0.8009 -1.3786
 5017SOL    HW216185   0.049   8.684   8.343  0.0546 -0.1843  1.0046
 5018SOL     OW16186   4.283   0.323   5.228 -0.1164 -0.2465  0.4101
 5018SOL    HW116187   4.356   0.263   5.243  0.0050 -0.4343 -0.8202
 5018SOL    HW216188   4.294   0.391   5.294  1.9664  0.4443 -0.5696
 5019SOL     OW16189   3.001   6.293   3.740 -0.0340  0.3574 -0.6983
 5019SOL    HW116190   3.064   6.348   3.786 -0.6297 -1.1320  2.1305
 5019SOL    HW216191   3.048   6.212   3.722 -1.2618 -1.2832  2.5989
 5020SOL     OW16192   7.501   1.925   4.595 -0.4044  0.4418 -0.3013
 5020SOL    HW116193   7.535   2.008   4.631  0.5889 -0.5609  1.1913
 5020SOL    HW216194   7.480   1.872   4.672 -0.4293 -0.9276 -1.2157
 5021SOL     OW16195   8.674   0.467   4.728  0.5858  0.4669  0.1261
 5021SOL    HW116196   8.754   0.442   4.773  1.4393 -0.4949 -1.8037
 5021SOL    HW216197   8.664   0.561   4.746  0.3712  0.0037  2.9417
 5022SOL     OW16198   4.739   2.778   1.052  0.1323  0.3567  0.4125
 5022SOL    HW116199   4.678   2.710   1.024  1.0724 -0.4472  0.2832
 5022SOL    HW216200   4.789   2.800   0.974 -0.8397  1.9541  0.1954
 5023SOL     OW16201   8.122   6.718   5.213  0.0610 -0.4563 -0.5554
 5023SOL    HW116202   8.182   6.783   5.176 -0.8439  0.3836 -0.5981
 5023SOL    HW216203   8.050   6.770   5.248  0.5558 -1.2880  1.8138
 5024SOL     OW16204   1.983   5.377   2.817  0.2124  0.2417  0.6463
 5024SOL    HW116205   1.918   5.312   2.844 -1.4765  0.6186 -2.1268
 5024SOL    HW216206   2.023   5.340   2.739  2.1582  0.8164  1.3038
 5025SOL     OW16207   4.960   2.538   8.445 -0.3379 -0.4217 -0.0498
 5025SOL    HW116208   5.031   2.580   8.396 -0.8143 -0.1800 -0.5328
 5025SOL    HW216209   4.989   2.542   8.536  0.2729 -0.3266 -0.2430
 5026SOL     OW16210   1.963   4.621   4.398  0.0791 -0.0757  0.2380
 5026SOL    HW116211   1.883   4.571   4.413 -0.2089  0.3224  0.0690
 5026SOL    HW216212   2.029   4.578   4.453 -0.3127 -0.2524  0.5819
 5027SOL     OW16213   6.525   7.213   0.740  0.3991 -0.2758  0.0114
 5027SOL    HW116214   6.553   7.235   0.829 -1.9683  1.2225  0.4960
 5027SOL    HW216215   6.565   7.281   0.685  1.0362 -0.5967  0.0734
 5028SOL     OW16216   7.314   6.808   8.826  0.2118  0.6325  0.1747
 5028SOL    HW116217   7.341   6.896   8.799  1.1530  0.6398  1.0282
 5028SOL    HW216218   7.295   6.762   8.745  2.5317  0.7637 -0.5202
 5029SOL     OW16219   1.203   0.037   8.577  0.4550  0.2297  0.0223
 5029SOL    HW116220   1.298   0.040   8.587  0.3806  0.2666  0.7556
 5029SOL    HW216221   1.177   0.128   8.569  0.5531  0.1837 -0.9907
 5030SOL     OW16222   6.660   4.069   1.900 -0.2242 -0.1126  0.5475
 5030SOL    HW116223   6.727   4.072   1.968 -0.3551 -1.0177  0.7220
 5030SOL    HW216224   6.623   3.981   1.906 -0.3922 -0.1301 -0.5441
 5031SOL     OW16225   6.845   8.947   7.323  0.2565 -0.2228 -0.6307
 5031SOL    HW116226   6.885   9.029   7.295 -0.2887 -1.0385 -4.2697
 5031SOL    HW216227   6.891   8.879   7.273 -0.1637 -2.0462  1.3198
 5032SOL     OW16228   6.250   3.527   2.118 -0.1405  0.3080 -0.3482
 5032SOL    HW116229   6.240   3.622   2.109  1.1535  0.4471 -0.5610
 5032SOL    HW216230   6.179   3.490   2.066 -1.3900  1.1478  0.6865
 5033SOL     OW16231   1.991   2.789   7.117  0.2217  0.0549  0.9961
 5033SOL    HW116232   2.085   2.802   7.127  0.3174 -0.5643  0.9223
 5033SOL    HW216233   1.980   2.695   7.103 -0.1666  0.4687 -1.9436
 5034SOL     OW16234   1.791   9.110   0.421 -0.5748  0.7720 -0.0392
 5034SOL    HW116235   1.754   9.071   0.343 -0.7384 -1.0894  0.9228
 5034SOL    HW216236   1.717   9.121   0.481 -0.0856 -0.0844  0.7431
 5035SOL     OW16237   4.562   7.926   8.598 -0.0396  0.0189  0.0955
 5035SOL    HW116238   4.485   7.982   8.594  0.0219  0.0423 -1.5856
 5035SOL    HW216239   4.618   7.966   8.664 -0.5896  1.1649 -0.1201
 5036SOL     OW16240   0.053   5.610   6.725 -0.5930 -0.1250  0.6314
 5036SOL    HW116241   0.053   5.676   6.794  0.7593  0.1269  0.4077
 5036SOL    HW216242   0.037   5.527   6.770 -2.7551  0.3463  0.8661
 5037SOL     OW16243   2.327   2.369   7.864  0.5962  0.2730 -0.0283
 5037SOL    HW116244   2.378   2.443   7.896  0.3590  0.1631  0.6193
 5037SOL    HW216245   2.345   2.366   7.770  2.8665 -0.6024  0.3766
 5038SOL     OW16246   0.623   3.040   7.925 -0.6992 -0.0833  0.0223
 5038SOL    HW116247   0.645   3.046   7.832 -0.1778  1.5257  0.2189
 5038SOL    HW216248   0.537   3.081   7.933 -0.4236  0.4555  0.3350
 5039SOL     OW16249   0.224   8.383   7.834  0.2309 -0.0488  0.3743
 5039SOL    HW116250   0.135   8.379   7.871  0.4102 -0.9553  0.7494
 5039SOL    HW216251   0.216   8.342   7.748  0.2118  0.2309  0.2417
 5040SOL     OW16252   6.033   4.704   8.511  0.0848 -0.3425 -0.0992
 5040SOL    HW116253   5.987   4.621   8.505 -0.2302 -0.2682  1.0737
 5040SOL    HW216254   6.104   4.687   8.573  2.0973 -0.6333 -2.2876
 5041SOL     OW16255   3.792   3.480   0.785  0.1485 -0.5330 -1.0127
 5041SOL    HW116256   3.770   3.429   0.708 -0.6892  1.1185 -1.9152
 5041SOL    HW216257   3.732   3.449   0.853  1.1088 -2.2243 -0.8688
 5042SOL     OW16258   6.445   0.056   6.173 -0.0761  0.2752  0.3037
 5042SOL    HW116259   6.410   0.019   6.254 -0.7087  0.4842  0.1343
 5042SOL    HW216260   6.443   0.151   6.187 -0.3853  0.3198 -0.0356
 5043SOL     OW16261   1.231   5.340   2.876  0.0280 -0.4671  0.6363
 5043SOL    HW116262   1.280   5.276   2.927  0.1249 -0.4587  0.5542
 5043SOL    HW216263   1.270   5.335   2.788 -0.2338 -0.5885  0.5254
 5044SOL     OW16264   7.743   5.623   5.395  0.1447 -0.2773 -0.3287
 5044SOL    HW116265   7.665   5.571   5.376 -0.1921  0.0904  0.0263
 5044SOL    HW216266   7.747   5.686   5.323  0.1433 -0.3231 -0.3697
 5045SOL     OW16267   8.410   0.424   6.631  0.2241  0.3293 -0.0597
 5045SOL    HW116268   8.455   0.417   6.715  1.4404  0.9310 -0.6200
 5045SOL    HW216269   8.321   0.450   6.653  0.6862  1.0794  1.0299
 5046SOL     OW16270   6.754   8.822   5.940 -0.2640 -0.0727 -0.1432
 5046SOL    HW116271   6.735   8.741   5.893 -0.5937 -0.3194  0.4116
 5046SOL    HW216272   6.711   8.890   5.889 -1.3459 -0.4383  0.2541
 5047SOL     OW16273   1.945   2.721   2.746 -0.2868 -0.1617  0.4019
 5047SOL    HW116274   1.881   2.754   2.683 -0.8387 -0.4925  0.7828
 5047SOL    HW216275   1.913   2.634   2.771  0.5806 -0.5514  0.2170
 5048SOL     OW16276   3.456   8.524   8.561 -0.0536 -1.0242  0.0936
 5048SOL    HW116277   3.469   8.430   8.575 -1.0397 -1.1669  0.1029
 5048SOL    HW216278   3.531   8.551   8.508 -1.5786 -2.5740 -3.0900
 5049SOL     OW16279   5.788   1.356   8.070  0.2244 -0.6293 -0.4978
 5049SOL    HW116280   5.788   1.388   7.980 -1.0994 -0.3416 -0.4137
 5049SOL    HW216281   5.841   1.420   8.118 -0.7071  0.3198 -0.7077
 5050SOL     OW16282   5.548   2.360   0.472  0.1890 -0.5116  0.1742
 5050SOL    HW116283   5.643   2.369   0.474  0.3184 -1.2429 -1.3121
 5050SOL    HW216284   5.515   2.446   0.499  1.2843  0.4216 -1.3515
 5051SOL     OW16285   2.589   5.129   8.061 -0.3491  0.0037 -0.5523
 5051SOL    HW116286   2.595   5.189   8.135 -0.9944  0.9126 -1.2138
 5051SOL    HW216287   2.511   5.077   8.079  1.7522 -2.7353  1.4786
 5052SOL     OW16288   3.121   5.988   2.473  0.4749 -0.2249 -0.1940
 5052SOL    HW116289   3.171   5.950   2.545  3.6232  2.0526 -0.9469
 5052SOL    HW216290   3.041   5.935   2.469  1.6923 -2.6149  2.6950
 5053SOL     OW16291   8.538   2.601   2.674  0.4745 -0.3183  0.2438
 5053SOL    HW116292   8.475   2.637   2.736 -0.6323 -1.2398 -0.2975
 5053SOL    HW216293   8.520   2.507   2.674  1.7320 -0.5761 -0.0712
 5054SOL     OW16294   0.016   0.966   3.078 -0.4318  0.1058 -0.0089
 5054SOL    HW116295   0.074   0.921   3.139 -0.8628 -0.1115  0.2434
 5054SOL    HW216296   0.007   1.055   3.114  0.1266  0.2835 -0.3086
 5055SOL     OW16297   8.458   2.187   6.187  0.3864 -0.4986  0.3913
 5055SOL    HW116298   8.552   2.203   6.176  0.0005  1.5007 -0.5152
 5055SOL    HW216299   8.440   2.111   6.132  1.2044  0.1629 -0.8463
 5056SOL     OW16300   0.699   5.787   6.494  0.6250 -0.5329  0.2712
 5056SOL    HW116301   0.698   5.793   6.399 -0.0643 -2.2687  0.1395
 5056SOL    HW216302   0.757   5.713   6.513 -0.4446 -1.1895  1.1024
 5057SOL     OW16303   2.014   3.334   1.392  0.3673 -0.7024 -0.3054
 5057SOL    HW116304   2.032   3.265   1.455  2.6055 -0.3699 -0.4951
 5057SOL    HW216305   1.938   3.303   1.343  0.7502 -2.5968  0.2309
 5058SOL     OW16306   6.854   4.349   2.964  0.0468  0.1644 -0.3517
 5058SOL    HW116307   6.949   4.348   2.970  0.1049 -1.3544 -1.0106
 5058SOL    HW216308   6.829   4.440   2.979  1.6931  0.8410 -1.5180
 5059SOL     OW16309   8.076   5.165   4.758  0.0908 -0.9003  0.0344
 5059SOL    HW116310   8.141   5.120   4.703  1.3051 -0.6459  1.2208
 5059SOL    HW216311   7.997   5.166   4.704  1.1991 -0.7271 -1.6906
 5060SOL     OW16312   8.500   3.575   7.203 -0.2317  0.2771 -0.5459
 5060SOL    HW116313   8.530   3.634   7.272  0.2843 -0.0596 -0.4744
 5060SOL    HW216314   8.472   3.496   7.250  0.9998 -0.3239 -0.7574
 5061SOL     OW16315   0.364   7.141   6.380  0.2939 -0.0148 -0.1181
 5061SOL    HW116316   0.268   7.145   6.372 -0.0715 -2.5040  1.9171
 5061SOL    HW216317   0.392   7.082   6.310  0.1816 -0.4233  0.1821
 5062SOL     OW16318   3.959   5.817   2.455 -0.2285 -0.4783 -0.0292
 5062SOL    HW116319   3.865   5.804   2.445 -0.8066  0.9378  2.5374
 5062SOL    HW216320   3.976   5.903   2.415 -0.3936  0.0494  0.9987
 5063SOL     OW16321   3.689   0.234   0.437 -0.1992 -0.7232 -0.3583
 5063SOL    HW116322   3.742   0.168   0.392  0.3473 -0.0351 -0.7447
 5063SOL    HW216323   3.622   0.258   0.372 -0.0423 -0.4815 -0.4325
 5064SOL     OW16324   0.615   2.288   2.378  0.2173  0.1903  0.0663
 5064SOL    HW116325   0.590   2.233   2.452  2.3161  0.2354  0.8649
 5064SOL    HW216326   0.531   2.314   2.338 -0.8908 -3.3820 -0.2466
 5065SOL     OW16327   1.889   5.909   0.043 -0.1724  0.1310  0.1851
 5065SOL    HW116328   1.938   5.951   0.114  0.2344 -1.1860  0.7051
 5065SOL    HW216329   1.849   5.982  -0.004 -0.0929  1.0658  1.5059
 5066SOL     OW16330   0.904   0.265   2.061 -0.6842 -0.2909 -0.0319
 5066SOL    HW116331   0.861   0.238   1.980 -1.7802  0.0011  0.4321
 5066SOL    HW216332   0.866   0.350   2.082  0.1422 -0.0091  0.3966
 5067SOL     OW16333   6.150   5.977   4.331  0.6912 -0.0244 -0.2467
 5067SOL    HW116334   6.208   5.942   4.399  0.7309 -0.2224 -0.3790
 5067SOL    HW216335   6.150   5.909   4.263 -0.9955 -0.7773  0.4603
 5068SOL     OW16336   8.762   0.410   7.506  0.6371  0.3864  0.1180
 5068SOL    HW116337   8.721   0.327   7.532  1.4681 -0.3953 -1.0130
 5068SOL    HW216338   8.835   0.420   7.566  0.3270  0.4892  0.4854
 5069SOL     OW16339   4.526   5.347   1.881  0.3155  0.3857 -0.0086
 5069SOL    HW116340   4.501   5.310   1.797  2.4718  1.3660 -1.1891
 5069SOL    HW216341   4.584   5.282   1.920  0.1494  0.3829  0.2381
 5070SOL     OW16342   0.364   0.845   3.651  0.5694 -0.1061  0.0802
 5070SOL    HW116343   0.416   0.897   3.590 -0.1191 -1.7302 -1.9897
 5070SOL    HW216344   0.275   0.880   3.644 -0.0391 -1.8604 -1.8240
 5071SOL     OW16345   3.164   6.816   4.959 -0.4716 -0.4246  0.2320
 5071SOL    HW116346   3.250   6.832   4.999 -0.5687 -1.2288  0.7829
 5071SOL    HW216347   3.122   6.902   4.956  0.1831 -0.0982  0.3602
 5072SOL     OW16348   4.883   4.086   2.724 -0.1076  0.4469  0.3351
 5072SOL    HW116349   4.806   4.131   2.691 -0.6741 -0.7969 -0.1312
 5072SOL    HW216350   4.852   4.039   2.802  0.3019  0.3422  0.4414
 5073SOL     OW16351   0.652   1.531   8.551  0.2466  0.0025 -0.2076
 5073SOL    HW116352   0.704   1.539   8.631 -1.5923 -0.2772  1.0757
 5073SOL    HW216353   0.698   1.466   8.498  2.9739  2.1214 -0.6497
 5074SOL     OW16354   4.491   0.083   8.096 -0.0299 -0.3738 -0.1215
 5074SOL    HW116355   4.509  -0.001   8.054  2.0563 -0.1659  0.2314
 5074SOL    HW216356   4.550   0.144   8.053 -0.4045  0.5835  0.6819
 5075SOL     OW16357   7.676   0.692   4.911  0.1772  0.0042 -0.7992
 5075SOL    HW116358   7.662   0.734   4.826  1.4892 -0.7792 -1.4295
 5075SOL    HW216359   7.760   0.726   4.941 -0.8585  1.2910  0.8518
 5076SOL     OW16360   0.815   0.693   7.052  0.0798 -0.0258  0.3428
 5076SOL    HW116361   0.836   0.600   7.044  1.7951  0.4364 -1.0948
 5076SOL    HW216362   0.757   0.698   7.128  1.5062 -2.0221  1.6429
 5077SOL     OW16363   4.676   3.009   2.271  0.5944 -0.0028  0.1935
 5077SOL    HW116364   4.615   3.048   2.334 -1.2207  1.1618 -2.1259
 5077SOL    HW216365   4.641   2.922   2.255  0.6263 -0.0293  0.2702
 5078SOL     OW16366   3.665   7.369   1.617 -0.2748  0.5382  0.0974
 5078SOL    HW116367   3.724   7.376   1.543 -1.0692  0.5074 -0.5516
 5078SOL    HW216368   3.690   7.287   1.661  0.3641  0.6903  0.0188
 5079SOL     OW16369   0.647   1.942   9.024  0.1512 -0.3404  0.3933
 5079SOL    HW116370   0.641   1.847   9.016 -0.6789 -0.2858  0.3097
 5079SOL    HW216371   0.597   1.976   8.950  0.6288  0.1648  0.2940
 5080SOL     OW16372   8.175   7.853   3.677 -0.6615  0.6473  0.5567
 5080SOL    HW116373   8.129   7.865   3.594  0.0628 -0.3879 -0.0262
 5080SOL    HW216374   8.111   7.812   3.735 -1.3948  2.0159  0.7734
 5081SOL     OW16375   4.042   8.663   0.400 -0.3842 -0.1913  0.1754
 5081SOL    HW116376   4.039   8.568   0.393 -1.9967 -0.2797  1.3008
 5081SOL    HW216377   4.124   8.681   0.447 -1.6070 -1.3607  3.0465
 5082SOL     OW16378   3.689   6.085   0.891 -0.1465 -0.3798 -0.1899
 5082SOL    HW116379   3.705   6.128   0.807 -0.9621  0.7042  0.1915
 5082SOL    HW216380   3.717   6.149   0.957 -2.1810 -0.0275  0.4033
 5083SOL     OW16381   8.731   2.876   1.888 -0.4666  0.3686  0.4223
 5083SOL    HW116382   8.782   2.957   1.884  1.2292 -0.6949 -0.3670
 5083SOL    HW216383   8.708   2.868   1.981  1.8351  0.3115  1.0493
 5084SOL     OW16384   5.728   5.395   7.979  0.4827  0.2439  0.3927
 5084SOL    HW116385   5.735   5.309   7.936  0.6779  0.4148  0.0770
 5084SOL    HW216386   5.675   5.378   8.057 -1.1762  0.2137 -0.7031
 5085SOL     OW16387   0.460   2.583   3.304 -0.2659  0.3896 -0.8292
 5085SOL    HW116388   0.476   2.599   3.397  1.1344 -0.2368 -0.9386
 5085SOL    HW216389   0.547   2.586   3.264 -0.7334 -0.4198 -1.9495
 5086SOL     OW16390   4.103   8.455   6.230  0.2580 -0.4023 -0.2416
 5086SOL    HW116391   4.140   8.459   6.142  1.8579 -1.1186  0.3565
 5086SOL    HW216392   4.173   8.489   6.286 -1.1220  1.0633  0.6694
 5087SOL     OW16393   0.245   1.175   0.877  0.4748 -0.2591 -0.0583
 5087SOL    HW116394   0.307   1.123   0.929  1.8770  1.9930  0.6330
 5087SOL    HW216395   0.163   1.167   0.924  0.9032 -0.9853  0.6081
 5088SOL     OW16396   2.290   4.396   3.599  0.3172 -0.8278 -0.6336
 5088SOL    HW116397   2.203   4.359   3.583  0.9111 -1.7499 -1.8335
 5088SOL    HW216398   2.335   4.331   3.653  0.7327 -1.0048 -1.1840
 5089SOL     OW16399   8.922   6.768   5.505  0.1460 -0.5998  0.4134
 5089SOL    HW116400   8.972   6.715   5.444  0.6985 -0.7653  1.0074
 5089SOL    HW216401   8.832   6.738   5.494  0.4157 -1.4981  0.5794
 5090SOL     OW16402   4.422   8.076   0.109 -0.0287 -0.9101  0.2448
 5090SOL    HW116403   4.516   8.058   0.109  0.1579 -0.1655 -1.9333
 5090SOL    HW216404   4.400   8.091   0.017 -2.6419 -2.7972  0.4652
 5091SOL     OW16405   2.013   7.438   0.817 -0.3243  0.6488  0.3422
 5091SOL    HW116406   1.972   7.438   0.730 -1.2478  2.4613  0.7451
 5091SOL    HW216407   1.978   7.361   0.860 -2.5440  1.5496  0.2852
 5092SOL     OW16408   4.380   7.502   7.863  0.3190  0.3095  0.3105
 5092SOL    HW116409   4.435   7.552   7.923  0.5562 -0.3842  0.6797
 5092SOL    HW216410   4.413   7.524   7.776  0.6965  0.4693  0.4915
 5093SOL     OW16411   8.474   4.734   6.497 -0.5431  0.3976 -0.2268
 5093SOL    HW116412   8.518   4.808   6.455  0.4518  0.4319  0.8427
 5093SOL    HW216413   8.467   4.759   6.589 -1.2692 -0.3529 -0.0626
 5094SOL     OW16414   5.304   6.787   3.679 -0.6558 -0.2347 -0.2541
 5094SOL    HW116415   5.292   6.745   3.764  0.5437  0.1661  0.1385
 5094SOL    HW216416   5.276   6.877   3.692 -1.4119 -0.4164 -0.5694
 5095SOL     OW16417   7.675   7.248   1.867  0.5388 -0.5110  0.1109
 5095SOL    HW116418   7.715   7.206   1.943 -0.8214 -1.3102  0.4367
 5095SOL    HW216419   7.636   7.175   1.817 -0.6717  0.2168 -0.0508
 5096SOL     OW16420   6.542   3.903   6.416 -0.1214  0.4286  0.1681
 5096SOL    HW116421   6.633   3.878   6.403 -0.5636 -1.6921  0.8236
 5096SOL    HW216422   6.546   3.987   6.461  1.4833  0.7332 -0.4803
 5097SOL     OW16423   2.656   5.930   4.829  0.3828  0.3407 -0.5416
 5097SOL    HW116424   2.575   5.979   4.815  0.0687  0.1847  0.6102
 5097SOL    HW216425   2.722   5.997   4.846  0.5458  0.4760 -1.6457
 5098SOL     OW16426   8.883   1.628   4.349  0.1837  0.2055 -0.4517
 5098SOL    HW116427   8.836   1.603   4.269 -0.1780 -0.5983 -0.0073
 5098SOL    HW216428   8.937   1.551   4.369  1.4171  0.9709 -0.7378
 5099SOL     OW16429   0.670   8.015   0.422  0.0634 -0.0333 -0.6572
 5099SOL    HW116430   0.634   7.926   0.419 -1.6509  0.5917  0.0674
 5099SOL    HW216431   0.695   8.028   0.513 -0.7891  0.6220 -0.5062
 5100SOL     OW16432   2.311   2.657   6.482  0.1132 -0.1424 -0.0418
 5100SOL    HW116433   2.289   2.565   6.472 -0.7073  0.1629 -1.2859
 5100SOL    HW216434   2.263   2.686   6.559 -0.9754 -0.3797 -0.6064
 5101SOL     OW16435   6.763   2.743   5.524 -0.6608 -0.2826 -0.1853
 5101SOL    HW116436   6.677   2.717   5.493 -1.3479  1.8003 -0.1937
 5101SOL    HW216437   6.746   2.816   5.584  1.0877  0.2977 -0.3201
 5102SOL     OW16438   5.395   6.877   2.256 -0.3866 -0.0274  0.2829
 5102SOL    HW116439   5.477   6.894   2.211 -1.4563  0.6189 -1.5491
 5102SOL    HW216440   5.395   6.783   2.273 -0.5827 -0.6326 -2.5712
 5103SOL     OW16441   2.108   0.726   9.018  0.0258 -0.2885  0.4074
 5103SOL    HW116442   2.172   0.786   8.980 -0.9735  1.5820  1.5414
 5103SOL    HW216443   2.125   0.642   8.975  1.5509  0.7610 -1.1535
 5104SOL     OW16444   6.876   0.649   5.877  0.0703  0.5690  0.1302
 5104SOL    HW116445   6.810   0.671   5.943 -1.1456  0.0664 -0.8718
 5104SOL    HW216446   6.959   0.650   5.924 -0.8064 -0.1437  1.7587
 5105SOL     OW16447   3.265   3.862   1.863  0.4271  0.6830  0.7742
 5105SOL    HW116448   3.274   3.890   1.954 -0.2325  2.6638  0.2679
 5105SOL    HW216449   3.342   3.807   1.848  0.4378  0.1341  2.5692
 5106SOL     OW16450   2.756   3.999   5.944  0.0896  0.3615  0.1261
 5106SOL    HW116451   2.801   3.931   5.894 -0.4787 -0.4136  0.6477
 5106SOL    HW216452   2.726   3.956   6.024 -0.0536  1.2896  0.5963
 5107SOL     OW16453   6.773   8.509   0.349 -0.2573 -0.5148  0.1592
 5107SOL    HW116454   6.715   8.433   0.336 -1.4576  0.5077 -0.6904
 5107SOL    HW216455   6.716   8.585   0.333  0.9311  0.5688  0.9391
 5108SOL     OW16456   1.313   3.870   2.516  0.0374  0.4714 -0.5204
 5108SOL    HW116457   1.314   3.962   2.491  0.3659  0.8813  0.9086
 5108SOL    HW216458   1.324   3.822   2.434 -0.6671  1.6873 -1.3418
 5109SOL     OW16459   7.254   7.078   6.678  0.2481  0.2541 -0.1530
 5109SOL    HW116460   7.183   7.013   6.683 -0.9472  1.5551  0.4125
 5109SOL    HW216461   7.266   7.094   6.585 -0.2186  0.0399 -0.2522
 5110SOL     OW16462   6.938   5.238   8.922  0.6053  0.2892 -0.0730
 5110SOL    HW116463   6.939   5.144   8.938  0.8785  0.2687 -0.1940
 5110SOL    HW216464   7.023   5.269   8.955  0.7206  0.4148 -0.4758
 5111SOL     OW16465   0.081   0.794   7.189  0.0512  0.0763 -0.0638
 5111SOL    HW116466   0.048   0.757   7.108 -3.6664  0.9994  0.8175
 5111SOL    HW216467   0.083   0.721   7.251 -1.1404  0.0903  0.0227
 5112SOL     OW16468   4.980   0.064   6.551  0.3358 -0.3311  0.0375
 5112SOL    HW116469   4.901   0.058   6.605  0.1131 -0.0044 -0.2454
 5112SOL    HW216470   5.010   0.154   6.562 -0.8529  0.3853 -1.9260
 5113SOL     OW16471   3.572   5.698   5.189  0.7600  0.1037  0.2807
 5113SOL    HW116472   3.554   5.702   5.095  0.7802  2.9985  0.2972
 5113SOL    HW216473   3.647   5.756   5.202 -0.1815  0.9892  2.2323
 5114SOL     OW16474   8.202   1.571   4.196 -0.1993 -0.3279  0.1106
 5114SOL    HW116475   8.298   1.576   4.190 -0.1185 -0.8453  0.8079
 5114SOL    HW216476   8.177   1.647   4.249 -0.3614  0.8493 -1.5851
 5115SOL     OW16477   0.836   0.964   7.513 -0.4154  0.1407 -0.0866
 5115SOL    HW116478   0.861   0.903   7.583  0.1884 -1.3198 -1.5183
 5115SOL    HW216479   0.748   0.993   7.538 -1.1674 -2.1184  0.1698
 5116SOL     OW16480   6.187   8.350   7.572  0.4456  0.3653  0.1441
 5116SOL    HW116481   6.226   8.268   7.541  1.5070  0.2284  1.7188
 5116SOL    HW216482   6.102   8.353   7.528  0.3102 -1.6724  0.1347
 5117SOL     OW16483   3.172   8.608   5.697 -0.1828 -0.0719  0.0657
 5117SOL    HW116484   3.127   8.582   5.778 -1.9639 -0.3695 -0.9696
 5117SOL    HW216485   3.108   8.660   5.649  0.7670 -0.0704 -1.2636
 5118SOL     OW16486   5.312   8.375   8.214  0.0346 -0.0473 -0.4667
 5118SOL    HW116487   5.252   8.330   8.155 -1.7757 -0.8564  1.8430
 5118SOL    HW216488   5.260   8.448   8.249 -0.1742 -1.4851  2.5347
 5119SOL     OW16489   1.371   8.049   5.927 -0.5024  0.5305 -0.0509
 5119SOL    HW116490   1.347   8.040   6.019  2.5885  0.7256  0.8932
 5119SOL    HW216491   1.416   8.134   5.923  2.1627 -0.8154 -0.9720
 5120SOL     OW16492   3.414   6.173   4.347 -0.3883  0.3706 -0.9334
 5120SOL    HW116493   3.398   6.265   4.329  1.1660  1.1753  1.4783
 5120SOL    HW216494   3.357   6.152   4.421 -1.3688 -0.8958 -1.9809
 5121SOL     OW16495   1.494   5.540   2.205 -0.0316 -0.3612 -0.7332
 5121SOL    HW116496   1.546   5.619   2.193 -0.3244 -0.0386  0.0737
 5121SOL    HW216497   1.550   5.482   2.257 -0.4312 -0.0420  0.0725
 5122SOL     OW16498   5.775   4.542   1.858  0.1015 -0.4810 -0.5087
 5122SOL    HW116499   5.802   4.625   1.896 -1.4636 -0.8056  1.5005
 5122SOL    HW216500   5.720   4.566   1.784  1.2918  0.2083 -1.1984
 5123SOL     OW16501   2.814   8.998   0.330 -0.1499  0.4130 -0.6004
 5123SOL    HW116502   2.873   8.928   0.361  0.2936 -0.6245 -3.4538
 5123SOL    HW216503   2.861   9.079   0.349  0.7676 -0.2337 -0.0144
 5124SOL     OW16504   1.035   6.392   1.058 -0.0436  0.3680 -0.0079
 5124SOL    HW116505   1.099   6.449   1.100  1.2907 -1.1686  0.1411
 5124SOL    HW216506   0.951   6.422   1.091  0.8537 -0.0505  2.9534
 5125SOL     OW16507   9.010   3.347   2.820 -0.7453  0.4902 -0.0280
 5125SOL    HW116508   8.999   3.440   2.838 -1.2312  0.3359  0.5422
 5125SOL    HW216509   8.941   3.327   2.757 -1.3303  0.3025  0.6610
 5126SOL     OW16510   5.002   8.847   7.496 -0.2083 -0.7438 -0.2085
 5126SOL    HW116511   5.015   8.802   7.412  0.0340 -1.2743  0.1083
 5126SOL    HW216512   5.062   8.922   7.492 -0.9657 -0.1558 -0.9369
 5127SOL     OW16513   3.839   7.504   7.483 -0.3831 -0.4646 -0.3686
 5127SOL    HW116514   3.929   7.475   7.466 -0.0446 -0.7686  1.6565
 5127SOL    HW216515   3.793   7.424   7.508 -1.3346 -0.3648 -1.7263
 5128SOL     OW16516   6.350   3.645   6.487  1.0164  0.2409  0.0977
 5128SOL    HW116517   6.346   3.709   6.558 -2.1178  1.0213 -0.6326
 5128SOL    HW216518   6.384   3.694   6.412  0.4395  0.5587  0.0361
 5129SOL     OW16519   6.878   1.295   3.613 -0.0697 -0.4164  0.2871
 5129SOL    HW116520   6.950   1.296   3.551  0.6448 -0.5470  1.0915
 5129SOL    HW216521   6.807   1.341   3.568  0.3956 -0.5926 -0.6481
 5130SOL     OW16522   5.835   7.899   6.610  0.5502 -0.0004 -0.2989
 5130SOL    HW116523   5.773   7.971   6.597 -0.1270 -0.4432  0.4030
 5130SOL    HW216524   5.892   7.930   6.681 -0.3186 -0.5006  0.6484
 5131SOL     OW16525   6.190   7.957   1.409  0.2398  0.2240  0.1842
 5131SOL    HW116526   6.272   7.913   1.432  1.1622  1.6702 -0.2267
 5131SOL    HW216527   6.179   7.938   1.315  0.8844  1.2024 -0.1064
 5132SOL     OW16528   4.230   3.048   4.826  0.2265 -0.2267  0.0213
 5132SOL    HW116529   4.162   3.025   4.890  1.7975 -0.6690  1.6183
 5132SOL    HW216530   4.258   2.964   4.790  0.6885 -0.1539  0.2031
 5133SOL     OW16531   5.501   8.082   2.076  0.3256  0.2862 -0.2065
 5133SOL    HW116532   5.413   8.048   2.093  1.2616 -1.9250  0.5099
 5133SOL    HW216533   5.521   8.137   2.152 -0.4979  0.9675 -0.4726
 5134SOL     OW16534   3.418   8.257   5.477  0.4760 -0.1000 -0.4250
 5134SOL    HW116535   3.383   8.247   5.566 -1.2162  0.6887 -0.9523
 5134SOL    HW216536   3.438   8.350   5.469  0.0968 -0.0628 -1.0358
 5135SOL     OW16537   3.558   1.965   1.806 -0.7626 -0.3849 -0.0231
 5135SOL    HW116538   3.584   2.043   1.857 -1.5153 -0.0812 -0.0966
 5135SOL    HW216539   3.584   1.986   1.716 -1.4565  0.0175 -0.1362
 5136SOL     OW16540   5.864   0.816   1.254 -0.1989  0.3901  0.4368
 5136SOL    HW116541   5.869   0.811   1.349  2.4398  0.5441  0.3716
 5136SOL    HW216542   5.853   0.909   1.235  0.9190  0.5647  0.5843
 5137SOL     OW16543   1.802   7.231   0.290 -0.3281  0.3653  0.6154
 5137SOL    HW116544   1.855   7.169   0.241 -2.5953 -0.3722 -1.0219
 5137SOL    HW216545   1.797   7.308   0.234 -1.3614  0.2458  0.5269
 5138SOL     OW16546   6.051   6.288   0.289 -0.9548 -0.2527  0.1229
 5138SOL    HW116547   6.060   6.383   0.277 -2.4432 -0.3719 -2.8677
 5138SOL    HW216548   5.976   6.279   0.348 -1.0200  0.4678  0.1654
 5139SOL     OW16549   6.343   2.650   4.821 -0.7695 -0.1096  0.6931
 5139SOL    HW116550   6.308   2.736   4.798  1.5897  0.8830  0.5648
 5139SOL    HW216551   6.377   2.660   4.910  0.3470 -0.6338  0.3384
 5140SOL     OW16552   8.547   3.452   8.818  0.4073  0.0800 -0.1637
 5140SOL    HW116553   8.475   3.389   8.810 -0.1916  1.0023 -3.1768
 5140SOL    HW216554   8.530   3.517   8.750  3.3804  1.0807 -0.0914
 5141SOL     OW16555   2.445   0.980   6.169  0.0109 -0.6746  0.2767
 5141SOL    HW116556   2.405   0.894   6.155 -0.0455 -0.8156  1.2036
 5141SOL    HW216557   2.502   0.993   6.094 -2.7965  0.1620 -1.8627
 5142SOL     OW16558   6.798   8.838   9.078 -0.2589 -0.5854 -0.1062
 5142SOL    HW116559   6.804   8.900   9.005 -1.0211 -0.5163 -0.1204
 5142SOL    HW216560   6.785   8.753   9.037 -1.4387 -0.4493 -0.0552
 5143SOL     OW16561   2.874   8.640   2.834  0.1695  0.2280 -0.0708
 5143SOL    HW116562   2.844   8.677   2.917 -2.3935 -0.4446 -0.6232
 5143SOL    HW216563   2.969   8.639   2.842  0.0002 -0.6962  3.2588
 5144SOL     OW16564   1.612   6.264   6.576  0.4960 -0.0312 -0.2456
 5144SOL    HW116565   1.643   6.354   6.589 -0.8174  0.5444 -0.8376
 5144SOL    HW216566   1.636   6.243   6.486 -0.0643  0.1101 -0.4333
 5145SOL     OW16567   6.686   4.977   0.226  0.0569 -0.1411  0.1635
 5145SOL    HW116568   6.735   4.908   0.182  2.5985  2.5431 -1.6153
 5145SOL    HW216569   6.731   4.987   0.311  0.4131  0.0298 -0.0411
 5146SOL     OW16570   5.627   2.097   8.851 -0.1809  0.2704  0.0475
 5146SOL    HW116571   5.542   2.121   8.889 -1.0742 -0.8531 -1.1448
 5146SOL    HW216572   5.690   2.150   8.899 -1.6613  2.1087  0.1074
 5147SOL     OW16573   6.391   6.826   4.998 -0.5919  0.2942 -0.0136
 5147SOL    HW116574   6.313   6.805   5.049 -2.0458  0.1527 -2.1632
 5147SOL    HW216575   6.359   6.884   4.928  1.1045 -0.2218 -1.2836
 5148SOL     OW16576   6.906   5.551   3.806 -0.1579 -0.0248 -0.2285
 5148SOL    HW116577   6.816   5.580   3.821 -0.6396 -1.8688  0.6492
 5148SOL    HW216578   6.937   5.607   3.734 -2.1309  0.3659 -0.8403
 5149SOL     OW16579   5.729   5.805   0.418  0.5235 -0.3612  0.7382
 5149SOL    HW116580   5.727   5.715   0.451 -1.1767 -0.6320  0.0360
 5149SOL    HW216581   5.641   5.818   0.381  0.8613  1.4726  0.5111
 5150SOL     OW16582   4.186   0.124   1.641  0.1941  0.6982 -0.3483
 5150SOL    HW116583   4.257   0.151   1.699 -0.5524  1.2934  0.3127
 5150SOL    HW216584   4.124   0.197   1.643  0.1054  0.7086 -1.8448
 5151SOL     OW16585   8.830   7.368   6.113 -0.2148  0.4697  0.4665
 5151SOL    HW116586   8.757   7.359   6.175 -2.1778  0.9500 -1.6683
 5151SOL    HW216587   8.838   7.463   6.100  0.8327  0.4193  0.6900
 5152SOL     OW16588   3.859   2.837   5.226  0.0689 -0.7274 -0.1170
 5152SOL    HW116589   3.948   2.871   5.219  0.4113 -1.4591  0.5732
 5152SOL    HW216590   3.824   2.877   5.306  0.0014 -0.9401 -0.0397
 5153SOL     OW16591   8.101   0.471   7.889  0.1498  0.2660 -0.6779
 5153SOL    HW116592   8.143   0.503   7.969  1.4194  0.7365 -1.5052
 5153SOL    HW216593   8.014   0.443   7.917  0.2052  1.3633  0.6899
 5154SOL     OW16594   8.427   0.432   4.645 -0.3788  0.1052 -0.0729
 5154SOL    HW116595   8.514   0.439   4.685 -0.6287  1.6667  0.2539
 5154SOL    HW216596   8.444   0.392   4.559  0.6068  0.0382  0.1347
 5155SOL     OW16597   1.701   4.142   2.572 -0.7775 -0.0345  0.0939
 5155SOL    HW116598   1.707   4.169   2.480 -1.7850 -2.0589 -0.6272
 5155SOL    HW216599   1.618   4.180   2.602 -0.9183 -0.1570 -0.1332
 5156SOL     OW16600   3.396   0.886   8.963 -0.1031  0.0496 -0.0395
 5156SOL    HW116601   3.412   0.971   9.003  2.3105 -0.6023  0.5674
 5156SOL    HW216602   3.307   0.891   8.930  0.0123  2.8610 -0.1596
 5157SOL     OW16603   0.459   7.524   1.101 -0.5826  0.6552  0.7977
 5157SOL    HW116604   0.534   7.496   1.154 -0.6005  1.3483  1.2036
 5157SOL    HW216605   0.392   7.549   1.165 -0.8022  0.9774  0.4471
 5158SOL     OW16606   1.691   8.188   2.094  0.0027  0.1908 -0.0299
 5158SOL    HW116607   1.700   8.280   2.071 -0.4820  0.1681 -0.3322
 5158SOL    HW216608   1.748   8.142   2.032 -0.9094  0.1729 -0.8790
 5159SOL     OW16609   8.908   7.065   4.472  0.2380  0.1509  0.3769
 5159SOL    HW116610   8.841   7.012   4.514  0.5898 -2.7541 -2.3671
 5159SOL    HW216611   8.971   7.001   4.438  1.1663  2.3651 -2.4418
 5160SOL     OW16612   3.573   8.696   8.785  0.5702  0.1708 -0.3786
 5160SOL    HW116613   3.593   8.604   8.806 -1.0099 -0.0667  0.2080
 5160SOL    HW216614   3.518   8.691   8.707  1.3708  0.7171 -1.0059
 5161SOL     OW16615   0.745   1.323   2.280  0.8955  1.1638  0.0578
 5161SOL    HW116616   0.700   1.350   2.360  0.2061 -0.6374  0.3347
 5161SOL    HW216617   0.737   1.397   2.221 -0.7636  1.6085  0.7979
 5162SOL     OW16618   2.295   0.148   4.951  0.2227  0.4054  0.8936
 5162SOL    HW116619   2.371   0.180   5.001  0.0171  1.0361  0.8044
 5162SOL    HW216620   2.274   0.219   4.891  0.7713 -0.5222 -0.4604
 5163SOL     OW16621   5.769   8.717   6.315 -0.7016  0.3626  0.3901
 5163SOL    HW116622   5.724   8.648   6.363  0.6805 -2.3149 -1.8309
 5163SOL    HW216623   5.857   8.719   6.352 -0.7704  1.0526  0.5297
 5164SOL     OW16624   7.803   1.880   5.708 -0.0777  0.4469  0.1432
 5164SOL    HW116625   7.845   1.829   5.638  2.7475  1.2291  1.1557
 5164SOL    HW216626   7.788   1.965   5.668 -0.3570  0.2878 -0.1009
 5165SOL     OW16627   4.844   5.364   7.743  0.4603  0.3017 -0.1357
 5165SOL    HW116628   4.829   5.277   7.706 -0.5277  0.7926 -0.9514
 5165SOL    HW216629   4.937   5.381   7.730  0.4508 -0.2151 -0.9076
 5166SOL     OW16630   4.036   6.088   5.757  0.8039 -0.2494  0.3229
 5166SOL    HW116631   4.004   6.003   5.726  0.1327  0.3120 -0.5744
 5166SOL    HW216632   3.965   6.149   5.737  1.5083  0.6299  0.4356
 5167SOL     OW16633   3.546   5.120   8.051  0.2134  0.2556 -0.0718
 5167SOL    HW116634   3.581   5.090   7.967 -0.0721  1.1691 -0.5314
 5167SOL    HW216635   3.578   5.209   8.060 -0.0450  0.2810  0.6323
 5168SOL     OW16636   0.235   2.989   3.454  0.5889  0.0387  0.1809
 5168SOL    HW116637   0.262   3.016   3.542  1.8111 -1.3728  0.2888
 5168SOL    HW216638   0.303   3.022   3.396  0.8751 -0.7624  0.0399
 5169SOL     OW16639   0.114   7.341   1.388  0.0918 -0.2998  0.4802
 5169SOL    HW116640   0.126   7.302   1.475  0.6705  0.2004  0.6315
 5169SOL    HW216641   0.121   7.267   1.327 -1.5816 -0.8616  0.9221
 5170SOL     OW16642   3.580   7.111   8.565 -0.5929 -0.5742 -0.4793
 5170SOL    HW116643   3.491   7.132   8.594  0.1242  0.5385  1.0248
 5170SOL    HW216644   3.631   7.103   8.645  0.5160 -2.0202 -1.2857
 5171SOL     OW16645   6.283   4.156   6.416  0.0265 -0.3980 -0.0611
 5171SOL    HW116646   6.253   4.188   6.502  0.0004  0.1480 -0.2677
 5171SOL    HW216647   6.307   4.236   6.369  0.7042 -0.7483 -0.3132
 5172SOL     OW16648   2.760   2.157   6.088 -0.1738 -0.0018 -0.1496
 5172SOL    HW116649   2.746   2.199   6.172 -1.8581  1.1327 -0.9452
 5172SOL    HW216650   2.839   2.198   6.053 -1.1141  1.6983 -0.3790
 5173SOL     OW16651   7.934   1.448   7.726  0.6253  0.3195  0.9878
 5173SOL    HW116652   7.875   1.376   7.703  0.5777  0.6919 -0.0940
 5173SOL    HW216653   8.019   1.421   7.690  0.5958  0.8127  0.5367
 5174SOL     OW16654   0.885   5.230   0.770 -0.1728  0.4364  0.2654
 5174SOL    HW116655   0.923   5.158   0.720  1.6143  1.0394  0.6769
 5174SOL    HW216656   0.869   5.298   0.705  1.6897  1.0362  0.3664
 5175SOL     OW16657   8.047   0.997   1.967  0.1649 -0.0969 -0.4076
 5175SOL    HW116658   7.980   0.987   1.899  0.5471  0.8676 -0.9413
 5175SOL    HW216659   8.012   1.065   2.025  1.0960  1.1555 -1.2513
 5176SOL     OW16660   0.860   1.882   1.012 -0.0047  0.9407 -0.1589
 5176SOL    HW116661   0.817   1.923   1.087 -0.2048 -1.4561  1.1565
 5176SOL    HW216662   0.906   1.953   0.968  0.7454  2.3525  2.6779
 5177SOL     OW16663   0.495   0.190   3.547 -0.7910 -0.0212 -0.2335
 5177SOL    HW116664   0.559   0.260   3.536 -0.5532 -0.4789 -2.0141
 5177SOL    HW216665   0.425   0.211   3.484 -1.2327 -0.8100 -0.0202
 5178SOL     OW16666   3.737   5.106   2.790  0.4076  0.4915 -0.1482
 5178SOL    HW116667   3.687   5.030   2.819  0.3633  0.3005 -0.7125
 5178SOL    HW216668   3.674   5.178   2.793  0.4397  0.5056  0.3505
 5179SOL     OW16669   5.377   4.757   0.006  0.5692  0.1383  0.0889
 5179SOL    HW116670   5.395   4.847  -0.019 -0.3071 -0.1704 -1.8530
 5179SOL    HW216671   5.326   4.764   0.087 -0.8704  1.4795 -0.8885
 5180SOL     OW16672   3.463   7.353   3.254 -0.2003 -0.1058 -0.4559
 5180SOL    HW116673   3.492   7.283   3.196  1.4735  0.3587 -0.2287
 5180SOL    HW216674   3.424   7.418   3.195 -0.2967 -0.5052 -0.8414
 5181SOL     OW16675   6.921   0.193   4.137  0.1739 -0.2102 -0.3919
 5181SOL    HW116676   6.886   0.281   4.124  1.7507  0.8029  1.5882
 5181SOL    HW216677   6.848   0.143   4.175 -0.8180  0.1212 -1.8010
 5182SOL     OW16678   4.743   1.015   7.911  0.6736  0.0584 -0.3067
 5182SOL    HW116679   4.769   1.070   7.985 -0.7222 -0.8375  0.8943
 5182SOL    HW216680   4.786   0.931   7.926 -0.3708 -0.4315  0.0237
 5183SOL     OW16681   6.927   4.392   0.585 -0.0646  0.8184  0.0919
 5183SOL    HW116682   7.020   4.402   0.608  0.0545  1.4830 -0.6360
 5183SOL    HW216683   6.929   4.356   0.497 -0.5171 -1.0843  0.8078
 5184SOL     OW16684   7.325   8.918   9.054 -0.3254 -0.1220 -1.3784
 5184SOL    HW116685   7.273   8.938   9.133 -0.4752 -0.4563 -1.3913
 5184SOL    HW216686   7.345   9.004   9.017  4.6966  0.5984  2.1000
 5185SOL     OW16687   4.299   0.671   5.756  0.3732  0.2621  0.0125
 5185SOL    HW116688   4.367   0.636   5.698 -0.8966  0.6578 -1.8121
 5185SOL    HW216689   4.344   0.737   5.809  0.9646  2.6863 -3.1628
 5186SOL     OW16690   5.565   6.780   4.840  0.4782  0.3450 -0.4699
 5186SOL    HW116691   5.611   6.732   4.909 -1.2656  0.4127  0.7826
 5186SOL    HW216692   5.525   6.855   4.884  0.3084  1.0545 -1.7742
 5187SOL     OW16693   2.201   0.099   8.432 -0.1065  0.2766  0.1911
 5187SOL    HW116694   2.154   0.018   8.416 -0.1993  0.5604 -1.1167
 5187SOL    HW216695   2.151   0.144   8.500 -0.5971 -0.3086  0.2220
 5188SOL     OW16696   3.640   6.271   6.787 -0.2520  0.1688 -0.3972
 5188SOL    HW116697   3.634   6.186   6.831  0.0591  0.6609  0.6165
 5188SOL    HW216698   3.576   6.266   6.716 -1.3609 -0.3496  0.6149
 5189SOL     OW16699   0.561   4.821   2.997  0.2637  0.0527  0.2143
 5189SOL    HW116700   0.584   4.910   3.024 -1.2557  0.1919  1.1178
 5189SOL    HW216701   0.637   4.792   2.946  1.8005  0.9944  1.8432
 5190SOL     OW16702   3.876   3.967   6.010  0.4128  0.3841 -0.4378
 5190SOL    HW116703   3.846   3.968   5.919 -1.5405 -2.0887  0.0316
 5190SOL    HW216704   3.912   4.054   6.025 -0.9534  1.5136 -3.0151
 5191SOL     OW16705   6.469   8.178   8.273 -0.2200  0.4706  0.6032
 5191SOL    HW116706   6.493   8.087   8.257  0.0201  0.2603  1.9685
 5191SOL    HW216707   6.385   8.190   8.229  0.0981 -0.1898 -0.1945
 5192SOL     OW16708   7.069   8.868   4.245  0.2171  0.2026  0.6114
 5192SOL    HW116709   7.078   8.793   4.304 -3.7680 -1.8629 -1.0415
 5192SOL    HW216710   7.049   8.829   4.160  0.0243  3.1394 -0.8038
 5193SOL     OW16711   3.320   0.882   1.081 -0.2441 -0.4267  0.0240
 5193SOL    HW116712   3.407   0.884   1.121 -0.2864 -0.4322  0.1169
 5193SOL    HW216713   3.334   0.845   0.994 -0.0804  0.0429 -0.1496
 5194SOL     OW16714   2.398   5.628   5.579  0.3908 -0.6454 -0.7952
 5194SOL    HW116715   2.486   5.592   5.570  0.6614  0.2688 -2.1685
 5194SOL    HW216716   2.401   5.677   5.661  1.9901  1.3850 -1.9343
 5195SOL     OW16717   5.102   0.164   1.774  0.3001  0.0198 -0.1065
 5195SOL    HW116718   5.045   0.151   1.850  1.4176 -3.0575  0.3732
 5195SOL    HW216719   5.081   0.252   1.743 -2.1702  0.3486  2.0938
 5196SOL     OW16720   0.511   0.322   3.137 -0.3588 -0.8031  0.1755
 5196SOL    HW116721   0.445   0.321   3.067 -1.2209 -3.1907  0.9272
 5196SOL    HW216722   0.460   0.311   3.217  0.4310  3.4442  1.5105
 5197SOL     OW16723   1.496   3.378   0.338 -0.4606 -0.2620  0.3383
 5197SOL    HW116724   1.481   3.445   0.271  2.1756  1.0391  0.9411
 5197SOL    HW216725   1.423   3.390   0.399 -1.3640  0.3963 -0.8054
 5198SOL     OW16726   5.009   2.457   0.167 -0.0777  0.2377  0.3256
 5198SOL    HW116727   5.063   2.524   0.209  0.5725  0.1169 -0.3003
 5198SOL    HW216728   5.072   2.400   0.123 -0.7406  0.3655 -0.8219
 5199SOL     OW16729   0.246   8.499   1.344 -0.3469 -1.1021  0.1802
 5199SOL    HW116730   0.211   8.485   1.432  1.2139  0.2244  1.0713
 5199SOL    HW216731   0.168   8.509   1.288 -1.3893 -3.2353  1.1131
 5200SOL     OW16732   4.850   0.340   3.705  0.1274  0.4235  0.4229
 5200SOL    HW116733   4.803   0.422   3.687 -0.8896 -0.3742 -0.7737
 5200SOL    HW216734   4.915   0.334   3.635  1.7097  1.2442  1.7564
 5201SOL     OW16735   0.912   2.714   2.431 -0.1750  0.3569  0.2947
 5201SOL    HW116736   0.891   2.798   2.389  3.2595  0.7188 -1.0472
 5201SOL    HW216737   0.887   2.648   2.366  0.5291  0.6124 -0.2516
 5202SOL     OW16738   3.497   3.903   6.707  0.1849  0.1025  0.1772
 5202SOL    HW116739   3.498   3.810   6.684 -0.6953 -0.2302  1.3636
 5202SOL    HW216740   3.590   3.927   6.715  0.4802 -0.2088 -1.7551
 5203SOL     OW16741   0.375   1.291   1.170  0.1679  0.5456 -0.6481
 5203SOL    HW116742   0.368   1.200   1.140 -1.8289  0.5378 -0.3316
 5203SOL    HW216743   0.315   1.339   1.113 -0.2864  1.3042  0.4401
 5204SOL     OW16744   7.790   5.160   1.828 -0.2574 -0.2627 -0.5878
 5204SOL    HW116745   7.828   5.157   1.740 -0.8203  0.7735 -0.8880
 5204SOL    HW216746   7.862   5.188   1.885 -0.2866  0.6505 -0.9856
 5205SOL     OW16747   1.299   3.615   8.666  0.3530 -0.0687 -0.0565
 5205SOL    HW116748   1.275   3.523   8.658 -0.1569  0.2079 -2.2199
 5205SOL    HW216749   1.314   3.644   8.576  1.5831  1.6893  0.6693
 5206SOL     OW16750   4.215   3.834   5.584 -0.5022  0.2751 -0.1466
 5206SOL    HW116751   4.129   3.792   5.573  0.9526 -2.8775 -0.6143
 5206SOL    HW216752   4.264   3.772   5.637  1.7844  1.5914 -0.6153
 5207SOL     OW16753   5.309   6.627   2.646  0.1803  0.0171 -0.8620
 5207SOL    HW116754   5.231   6.577   2.621  0.1239 -1.4922  1.9460
 5207SOL    HW216755   5.275   6.708   2.683 -0.0951 -0.6056  0.2881
 5208SOL     OW16756   1.210   8.377   7.893  0.2139 -0.1343 -0.1482
 5208SOL    HW116757   1.140   8.407   7.835 -0.5168 -0.7732  0.3769
 5208SOL    HW216758   1.216   8.445   7.959 -0.3288 -0.3452  0.1316
 5209SOL     OW16759   5.215   7.500   4.689  0.1995  0.3916 -0.1532
 5209SOL    HW116760   5.170   7.550   4.758  1.8807  1.1290  0.4534
 5209SOL    HW216761   5.267   7.565   4.642 -0.9315 -0.1044 -2.1801
 5210SOL     OW16762   3.893   6.382   3.098 -0.4595 -0.2122 -0.3919
 5210SOL    HW116763   3.926   6.465   3.131  0.4445 -1.1575  1.1863
 5210SOL    HW216764   3.927   6.377   3.008  2.7861 -0.5627  0.7345
 5211SOL     OW16765   5.255   0.779   4.430 -0.0595  0.0303  0.4754
 5211SOL    HW116766   5.250   0.724   4.352  0.6185  0.4354  0.1391
 5211SOL    HW216767   5.277   0.866   4.396  1.5140 -0.0576  1.2132
 5212SOL     OW16768   9.116   4.925   3.143  0.7898  0.2406  0.1749
 5212SOL    HW116769   9.034   4.898   3.183 -0.3954  0.5293 -1.9242
 5212SOL    HW216770   9.136   5.010   3.184 -0.7899  0.9038 -0.3493
 5213SOL     OW16771   5.406   7.722   2.456 -0.0466  0.0441 -0.0392
 5213SOL    HW116772   5.410   7.707   2.551 -1.6453  0.1412  0.0682
 5213SOL    HW216773   5.373   7.812   2.448  1.8240  0.7167 -0.7094
 5214SOL     OW16774   6.139   5.771   2.598 -0.2939 -0.5721  0.4222
 5214SOL    HW116775   6.070   5.802   2.539 -0.0923 -1.3499 -0.2445
 5214SOL    HW216776   6.169   5.689   2.559 -0.0809 -1.0596  1.5588
 5215SOL     OW16777   4.529   5.243   6.576 -0.5530  0.1757  0.0069
 5215SOL    HW116778   4.492   5.289   6.651 -0.3765 -0.7353  0.6583
 5215SOL    HW216779   4.469   5.170   6.559 -1.1984  0.9858 -1.4461
 5216SOL     OW16780   7.737   4.184   4.545  0.1288 -0.0470 -0.1370
 5216SOL    HW116781   7.723   4.196   4.639  1.4776  0.3791  0.0360
 5216SOL    HW216782   7.721   4.091   4.530  0.4813 -0.2402  0.6376
 5217SOL     OW16783   8.476   6.205   7.894 -0.2560  0.6372 -0.1719
 5217SOL    HW116784   8.495   6.119   7.931  1.0468  1.0479  0.1558
 5217SOL    HW216785   8.475   6.191   7.799 -1.9142 -0.0775 -0.0972
 5218SOL     OW16786   7.344   1.180   8.443  0.2642 -0.1503 -0.0266
 5218SOL    HW116787   7.335   1.211   8.533  0.5514  0.4688 -0.2049
 5218SOL    HW216788   7.338   1.085   8.450  0.5554 -0.1265  0.6848
 5219SOL     OW16789   3.877   5.625   4.805  0.3398  0.8451 -0.0898
 5219SOL    HW116790   3.845   5.573   4.878 -1.4873  0.7674 -0.8854
 5219SOL    HW216791   3.916   5.702   4.845 -1.9323  1.5211  0.9691
 5220SOL     OW16792   5.017   4.886   6.436 -0.0451  0.0972  0.0140
 5220SOL    HW116793   4.943   4.836   6.470 -0.6461  1.4845  0.8071
 5220SOL    HW216794   4.978   4.963   6.396  0.9665  0.9969  0.6892
 5221SOL     OW16795   5.437   0.094   5.005 -0.3545  0.0710 -0.2991
 5221SOL    HW116796   5.378   0.153   5.051  0.9297  0.5202  0.8330
 5221SOL    HW216797   5.436   0.125   4.914 -1.2661  0.5407 -0.1339
 5222SOL     OW16798   4.701   0.058   3.633 -0.3681 -0.4205  0.4643
 5222SOL    HW116799   4.740   0.141   3.659 -0.7485 -0.5855  1.6157
 5222SOL    HW216800   4.771   0.011   3.588 -0.6402  1.1997 -1.8042
 5223SOL     OW16801   1.712   6.825   8.610 -0.3173  0.1842  0.3115
 5223SOL    HW116802   1.732   6.918   8.607 -0.8769  0.3038  0.0181
 5223SOL    HW216803   1.639   6.819   8.672 -1.0545  0.1001 -0.5455
 5224SOL     OW16804   1.860   3.633   2.017 -0.1542 -0.1639 -0.2924
 5224SOL    HW116805   1.934   3.669   2.066  1.8482 -1.2077 -2.4195
 5224SOL    HW216806   1.815   3.711   1.982  0.5818  0.4557  0.1002
 5225SOL     OW16807   3.856   7.447   3.148 -0.0688 -0.0723 -0.2541
 5225SOL    HW116808   3.889   7.422   3.062 -1.4650  0.4292 -0.9604
 5225SOL    HW216809   3.841   7.541   3.142  0.3564  0.0727  0.7407
 5226SOL     OW16810   7.898   7.905   8.949 -0.2931 -0.4963 -0.7043
 5226SOL    HW116811   7.959   7.892   8.876 -0.3386  0.2070 -0.8764
 5226SOL    HW216812   7.954   7.917   9.025 -0.2077  0.2243 -0.8743
 5227SOL     OW16813   0.420   3.079   3.269 -0.2139  0.2336 -0.2534
 5227SOL    HW116814   0.376   3.089   3.184  0.4910  1.5732 -0.4871
 5227SOL    HW216815   0.505   3.041   3.247  0.0450  0.7596 -0.1776
 5228SOL     OW16816   6.768   8.485   8.512 -0.2300 -0.2139  0.0289
 5228SOL    HW116817   6.700   8.421   8.536 -2.2518  1.4979 -0.8458
 5228SOL    HW216818   6.719   8.561   8.481  1.9973  2.4066  2.4195
 5229SOL     OW16819   7.906   7.412   2.878  0.1197  0.0726 -0.4240
 5229SOL    HW116820   7.968   7.427   2.807  0.6253 -0.4800 -0.1106
 5229SOL    HW216821   7.830   7.465   2.856  0.3578  0.0691 -1.2623
 5230SOL     OW16822   7.029   6.428   2.309  0.2294 -0.0402  0.1942
 5230SOL    HW116823   7.081   6.369   2.364 -1.4749 -0.6115  1.3048
 5230SOL    HW216824   7.017   6.506   2.363  1.0241  0.6359 -0.5843
 5231SOL     OW16825   1.248   8.202   6.396  0.6339  0.0548  0.8947
 5231SOL    HW116826   1.239   8.260   6.321 -1.9225 -2.5966 -1.0968
 5231SOL    HW216827   1.171   8.219   6.450  0.4253 -0.6758  0.8475
 5232SOL     OW16828   6.184   4.893   2.385  0.0885 -0.1440  0.0008
 5232SOL    HW116829   6.259   4.833   2.377  0.3332  0.2251 -0.5759
 5232SOL    HW216830   6.113   4.838   2.417  0.4411 -0.6377 -0.0430
 5233SOL     OW16831   2.460   6.310   4.529  0.2913 -0.0536 -0.2845
 5233SOL    HW116832   2.543   6.263   4.524 -0.3248 -1.8882  3.1955
 5233SOL    HW216833   2.442   6.337   4.439  2.8604 -2.7422 -1.7903
 5234SOL     OW16834   0.041   3.897   3.468 -0.3823 -0.5576  0.3099
 5234SOL    HW116835  -0.021   3.944   3.413  0.0125 -0.9147 -0.4440
 5234SOL    HW216836   0.056   3.814   3.423 -1.5294 -1.7065  1.9107
 5235SOL     OW16837   4.375   6.956   5.948 -0.2065 -0.8577 -0.5037
 5235SOL    HW116838   4.341   6.906   6.022  1.0895 -0.6895  0.2301
 5235SOL    HW216839   4.307   6.949   5.881 -2.9128  1.4734  1.7108
 5236SOL     OW16840   7.969   0.657   5.511  0.3521  0.5982  0.1111
 5236SOL    HW116841   7.943   0.584   5.454 -1.0519  0.3129  1.0621
 5236SOL    HW216842   8.062   0.642   5.527  0.5227  0.0933 -1.2347
 5237SOL     OW16843   6.082   6.960   0.911  0.3732 -0.2050  0.5487
 5237SOL    HW116844   6.145   6.981   0.980 -0.1114  1.4139  0.5377
 5237SOL    HW216845   6.044   7.044   0.887  1.1956 -0.5729 -2.3958
 5238SOL     OW16846   0.058   1.536   3.331  0.1227  0.0552 -0.1527
 5238SOL    HW116847   0.112   1.481   3.387  0.9897  1.2965  0.2867
 5238SOL    HW216848   0.024   1.604   3.389 -0.6429  0.1893 -0.7381
 5239SOL     OW16849   0.914   0.413   6.870  0.3226  0.3683 -0.5828
 5239SOL    HW116850   0.969   0.491   6.874 -1.9839  2.0469  1.7344
 5239SOL    HW216851   0.922   0.374   6.957 -1.7786  0.4893 -0.2799
 5240SOL     OW16852   3.935   6.022   2.236  0.2893 -0.4628  0.4931
 5240SOL    HW116853   3.923   6.088   2.304  2.2649 -0.5344  0.9718
 5240SOL    HW216854   4.008   6.055   2.182 -0.3449 -1.0495 -0.7872
 5241SOL     OW16855   3.836   5.308   1.474  0.3248 -0.6514  0.4916
 5241SOL    HW116856   3.778   5.348   1.539  1.0078 -0.5131  1.0336
 5241SOL    HW216857   3.841   5.372   1.403 -0.5817 -0.8891  0.2051
 5242SOL     OW16858   8.101   1.972   6.761  0.8377 -0.1257  0.0064
 5242SOL    HW116859   8.094   1.948   6.854 -2.1474  1.3889  0.2987
 5242SOL    HW216860   8.010   1.973   6.730  1.5387  1.8306 -2.2827
 5243SOL     OW16861   4.406   4.428   4.451 -0.2105 -0.0181  0.3036
 5243SOL    HW116862   4.326   4.433   4.398 -0.3768 -1.2114  0.4077
 5243SOL    HW216863   4.476   4.418   4.386 -0.4502 -1.8491  0.2793
 5244SOL     OW16864   0.511   9.109   8.074 -0.5427  0.3457  0.7638
 5244SOL    HW116865   0.437   9.055   8.045 -1.4427  0.9131  1.9417
 5244SOL    HW216866   0.501   9.116   8.169  0.2343  1.5783  0.7828
 5245SOL     OW16867   4.853   5.011   4.592 -0.2604 -0.0860 -0.5615
 5245SOL    HW116868   4.927   4.996   4.651 -0.2689 -1.5768 -0.9054
 5245SOL    HW216869   4.806   5.085   4.631  1.4536  0.9665 -0.3918
 5246SOL     OW16870   5.350   6.251   4.664  0.7710  0.0670 -0.9125
 5246SOL    HW116871   5.420   6.253   4.599  1.1426 -0.6352 -0.5386
 5246SOL    HW216872   5.343   6.342   4.693  2.1208  0.0190 -0.3372
 5247SOL     OW16873   8.745   1.365   1.392  0.6002  0.3951  0.2671
 5247SOL    HW116874   8.678   1.431   1.377 -0.0208 -0.3914 -0.5812
 5247SOL    HW216875   8.809   1.407   1.449 -1.4123  0.6596  2.4700
 5248SOL     OW16876   2.093   3.559   6.018  0.2844  0.5285 -0.5082
 5248SOL    HW116877   2.107   3.639   6.068 -2.5206  0.4216  0.6091
 5248SOL    HW216878   2.136   3.490   6.069 -0.3957  0.7946  0.4333
 5249SOL     OW16879   8.690   7.015   5.462 -0.5569 -0.3621 -0.2148
 5249SOL    HW116880   8.750   7.000   5.535  0.9254  0.8181 -1.1437
 5249SOL    HW216881   8.671   6.928   5.428  0.0979 -0.7964  0.5020
 5250SOL     OW16882   4.414   6.021   4.025 -0.5991  0.0925  0.7752
 5250SOL    HW116883   4.443   5.955   3.962  0.8723 -0.0037  1.4876
 5250SOL    HW216884   4.336   6.060   3.987  0.3896  0.2176 -1.2155
 5251SOL     OW16885   7.173   0.143   7.982 -0.0507  0.1306  0.0913
 5251SOL    HW116886   7.248   0.156   8.040  0.4581  0.0212 -0.5277
 5251SOL    HW216887   7.200   0.183   7.899 -0.3061 -0.7458 -0.4259
 5252SOL     OW16888   5.349   2.573   2.961 -0.3775  0.2927  0.0661
 5252SOL    HW116889   5.420   2.633   2.939  1.5323 -1.9183 -0.2623
 5252SOL    HW216890   5.276   2.600   2.906  0.7054  1.7144 -0.7297
 5253SOL     OW16891   2.872   8.720   8.081 -0.1031  0.1761  0.1115
 5253SOL    HW116892   2.920   8.766   8.150  1.8639 -0.6373 -0.6328
 5253SOL    HW216893   2.937   8.706   8.012 -0.9751 -2.3690 -0.3153
 5254SOL     OW16894   5.144   6.610   8.824  0.3242  0.1778 -0.5336
 5254SOL    HW116895   5.201   6.635   8.897 -0.0016 -0.8367  0.0900
 5254SOL    HW216896   5.175   6.523   8.799 -2.3979 -1.4953  1.4003
 5255SOL     OW16897   2.313   0.552   0.236 -0.2305 -0.6184  0.7410
 5255SOL    HW116898   2.296   0.646   0.231 -0.8971 -0.7984 -1.4183
 5255SOL    HW216899   2.230   0.511   0.211  0.3715 -1.7734  0.5493
 5256SOL     OW16900   4.509   2.540   7.651  0.1286  0.4264 -0.1802
 5256SOL    HW116901   4.563   2.543   7.571 -0.7874 -0.2373 -0.8470
 5256SOL    HW216902   4.432   2.489   7.626  0.2497 -0.5901  1.3950
 5257SOL     OW16903   8.351   2.390   4.918 -0.8689 -0.2270  0.1236
 5257SOL    HW116904   8.309   2.424   4.839  1.1147 -0.5502 -1.1307
 5257SOL    HW216905   8.398   2.466   4.954 -0.1557 -0.5328 -0.1424
 5258SOL     OW16906   5.345   3.738   8.054 -0.0194  0.0340 -0.1863
 5258SOL    HW116907   5.364   3.680   8.127 -0.5678 -0.1998 -0.2223
 5258SOL    HW216908   5.416   3.802   8.055  1.1330 -1.1984 -0.7494
 5259SOL     OW16909   4.646   5.354   0.302 -0.0982  0.4255 -0.3834
 5259SOL    HW116910   4.736   5.331   0.325 -0.2797  1.1047  1.1796
 5259SOL    HW216911   4.602   5.366   0.386 -1.3146  1.3683 -1.1046
 5260SOL     OW16912   3.493   5.708   1.787 -0.8321  0.2593 -0.2517
 5260SOL    HW116913   3.549   5.706   1.709 -2.9920  0.7569 -1.9153
 5260SOL    HW216914   3.499   5.620   1.823  0.0266 -0.0576 -1.1223
 5261SOL     OW16915   4.870   0.321   2.200  0.1288  0.1596 -0.1190
 5261SOL    HW116916   4.798   0.371   2.238 -1.6179 -1.2536 -1.3987
 5261SOL    HW216917   4.845   0.230   2.213  1.0990 -0.3617 -1.6745
 5262SOL     OW16918   2.156   8.942   7.738 -0.3682  0.2191 -0.8286
 5262SOL    HW116919   2.204   9.002   7.680  1.4929  0.4545  0.8486
 5262SOL    HW216920   2.180   8.971   7.826  0.1896 -2.6661  0.0479
 5263SOL     OW16921   2.305   3.418   5.674 -0.0941 -0.6185  0.1937
 5263SOL    HW116922   2.281   3.473   5.748 -1.0132 -0.5731 -0.1263
 5263SOL    HW216923   2.391   3.451   5.647 -0.5295  0.5284  0.1494
 5264SOL     OW16924   6.130   5.195   3.889  0.0236 -0.1886  0.0150
 5264SOL    HW116925   6.043   5.234   3.884 -0.2206 -0.6301  0.6376
 5264SOL    HW216926   6.114   5.102   3.904  0.6001 -0.1845  0.7039
 5265SOL     OW16927   0.631   7.044   1.746  1.0864  0.4692  0.1053
 5265SOL    HW116928   0.661   7.129   1.779 -1.7287  1.1112  1.3684
 5265SOL    HW216929   0.692   7.022   1.676  2.8849  2.7224  0.8485
 5266SOL     OW16930   5.016   0.594   4.650 -0.3643  0.2030 -0.2305
 5266SOL    HW116931   5.091   0.534   4.641 -0.9128 -0.9168  1.9350
 5266SOL    HW216932   5.051   0.679   4.623  1.1066 -0.6403 -1.1816
 5267SOL     OW16933   7.574   7.666   7.618 -0.0047 -0.4020  0.7491
 5267SOL    HW116934   7.520   7.662   7.697  0.4067 -1.7128  0.9912
 5267SOL    HW216935   7.521   7.713   7.555 -0.7795 -0.2702  1.4831
 5268SOL     OW16936   1.532   3.531   2.540 -0.4293 -0.3619  0.7351
 5268SOL    HW116937   1.574   3.605   2.583 -1.6413  1.1760 -0.6288
 5268SOL    HW216938   1.439   3.551   2.541 -0.6964 -1.3500 -0.6036
 5269SOL     OW16939   3.930   3.715   2.704 -0.0254 -0.3798 -0.6470
 5269SOL    HW116940   3.988   3.707   2.628 -1.2743 -0.5067 -1.6014
 5269SOL    HW216941   3.914   3.809   2.712 -0.5270 -0.4303 -1.0314
 5270SOL     OW16942   8.956   5.923   2.297 -0.1757  0.0534  0.1748
 5270SOL    HW116943   8.976   6.007   2.255  0.4000 -0.3575 -0.3802
 5270SOL    HW216944   8.941   5.946   2.389  0.4451  0.7040  0.1250
 5271SOL     OW16945   0.072   7.966   4.808 -0.0012  0.3226  0.0043
 5271SOL    HW116946   0.144   7.974   4.871 -0.6129 -0.7866  0.8837
 5271SOL    HW216947   0.034   7.880   4.826 -1.2669  0.6983 -0.7402
 5272SOL     OW16948   5.747   1.404   3.086  0.0257 -0.9201  0.1963
 5272SOL    HW116949   5.748   1.382   3.180  0.9376 -0.8579  0.2099
 5272SOL    HW216950   5.663   1.448   3.073  0.0919 -0.4932  1.0991
 5273SOL     OW16951   2.826   3.268   7.144  0.0638 -0.6636  0.0375
 5273SOL    HW116952   2.815   3.325   7.069 -2.0817  0.4177  1.0685
 5273SOL    HW216953   2.882   3.317   7.204  0.6489 -0.9380 -0.2770
 5274SOL     OW16954   5.815   7.485   8.578  0.3574 -0.3590  0.5220
 5274SOL    HW116955   5.719   7.482   8.584  0.1899  0.3918 -1.0796
 5274SOL    HW216956   5.833   7.571   8.541  1.5704 -0.9587 -0.3346
 5275SOL     OW16957   7.996   4.381   3.307 -0.0252 -0.0664 -0.2243
 5275SOL    HW116958   8.071   4.413   3.357  0.2265  2.1674 -1.8719
 5275SOL    HW216959   8.032   4.361   3.221 -1.5138  3.1064 -1.7629
 5276SOL     OW16960   8.090   8.687   7.765 -0.2019  0.0805 -0.4373
 5276SOL    HW116961   8.143   8.608   7.769 -0.1269  0.0269 -2.0001
 5276SOL    HW216962   8.005   8.661   7.800  0.2351 -0.3018  0.3701
 5277SOL     OW16963   5.444   0.811   7.582  0.0785 -0.3296 -0.4092
 5277SOL    HW116964   5.380   0.773   7.642  0.5652 -0.8524 -0.2072
 5277SOL    HW216965   5.523   0.758   7.595  1.1804  1.4674  0.7602
 5278SOL     OW16966   4.844   5.443   7.128  0.0126  0.2342 -0.2164
 5278SOL    HW116967   4.859   5.511   7.062  0.1945  0.5556  0.1509
 5278SOL    HW216968   4.929   5.401   7.139  0.2719  0.9592  0.6610
 5279SOL     OW16969   6.397   4.679   7.692 -0.2215 -0.3352  0.4396
 5279SOL    HW116970   6.376   4.737   7.765  0.4437 -1.7974  1.8673
 5279SOL    HW216971   6.312   4.650   7.659 -0.5447 -0.4220  1.3065
 5280SOL     OW16972   5.420   2.872   8.966 -0.0948 -0.1811  0.1803
 5280SOL    HW116973   5.424   2.801   8.903 -0.2056 -0.4558  0.4799
 5280SOL    HW216974   5.395   2.949   8.915  0.1843 -0.3245 -0.1705
 5281SOL     OW16975   4.302   7.956   0.578 -0.6157 -0.7645 -0.0581
 5281SOL    HW116976   4.215   7.916   0.572 -0.4558 -0.9674 -1.2666
 5281SOL    HW216977   4.358   7.902   0.521 -0.2251  0.6854 -1.1143
 5282SOL     OW16978   4.047   8.147   7.315 -0.5066  0.0904 -0.8869
 5282SOL    HW116979   4.045   8.086   7.388  1.5189 -0.0386 -0.8784
 5282SOL    HW216980   4.005   8.100   7.243  1.6468 -1.6765 -1.0897
 5283SOL     OW16981   1.262   4.170   1.806 -0.1629  0.2475 -0.0266
 5283SOL    HW116982   1.169   4.150   1.798  0.0925 -0.6311 -0.9753
 5283SOL    HW216983   1.282   4.226   1.731 -0.0798  1.1218  0.6232
 5284SOL     OW16984   5.904   3.134   8.622 -0.0137 -0.0937  0.0292
 5284SOL    HW116985   5.851   3.055   8.632 -2.1492  1.3096  0.4909
 5284SOL    HW216986   5.982   3.116   8.674 -1.0956 -1.3639  1.3254
 5285SOL     OW16987   8.678   7.608   6.523  0.3307  0.3271 -0.4478
 5285SOL    HW116988   8.688   7.515   6.500  0.3121 -0.4506  2.3527
 5285SOL    HW216989   8.763   7.632   6.559 -0.3656  0.6909  1.0070
 5286SOL     OW16990   5.321   5.863   3.279  0.0315 -0.5450  0.1278
 5286SOL    HW116991   5.401   5.882   3.231  0.1754 -1.6118 -0.0692
 5286SOL    HW216992   5.320   5.927   3.351 -0.0046  0.8390 -1.0494
 5287SOL     OW16993   0.813   4.056   0.436 -0.8844  0.1684 -0.2073
 5287SOL    HW116994   0.800   4.033   0.344  0.2394 -0.4365 -0.2328
 5287SOL    HW216995   0.880   3.994   0.467 -0.7179  0.8378  0.8141
 5288SOL     OW16996   8.989   3.769   7.883 -0.0425 -0.2162 -0.2754
 5288SOL    HW116997   8.933   3.697   7.911 -1.2722  0.7825 -0.0665
 5288SOL    HW216998   8.928   3.839   7.858  1.0918  0.4351 -1.3587
 5289SOL     OW16999   2.111   9.073   2.104  0.4147  0.2902  0.0162
 5289SOL    HW117000   2.139   9.142   2.044 -0.2453  0.0028 -0.6341
 5289SOL    HW217001   2.075   9.005   2.048 -2.4438  1.0201  0.8326
 5290SOL     OW17002   2.713   6.965   6.938  0.8017  0.2089 -0.2176
 5290SOL    HW117003   2.789   7.022   6.921  0.3965  0.3162 -1.8183
 5290SOL    HW217004   2.747   6.876   6.929  0.5029  0.2538 -2.3524
 5291SOL     OW17005   1.872   0.777   6.845  0.5351 -0.0446 -0.4165
 5291SOL    HW117006   1.910   0.731   6.919 -1.3456 -0.0323  0.6201
 5291SOL    HW217007   1.865   0.711   6.776  1.6315 -0.2331 -0.3646
 5292SOL     OW17008   2.808   6.337   3.566 -0.6161 -0.2615 -0.1014
 5292SOL    HW117009   2.770   6.417   3.603 -1.0598 -0.5915  0.1614
 5292SOL    HW217010   2.874   6.311   3.630 -1.2401 -0.7164  0.3718
 5293SOL     OW17011   4.474   9.104   7.014 -0.1021 -0.1233 -0.2642
 5293SOL    HW117012   4.455   9.045   7.088  1.2666 -1.0943 -0.6673
 5293SOL    HW217013   4.441   9.058   6.937  2.1316 -1.0247 -0.7513
 5294SOL     OW17014   8.358   1.819   4.349  0.0118 -0.4495 -0.0574
 5294SOL    HW117015   8.384   1.879   4.418 -0.7827 -1.5695  1.2697
 5294SOL    HW217016   8.266   1.800   4.367 -0.4146 -0.2920 -1.8140
 5295SOL     OW17017   0.618   6.494   7.382 -0.0163 -0.4070  0.2813
 5295SOL    HW117018   0.632   6.583   7.415 -3.5428  1.0128 -1.5427
 5295SOL    HW217019   0.643   6.498   7.289  0.7083 -1.6666  0.3884
 5296SOL     OW17020   6.485   4.167   3.116  0.2715  0.0175 -0.3471
 5296SOL    HW117021   6.412   4.198   3.062  0.9987 -1.6693 -2.4151
 5296SOL    HW217022   6.457   4.081   3.147  0.9932 -0.2337 -0.3799
 5297SOL     OW17023   2.778   0.982   6.304 -0.2198  0.4359 -0.1161
 5297SOL    HW117024   2.761   1.050   6.370 -0.7498  0.2469 -0.0503
 5297SOL    HW217025   2.832   1.026   6.238  0.7640  0.4790  0.6950
 5298SOL     OW17026   5.679   0.508   7.047  0.0285 -0.1522  0.0456
 5298SOL    HW117027   5.691   0.581   6.987  1.3883  0.7549  1.3607
 5298SOL    HW217028   5.684   0.547   7.134 -3.3149 -1.1971  0.8545
 5299SOL     OW17029   4.030   4.708   2.109 -0.8052  0.0662 -0.3942
 5299SOL    HW117030   3.977   4.785   2.128  1.8174  1.4515  2.1014
 5299SOL    HW217031   4.096   4.739   2.046 -0.1577 -0.3229  0.0787
 5300SOL     OW17032   1.783   8.944   0.121 -0.4516 -0.2013 -0.6126
 5300SOL    HW117033   1.871   8.968   0.093 -0.9286  2.1636 -0.3460
 5300SOL    HW217034   1.783   8.849   0.122  1.4090 -0.3158 -2.7515
 5301SOL     OW17035   0.577   0.100   7.376 -0.2212 -0.2929 -0.2971
 5301SOL    HW117036   0.636   0.095   7.302  0.0217 -0.9808 -0.0664
 5301SOL    HW217037   0.593   0.186   7.415 -0.9733  0.4361 -1.5427
 5302SOL     OW17038   1.584   8.633   7.824  0.0028  0.7684 -0.1690
 5302SOL    HW117039   1.507   8.666   7.776  0.5675  1.2485 -0.7586
 5302SOL    HW217040   1.625   8.712   7.859  0.4708  0.5471 -0.2214
 5303SOL     OW17041   0.049   1.962   0.655 -0.0411  0.6176 -0.0042
 5303SOL    HW117042   0.106   1.916   0.593  1.5774  1.8866  0.4475
 5303SOL    HW217043   0.057   2.054   0.630 -1.6023  0.8669  0.3471
 5304SOL     OW17044   3.880   3.135   6.012  0.6432  0.1784 -0.3684
 5304SOL    HW117045   3.952   3.195   6.032  0.3800  0.8218 -1.2875
 5304SOL    HW217046   3.833   3.177   5.940 -0.7576 -0.1615  0.3212
 5305SOL     OW17047   5.792   7.475   4.878 -0.1693  0.5005 -0.7712
 5305SOL    HW117048   5.874   7.523   4.870 -0.1458  0.8434  1.2224
 5305SOL    HW217049   5.817   7.383   4.868  0.6538  0.5174  0.8354
 5306SOL     OW17050   5.409   7.530   7.191  0.1469  0.4759  0.5077
 5306SOL    HW117051   5.411   7.434   7.186  0.2960  0.3668  2.1232
 5306SOL    HW217052   5.499   7.554   7.213  0.1042  1.0020  0.1278
 5307SOL     OW17053   6.743   5.129   7.989  0.0824  0.4178  0.2676
 5307SOL    HW117054   6.821   5.098   8.036 -0.5801 -1.8072  0.0258
 5307SOL    HW217055   6.721   5.058   7.929 -1.8277  1.2181 -0.0698
 5308SOL     OW17056   2.156   5.895   2.700  0.4722  0.1316  0.6182
 5308SOL    HW117057   2.094   5.963   2.674 -0.8168 -0.5550  1.7683
 5308SOL    HW217058   2.204   5.876   2.620 -1.6710 -0.1915 -0.6943
 5309SOL     OW17059   7.799   6.410   2.700  0.0816  0.3509 -0.3349
 5309SOL    HW117060   7.772   6.320   2.679 -0.7487  1.1568 -3.2250
 5309SOL    HW217061   7.883   6.420   2.655  0.3600  0.9292  0.3050
 5310SOL     OW17062   4.045   7.383   2.607 -0.0862  0.5002 -0.0771
 5310SOL    HW117063   4.097   7.302   2.609  0.2077  0.6521  2.8710
 5310SOL    HW217064   3.957   7.353   2.583 -0.3042 -1.0015  2.2292
 5311SOL     OW17065   0.083   4.399   5.829  0.5030 -0.0099 -0.3394
 5311SOL    HW117066   0.094   4.405   5.734 -0.0958  1.1720 -0.3520
 5311SOL    HW217067  -0.010   4.379   5.841  0.3802  0.7332  0.0064
 5312SOL     OW17068   4.566   2.505   5.642  0.0649  0.4145 -0.1456
 5312SOL    HW117069   4.602   2.491   5.554  0.2524 -0.5528  0.0833
 5312SOL    HW217070   4.642   2.500   5.700  0.0310  1.6157  0.0401
 5313SOL     OW17071   8.924   5.454   0.156 -0.1756 -0.0947 -0.0975
 5313SOL    HW117072   9.003   5.506   0.166 -0.8925  0.7896  1.1875
 5313SOL    HW217073   8.881   5.489   0.077 -1.8470  2.9988  1.9923
 5314SOL     OW17074   2.034   5.421   8.376 -0.2067 -0.0289  0.0639
 5314SOL    HW117075   2.019   5.423   8.470  0.9546  2.5976  0.2616
 5314SOL    HW217076   2.128   5.438   8.365 -0.5132  0.8605 -1.5784
 5315SOL     OW17077   0.383   1.354   8.637 -0.3393  0.0790 -0.3229
 5315SOL    HW117078   0.429   1.401   8.568  0.3140 -0.4868 -0.2771
 5315SOL    HW217079   0.378   1.417   8.710  1.6829 -0.3230  0.2127
 5316SOL     OW17080   7.728   8.803   8.822  0.0204  0.2524 -0.1571
 5316SOL    HW117081   7.701   8.750   8.746  1.2499 -0.5771 -0.0375
 5316SOL    HW217082   7.823   8.793   8.826 -0.0468  0.0132  1.6960
 5317SOL     OW17083   0.131   6.687   2.607 -0.2214  0.0689  0.5903
 5317SOL    HW117084   0.152   6.608   2.657 -1.3683  0.0244  1.0535
 5317SOL    HW217085   0.121   6.657   2.517  0.2235 -0.1577  0.6161
 5318SOL     OW17086   1.168   9.091   2.160 -0.1461 -0.3247  0.3950
 5318SOL    HW117087   1.222   9.042   2.221  0.4397  0.2595  0.3498
 5318SOL    HW217088   1.229   9.147   2.112 -0.8438  0.8118  0.7823
 5319SOL     OW17089   3.044   2.135   1.572 -0.3173 -0.2756  0.4066
 5319SOL    HW117090   3.047   2.139   1.668 -0.1695  3.6937  0.3662
 5319SOL    HW217091   3.134   2.117   1.546 -0.1854 -0.4802  0.9816
 5320SOL     OW17092   3.367   2.726   9.104 -0.1615 -0.0305 -0.3981
 5320SOL    HW117093   3.375   2.822   9.104  2.8346 -0.1908 -0.2999
 5320SOL    HW217094   3.404   2.699   9.188 -2.1625 -1.2689  0.1517
 5321SOL     OW17095   9.036   6.790   0.624  0.0984  0.3421 -0.3640
 5321SOL    HW117096   9.060   6.862   0.682  1.8963  0.0348 -0.6791
 5321SOL    HW217097   9.059   6.711   0.672 -0.7781 -0.0052 -0.4921
 5322SOL     OW17098   5.372   5.206   5.167 -0.1640 -0.4461 -0.5922
 5322SOL    HW117099   5.341   5.296   5.156 -2.1873 -1.1092 -0.7737
 5322SOL    HW217100   5.343   5.161   5.088 -0.3878 -1.5590  0.0996
 5323SOL     OW17101   4.855   2.340   1.009 -0.5360  0.0582  0.0220
 5323SOL    HW117102   4.818   2.270   1.063 -1.6037  0.3517 -0.3147
 5323SOL    HW217103   4.860   2.416   1.067 -2.5694  0.6457 -0.4894
 5324SOL     OW17104   4.455   8.056   3.900 -0.4014 -0.8077 -0.1161
 5324SOL    HW117105   4.533   8.056   3.955 -0.9212  1.2441  0.7104
 5324SOL    HW217106   4.399   7.988   3.939  0.5245 -1.5643 -0.0771
 5325SOL     OW17107   5.647   0.650   3.581  0.2616 -0.4169 -0.1428
 5325SOL    HW117108   5.599   0.722   3.621 -1.0158 -1.2861 -0.0482
 5325SOL    HW217109   5.729   0.689   3.551 -0.1722  0.9448  0.3839
 5326SOL     OW17110   7.485   5.161   7.400 -0.3172  0.0943  0.6053
 5326SOL    HW117111   7.401   5.204   7.415 -1.2487 -1.4263 -0.0851
 5326SOL    HW217112   7.501   5.170   7.306  0.8160  1.2693  0.8897
 5327SOL     OW17113   0.547   8.727   0.009  0.4982 -0.2788  0.0657
 5327SOL    HW117114   0.617   8.674   0.047 -1.0235 -0.7875  2.3550
 5327SOL    HW217115   0.556   8.812   0.051 -0.4284 -0.4606  0.6791
 5328SOL     OW17116   8.560   1.125   1.330 -0.2896  0.6727  0.2133
 5328SOL    HW117117   8.624   1.175   1.380  0.0519  2.2953 -1.7392
 5328SOL    HW217118   8.493   1.188   1.305 -0.0122  0.1624 -2.0513
 5329SOL     OW17119   3.452   0.397   9.008 -0.7571  0.8419  0.2159
 5329SOL    HW117120   3.458   0.394   9.104 -0.0543 -1.5080  0.1611
 5329SOL    HW217121   3.514   0.331   8.978 -2.1555  0.3331 -1.7978
 5330SOL     OW17122   7.425   5.432   8.968 -0.4345  0.2262 -0.8320
 5330SOL    HW117123   7.373   5.512   8.981  1.9134  1.9223 -1.3113
 5330SOL    HW217124   7.431   5.423   8.873  1.6308  1.1751 -0.8494
 5331SOL     OW17125   0.285   6.931   8.838  0.3288  0.1708  0.2688
 5331SOL    HW117126   0.236   6.969   8.765 -0.4516 -1.5758 -0.1684
 5331SOL    HW217127   0.229   6.945   8.914 -0.2217 -0.5627  0.0134
 5332SOL     OW17128   0.823   1.328   8.468  0.6035 -0.1036  0.0609
 5332SOL    HW117129   0.773   1.250   8.493  1.0803 -1.0321 -1.7649
 5332SOL    HW217130   0.910   1.296   8.448  0.7066  0.8300 -1.1007
 5333SOL     OW17131   8.770   7.753   4.149  0.4201  0.4989 -0.2937
 5333SOL    HW117132   8.688   7.719   4.111 -0.1593  0.2611  1.1160
 5333SOL    HW217133   8.807   7.678   4.195  3.3158 -0.4817 -3.7405
 5334SOL     OW17134   5.464   5.529   1.145 -0.2834 -0.1933  0.3010
 5334SOL    HW117135   5.555   5.554   1.135  0.2400 -1.1172  2.2319
 5334SOL    HW217136   5.463   5.434   1.132 -0.7438 -0.3648  1.4732
 5335SOL     OW17137   2.155   1.210   0.829  0.8623  0.7294  0.6521
 5335SOL    HW117138   2.224   1.177   0.772  0.3880 -0.2872  0.6513
 5335SOL    HW217139   2.202   1.254   0.900  1.4701  1.5743 -0.2479
 5336SOL     OW17140   4.482   8.066   8.005 -0.1322  0.6119 -0.2487
 5336SOL    HW117141   4.540   8.011   7.953  1.7041 -0.0121  2.2596
 5336SOL    HW217142   4.419   8.005   8.043 -1.9711  1.1657 -2.2026
 5337SOL     OW17143   1.693   0.380   1.838 -0.0939 -0.3451  0.1986
 5337SOL    HW117144   1.685   0.402   1.931  0.1074  1.3141 -0.1427
 5337SOL    HW217145   1.650   0.452   1.792 -1.4044 -1.8012 -0.9955
 5338SOL     OW17146   6.505   6.509   2.962 -0.0743 -0.1073 -0.5398
 5338SOL    HW117147   6.550   6.428   2.940  0.7256 -0.0417  0.7912
 5338SOL    HW217148   6.529   6.569   2.891  0.2655 -0.6876 -0.9224
 5339SOL     OW17149   6.728   7.264   1.933 -0.1924  0.2401 -0.6046
 5339SOL    HW117150   6.772   7.223   1.858 -0.9571 -0.1966 -0.8198
 5339SOL    HW217151   6.714   7.192   1.995  1.4398  0.7834  0.4723
 5340SOL     OW17152   3.041   0.428   8.793 -0.8228  0.6498 -0.5548
 5340SOL    HW117153   3.032   0.501   8.732  0.8885  0.4486 -1.1013
 5340SOL    HW217154   3.010   0.352   8.744 -0.5607  0.6799 -0.7733
 5341SOL     OW17155   6.921   6.169   3.870 -0.2006 -0.0715  0.2772
 5341SOL    HW117156   6.903   6.232   3.801 -1.3583 -0.3443  0.3061
 5341SOL    HW217157   6.881   6.207   3.948 -2.0074 -1.3457  0.0549
 5342SOL     OW17158   5.992   3.583   7.275  0.2352 -0.2747  0.5672
 5342SOL    HW117159   5.995   3.489   7.292  0.7822 -0.4318 -0.3009
 5342SOL    HW217160   5.927   3.617   7.336  1.1365 -0.9712  1.9626
 5343SOL     OW17161   3.641   9.097   7.273 -0.1930  0.4365 -0.0459
 5343SOL    HW117162   3.718   9.114   7.326 -0.0852 -0.1249 -0.0156
 5343SOL    HW217163   3.644   9.162   7.203  0.1049  0.6527  0.1714
 5344SOL     OW17164   1.448   1.622   1.849 -0.2379 -0.1534  0.1967
 5344SOL    HW117165   1.433   1.717   1.855 -2.8919 -0.4836 -0.1166
 5344SOL    HW217166   1.421   1.599   1.760 -2.8136 -1.6144  1.2506
 5345SOL     OW17167   2.041   4.318   3.645  0.1162  0.5106 -0.1499
 5345SOL    HW117168   1.992   4.397   3.668 -2.2979 -0.4337 -1.7423
 5345SOL    HW217169   2.076   4.287   3.729 -2.5434  0.9268  1.2185
 5346SOL     OW17170   8.500   6.644   0.282  0.7557  0.2649  0.2651
 5346SOL    HW117171   8.548   6.568   0.313  0.9454  0.8458  1.4733
 5346SOL    HW217172   8.426   6.653   0.343 -0.8962 -0.5530 -1.4872
 5347SOL     OW17173   5.766   1.343   5.824 -0.0285  0.1454  0.0240
 5347SOL    HW117174   5.709   1.287   5.771 -0.6380  0.0546  0.7567
 5347SOL    HW217175   5.737   1.327   5.914 -0.0662  1.4700  0.2632
 5348SOL     OW17176   1.779   3.850   4.067  0.0598 -0.3435 -0.8303
 5348SOL    HW117177   1.801   3.943   4.070  2.3232 -0.8069  1.2540
 5348SOL    HW217178   1.712   3.842   4.000 -1.7984  3.0900  0.3708
 5349SOL     OW17179   6.891   2.781   7.809 -0.0599  0.5950  0.2036
 5349SOL    HW117180   6.951   2.844   7.768  1.4207 -1.3745 -0.8415
 5349SOL    HW217181   6.836   2.750   7.737  0.2181 -0.3652  0.3944
 5350SOL     OW17182   2.460   3.120   1.259 -0.0550 -0.4672  0.7196
 5350SOL    HW117183   2.441   3.135   1.352 -0.3843  2.7374  0.2443
 5350SOL    HW217184   2.517   3.192   1.234  0.4411 -1.5382 -1.4973
 5351SOL     OW17185   3.614   4.994   0.026 -0.1174 -0.8549  0.3432
 5351SOL    HW117186   3.546   5.040  -0.023  0.7246  0.8636  0.7129
 5351SOL    HW217187   3.696   5.038   0.002  0.4016 -0.2943  2.7722
 5352SOL     OW17188   0.153   1.160   6.473  0.1384  0.0084  0.3637
 5352SOL    HW117189   0.142   1.238   6.526 -1.4770 -0.6623  1.0783
 5352SOL    HW217190   0.215   1.106   6.521  1.5665  0.9651 -0.3252
 5353SOL     OW17191   2.376   5.613   4.254 -0.4632  0.5109 -0.1180
 5353SOL    HW117192   2.388   5.630   4.348  0.2860  0.2169 -0.1614
 5353SOL    HW217193   2.460   5.634   4.214 -1.1062  1.7394 -0.8936
 5354SOL     OW17194   2.079   1.383   5.887  0.1742  0.1978  0.5789
 5354SOL    HW117195   2.051   1.304   5.841  1.3152 -0.1340  0.4338
 5354SOL    HW217196   2.073   1.360   5.980  2.3569 -0.7789  0.5430
 5355SOL     OW17197   5.854   1.899   6.348 -0.0742  0.1575  0.4037
 5355SOL    HW117198   5.909   1.852   6.411  1.4571  0.9855 -0.2421
 5355SOL    HW217199   5.917   1.947   6.294 -1.3458 -0.4139 -1.6793
 5356SOL     OW17200   1.057   7.191   2.449  0.2135  0.0294 -0.0007
 5356SOL    HW117201   1.012   7.216   2.530 -0.7679  0.6370 -0.7237
 5356SOL    HW217202   1.096   7.105   2.470 -1.2720 -0.5279  0.6518
 5357SOL     OW17203   8.816   8.723   4.730 -0.1396  0.0015  0.0413
 5357SOL    HW117204   8.860   8.808   4.734  0.6246 -0.4218  1.1076
 5357SOL    HW217205   8.885   8.659   4.745 -0.7162 -0.8143 -0.6915
 5358SOL     OW17206   7.215   3.046   8.264 -0.3719 -0.2482 -0.6817
 5358SOL    HW117207   7.167   3.107   8.320  2.0609  0.0323  1.3056
 5358SOL    HW217208   7.281   3.099   8.220  0.4124 -1.0952 -0.5703
 5359SOL     OW17209   8.243   4.006   8.508 -0.0419 -0.4790 -0.7064
 5359SOL    HW117210   8.267   4.058   8.431  1.2436  0.6887  0.4291
 5359SOL    HW217211   8.150   4.024   8.521 -0.1862 -0.3921 -1.7435
 5360SOL     OW17212   1.944   5.297   6.298 -0.6770 -0.0530  0.2017
 5360SOL    HW117213   1.968   5.264   6.211 -0.7934 -0.9699  0.5115
 5360SOL    HW217214   1.950   5.393   6.289  0.0218 -0.1565 -0.6078
 5361SOL     OW17215   1.571   1.534   8.739  0.2783  0.0240  0.5436
 5361SOL    HW117216   1.579   1.629   8.751 -3.5869  0.4985  0.5171
 5361SOL    HW217217   1.603   1.497   8.822 -0.0072  1.4728  1.3366
 5362SOL     OW17218   5.290   1.058   3.658 -0.0340  0.2575 -0.2025
 5362SOL    HW117219   5.225   1.065   3.587 -0.4555 -1.8957 -0.1136
 5362SOL    HW217220   5.334   1.143   3.659 -1.6812  1.1941 -1.4169
 5363SOL     OW17221   5.808   8.790   9.028 -0.3457  0.0681  0.5080
 5363SOL    HW117222   5.792   8.757   9.116 -0.3423 -0.6503  0.2471
 5363SOL    HW217223   5.792   8.715   8.971 -2.3809  1.0358 -0.2910
 5364SOL     OW17224   1.443   2.450   5.467  0.3471 -0.3337  0.0316
 5364SOL    HW117225   1.417   2.383   5.530  0.6225 -0.7351 -0.2795
 5364SOL    HW217226   1.360   2.489   5.439  0.0200 -1.8173 -1.1783
 5365SOL     OW17227   8.320   4.362   5.815 -0.5815 -0.1870  0.1510
 5365SOL    HW117228   8.287   4.321   5.895 -2.1827  0.2437 -0.2514
 5365SOL    HW217229   8.321   4.292   5.750 -1.2313 -0.0818  0.0259
 5366SOL     OW17230   3.424   1.926   4.431  0.0009 -0.2888 -0.0191
 5366SOL    HW117231   3.416   2.017   4.457 -0.2908  0.1668 -1.5853
 5366SOL    HW217232   3.498   1.892   4.482  3.3243  2.1513 -2.7708
 5367SOL     OW17233   1.238   6.241   3.137  0.2394 -0.3059  0.4787
 5367SOL    HW117234   1.284   6.316   3.097  0.1922  0.0449  1.0716
 5367SOL    HW217235   1.267   6.166   3.086  0.3571  0.1041 -0.0751
 5368SOL     OW17236   6.584   7.700   2.489 -1.2104  0.7205 -0.1790
 5368SOL    HW117237   6.586   7.628   2.425  1.0904  1.0503 -0.5610
 5368SOL    HW217238   6.507   7.681   2.543  0.8244 -3.7862  1.6934
 5369SOL     OW17239   8.650   0.268   2.801  0.8154  0.0307 -0.4230
 5369SOL    HW117240   8.675   0.221   2.721  3.0525 -1.5465  1.1039
 5369SOL    HW217241   8.634   0.200   2.865  0.6743  1.3031  0.9448
 5370SOL     OW17242   8.069   3.488   2.775 -0.5765 -0.3318  0.1782
 5370SOL    HW117243   7.976   3.470   2.788 -0.6272  0.1309  0.4922
 5370SOL    HW217244   8.110   3.402   2.777 -1.0554 -0.5838 -0.4867
 5371SOL     OW17245   0.014   3.124   8.810 -0.4101  0.0673 -0.1986
 5371SOL    HW117246  -0.044   3.049   8.797 -1.2304  0.6482  0.0271
 5371SOL    HW217247   0.099   3.095   8.776 -0.6004 -1.1090  0.2843
 5372SOL     OW17248   0.576   3.312   0.304 -0.2721 -0.1670 -0.3062
 5372SOL    HW117249   0.650   3.347   0.353 -0.7202 -0.2271  0.4166
 5372SOL    HW217250   0.539   3.244   0.360 -1.2643  0.2970 -0.3744
 5373SOL     OW17251   4.788   3.604   1.134 -0.3516 -0.4144 -0.6630
 5373SOL    HW117252   4.765   3.659   1.059  0.8704  0.5891 -0.3402
 5373SOL    HW217253   4.825   3.525   1.094  1.5122  0.6457 -1.1915
 5374SOL     OW17254   4.526   7.384   9.070  0.4029  0.3810  0.0469
 5374SOL    HW117255   4.509   7.441   9.145 -1.1389 -0.0856  0.0832
 5374SOL    HW217256   4.593   7.323   9.100 -1.6815 -1.1836  1.8350
 5375SOL     OW17257   6.197   6.094   6.712  0.2729 -0.1768  0.3423
 5375SOL    HW117258   6.209   6.009   6.671 -2.3872 -0.8895  0.8605
 5375SOL    HW217259   6.185   6.155   6.639 -2.2155 -1.0615 -0.0904
 5376SOL     OW17260   3.660   6.341   0.217  0.2425 -0.1155  0.1789
 5376SOL    HW117261   3.664   6.283   0.140  1.6672 -0.8047  0.7401
 5376SOL    HW217262   3.581   6.313   0.263 -1.2396  1.0175 -1.5489
 5377SOL     OW17263   5.270   4.289   5.371  0.5364  0.1754 -0.5019
 5377SOL    HW117264   5.290   4.257   5.459  1.2116 -0.3815 -0.8437
 5377SOL    HW217265   5.346   4.263   5.319  0.5746  1.3493 -1.0472
 5378SOL     OW17266   1.956   6.525   0.792  0.3636 -0.7943 -0.0172
 5378SOL    HW117267   2.030   6.586   0.794  0.0260 -0.2694 -1.6378
 5378SOL    HW217268   1.947   6.494   0.882  0.9193  1.1137  0.7400
 5379SOL     OW17269   8.117   3.560   6.718  0.0434  0.1911 -0.3523
 5379SOL    HW117270   8.199   3.540   6.673 -1.2326 -3.1418 -1.4929
 5379SOL    HW217271   8.133   3.537   6.809  1.0354  1.9312 -0.0362
 5380SOL     OW17272   6.961   8.638   3.730  0.1198 -0.5831  0.3949
 5380SOL    HW117273   6.886   8.605   3.780  0.3586  2.3033  2.9826
 5380SOL    HW217274   7.038   8.607   3.778  0.4698 -0.3819 -0.0241
 5381SOL     OW17275   5.348   1.496   1.098 -0.1250 -0.5162  0.1719
 5381SOL    HW117276   5.278   1.444   1.059 -0.9779  1.1112 -0.6185
 5381SOL    HW217277   5.408   1.514   1.025  0.6572 -1.1456  0.6435
 5382SOL     OW17278   0.022   5.806   6.438 -0.4148 -0.1142 -0.6145
 5382SOL    HW117279   0.096   5.860   6.465 -0.5187 -0.4971  0.4969
 5382SOL    HW217280  -0.055   5.852   6.472 -0.5690 -0.4837 -0.4553
 5383SOL     OW17281   4.450   5.019   8.744 -0.4575  0.6133 -0.0206
 5383SOL    HW117282   4.382   4.966   8.703 -0.6087  0.6252  0.2090
 5383SOL    HW217283   4.440   5.001   8.838  0.2164  0.1799 -0.0228
 5384SOL     OW17284   2.472   0.084   6.310  0.4493  0.0481  0.1740
 5384SOL    HW117285   2.506   0.119   6.227 -3.0617  1.0362 -1.0556
 5384SOL    HW217286   2.449  -0.007   6.290 -0.6238  0.3561 -0.0886
 5385SOL     OW17287   2.199   1.206   0.163  0.1728  0.0853 -0.7130
 5385SOL    HW117288   2.190   1.292   0.120 -0.8114 -0.1237 -0.9608
 5385SOL    HW217289   2.118   1.196   0.213  0.2000 -0.7794 -0.8280
 5386SOL     OW17290   6.797   4.405   5.393  0.3132  0.0524  0.4309
 5386SOL    HW117291   6.848   4.347   5.450  2.9367 -0.5374 -2.2624
 5386SOL    HW217292   6.835   4.492   5.408  1.1753 -0.1458 -0.5564
 5387SOL     OW17293   1.900   3.011   0.263 -0.7119  0.1742 -0.4199
 5387SOL    HW117294   1.986   3.025   0.224 -0.4156 -0.4713 -0.0093
 5387SOL    HW217295   1.847   3.083   0.229 -0.1311  0.3308 -1.0208
 5388SOL     OW17296   4.742   7.953   7.559 -0.0321 -0.0930  0.5059
 5388SOL    HW117297   4.798   8.005   7.501 -1.2787  0.5990 -0.0978
 5388SOL    HW217298   4.655   7.991   7.550 -0.6173 -1.1435  1.4455
 5389SOL     OW17299   5.243   7.651   5.767  0.1219 -0.2800  0.9527
 5389SOL    HW117300   5.328   7.673   5.804 -0.2793  1.1163  1.0960
 5389SOL    HW217301   5.183   7.716   5.803 -0.6647 -0.1054 -0.5666
 5390SOL     OW17302   6.520   2.976   4.890  0.2911 -0.2810  0.0706
 5390SOL    HW117303   6.615   2.988   4.899  0.3839 -0.2499 -0.9369
 5390SOL    HW217304   6.491   2.955   4.979  1.2618 -0.4300  0.3668
 5391SOL     OW17305   0.772   7.597   8.626 -0.0789  0.8266 -0.0064
 5391SOL    HW117306   0.859   7.568   8.596 -0.5233  0.3582 -0.9085
 5391SOL    HW217307   0.736   7.644   8.551 -1.1346 -0.1659 -0.1562
 5392SOL     OW17308   6.131   0.281   0.193 -0.4024 -0.2409 -0.0881
 5392SOL    HW117309   6.099   0.356   0.243  0.5684 -0.4070  0.8196
 5392SOL    HW217310   6.074   0.277   0.117  0.5418  2.4652 -1.0657
 5393SOL     OW17311   5.858   0.793   3.508 -0.3538  0.4284  0.1364
 5393SOL    HW117312   5.947   0.810   3.539 -0.7779  0.5178  1.3486
 5393SOL    HW217313   5.849   0.850   3.432  0.9165 -0.2258 -0.5390
 5394SOL     OW17314   6.576   8.093   2.418  0.5318 -0.1985 -0.1936
 5394SOL    HW117315   6.618   8.135   2.343  1.3321 -0.2129  0.2316
 5394SOL    HW217316   6.502   8.150   2.439  1.7613  1.1981  0.5563
 5395SOL     OW17317   7.331   5.992   4.441  0.1523 -0.9479 -0.4718
 5395SOL    HW117318   7.310   6.028   4.355  0.0884  0.6643  0.1924
 5395SOL    HW217319   7.247   5.978   4.483  0.1937 -1.4305 -0.5452
 5396SOL     OW17320   0.727   3.707   6.985  0.1569  0.2938 -0.5804
 5396SOL    HW117321   0.740   3.613   6.974 -0.9726  0.1352 -0.6975
 5396SOL    HW217322   0.691   3.736   6.901  0.1614  0.7608 -0.4253
 5397SOL     OW17323   5.418   8.212   1.718 -0.3028 -0.3690  0.1509
 5397SOL    HW117324   5.478   8.248   1.653  1.8235 -1.1449  1.6073
 5397SOL    HW217325   5.359   8.284   1.738  0.0630  0.4073 -1.3512
 5398SOL     OW17326   3.692   4.760   2.715  0.3974  0.0198  0.1392
 5398SOL    HW117327   3.788   4.757   2.719  0.4396 -1.6628 -1.1210
 5398SOL    HW217328   3.673   4.808   2.635  0.1350  1.3461  0.9648
 5399SOL     OW17329   5.391   5.644   3.505  0.1225 -0.5855  0.3552
 5399SOL    HW117330   5.336   5.702   3.453  0.9466  0.3379  0.4747
 5399SOL    HW217331   5.477   5.650   3.464 -0.2236 -3.5168 -1.0428
 5400SOL     OW17332   8.325   0.452   3.411 -0.2022  0.8270  0.0509
 5400SOL    HW117333   8.366   0.468   3.496  0.3277  1.1430 -0.2593
 5400SOL    HW217334   8.373   0.508   3.350  0.7491 -0.8382 -0.8149
 5401SOL     OW17335   7.627   4.821   3.256  0.0627 -0.1544 -0.1024
 5401SOL    HW117336   7.632   4.895   3.316  0.2740  0.4444 -0.8428
 5401SOL    HW217337   7.540   4.785   3.269  0.1040 -0.0266  0.5512
 5402SOL     OW17338   0.662   7.087   5.781  0.2168 -0.0843  0.4894
 5402SOL    HW117339   0.674   7.056   5.691  0.7660 -1.5564  1.0405
 5402SOL    HW217340   0.706   7.172   5.783  2.5773 -1.2224  0.0288
 5403SOL     OW17341   7.699   8.576   1.007  0.5623  0.1375  0.3173
 5403SOL    HW117342   7.732   8.570   1.097 -1.8027 -1.1068  1.1857
 5403SOL    HW217343   7.651   8.495   0.994  0.7662  0.3484 -2.0746
 5404SOL     OW17344   2.325   9.089   5.325 -0.0688 -0.2718  0.3781
 5404SOL    HW117345   2.323   9.106   5.419  2.1766  0.1446  0.4141
 5404SOL    HW217346   2.369   9.166   5.287 -0.5678 -0.6108 -0.9591
 5405SOL     OW17347   7.456   3.770   1.285  0.5698  0.0595  0.0964
 5405SOL    HW117348   7.541   3.815   1.287  0.7721 -0.3494  0.9322
 5405SOL    HW217349   7.420   3.784   1.373  0.4311 -1.0296  0.2157
 5406SOL     OW17350   0.055   6.367   4.413  0.3472 -0.1970 -0.0352
 5406SOL    HW117351   0.032   6.309   4.486  0.6523  0.4581  0.5961
 5406SOL    HW217352   0.132   6.327   4.374 -0.6461 -1.3323 -0.9203
 5407SOL     OW17353   0.627   1.165   7.225 -0.6876  0.9345  0.5075
 5407SOL    HW117354   0.702   1.105   7.228 -0.2408  1.4306 -0.4432
 5407SOL    HW217355   0.647   1.230   7.292  0.5933  2.0190 -0.8548
 5408SOL     OW17356   7.911   1.253   3.006  0.1982  0.7511  0.0792
 5408SOL    HW117357   7.855   1.177   3.024 -0.1537  1.0678  0.3365
 5408SOL    HW217358   7.894   1.313   3.078  0.4585  1.0852 -0.1341
 5409SOL     OW17359   5.037   6.858   6.165 -0.0786 -0.0398 -0.0190
 5409SOL    HW117360   5.074   6.944   6.142 -0.7583  0.6097  1.1935
 5409SOL    HW217361   4.991   6.830   6.086 -0.4253  1.0420 -0.2213
 5410SOL     OW17362   3.216   0.195   3.042 -0.0703 -0.2647 -0.1918
 5410SOL    HW117363   3.184   0.114   3.001 -1.6935 -0.2819  1.0067
 5410SOL    HW217364   3.303   0.172   3.074 -0.0073 -1.1527 -0.9361
 5411SOL     OW17365   8.485   5.089   4.309 -0.6428  0.2632 -0.0725
 5411SOL    HW117366   8.556   5.143   4.276  1.2460 -0.5484  2.2898
 5411SOL    HW217367   8.444   5.051   4.231  1.4131  0.9194 -1.5424
 5412SOL     OW17368   0.541   4.502   8.301 -0.0068 -0.0664  0.1778
 5412SOL    HW117369   0.611   4.477   8.241 -1.0145 -2.3227 -0.1757
 5412SOL    HW217370   0.488   4.565   8.251  1.7592  1.7726  0.5006
 5413SOL     OW17371   6.230   7.868   2.565 -0.4271  0.6985 -0.0664
 5413SOL    HW117372   6.306   7.854   2.621 -1.6478  0.0816  1.5113
 5413SOL    HW217373   6.155   7.861   2.624 -1.9388 -1.9790 -2.0868
 5414SOL     OW17374   6.292   8.612   2.765 -0.7531 -0.2176  0.0687
 5414SOL    HW117375   6.213   8.560   2.778 -0.4107 -0.8859 -0.4765
 5414SOL    HW217376   6.352   8.581   2.832 -1.2973  1.0496  1.2048
 5415SOL     OW17377   5.128   3.313   8.520 -0.3269 -0.4570 -0.2718
 5415SOL    HW117378   5.193   3.250   8.487 -0.7427 -1.1623  0.2272
 5415SOL    HW217379   5.121   3.378   8.450  0.7018 -0.5244 -0.4545
 5416SOL     OW17380   7.565   6.549   8.777  0.2446  0.1749  0.0786
 5416SOL    HW117381   7.603   6.626   8.820  1.5033 -0.8876  0.9360
 5416SOL    HW217382   7.612   6.475   8.814 -0.3777 -0.9739 -1.3223
 5417SOL     OW17383   1.534   6.938   8.793 -0.0881  0.3586  0.0163
 5417SOL    HW117384   1.567   6.970   8.877  3.6688 -0.5818 -0.9043
 5417SOL    HW217385   1.526   7.016   8.739  1.4415  0.6124  0.1096
 5418SOL     OW17386   5.435   5.690   5.114  0.6766 -0.0677  0.2182
 5418SOL    HW117387   5.411   5.753   5.181 -0.6031 -1.4928  1.1668
 5418SOL    HW217388   5.466   5.743   5.041 -0.4561  1.6462  0.9232
 5419SOL     OW17389   2.125   0.918   0.330  0.2370 -0.0470 -0.1970
 5419SOL    HW117390   2.058   0.895   0.266 -1.7240  0.2746  1.6301
 5419SOL    HW217391   2.126   1.013   0.330  0.7484 -0.0493 -0.2397
 5420SOL     OW17392   6.277   2.226   7.105  0.1503 -0.0420  0.0526
 5420SOL    HW117393   6.270   2.163   7.033  0.0018  0.8212 -0.7021
 5420SOL    HW217394   6.202   2.284   7.093  0.4720  0.4789  0.5405
 5421SOL     OW17395   1.738   8.718   1.510  0.1527 -0.2267 -0.6822
 5421SOL    HW117396   1.800   8.760   1.451  1.6862 -0.3628  0.7532
 5421SOL    HW217397   1.731   8.628   1.477  0.3534 -0.0815 -1.1358
 5422SOL     OW17398   6.708   1.711   0.835 -0.5292  0.3583  0.1512
 5422SOL    HW117399   6.794   1.744   0.807 -0.8998  0.7771 -0.5098
 5422SOL    HW217400   6.727   1.623   0.867  0.2229  0.6208  0.4559
 5423SOL     OW17401   1.817   8.187   5.674  0.1271 -0.3379 -0.0500
 5423SOL    HW117402   1.859   8.252   5.617 -0.1292 -0.3334 -0.2402
 5423SOL    HW217403   1.862   8.195   5.758  0.2192 -0.0398 -0.1266
 5424SOL     OW17404   3.966   6.218   4.490 -0.1306  0.7511 -0.3691
 5424SOL    HW117405   3.947   6.178   4.405  0.7329  2.9982 -1.7023
 5424SOL    HW217406   4.056   6.251   4.481 -0.4014  1.9626  1.0438
 5425SOL     OW17407   2.003   5.457   3.386  0.6200  0.2486 -0.5285
 5425SOL    HW117408   1.929   5.485   3.333  0.2233 -1.1307 -0.7116
 5425SOL    HW217409   2.075   5.515   3.359  0.1838  0.1619 -1.9067
 5426SOL     OW17410   5.164   7.241   2.461  0.3898  0.1242  0.0000
 5426SOL    HW117411   5.186   7.331   2.439 -1.4861  0.6017 -0.0962
 5426SOL    HW217412   5.180   7.192   2.380  1.0917  0.4145 -0.0461
 5427SOL     OW17413   4.903   2.826   0.853  0.0463 -0.0595  0.1371
 5427SOL    HW117414   4.932   2.751   0.801  1.9210  1.2809 -0.8854
 5427SOL    HW217415   4.894   2.897   0.790 -0.5980  0.8649  1.2354
 5428SOL     OW17416   1.445   8.213   6.993  0.1330 -0.4058  0.5255
 5428SOL    HW117417   1.368   8.245   7.040 -0.0286 -0.7921  0.5313
 5428SOL    HW217418   1.513   8.206   7.059  0.3482  0.4993  0.4104
 5429SOL     OW17419   1.071   3.496   6.605 -0.0136  0.4973  0.2232
 5429SOL    HW117420   1.044   3.436   6.675  1.7705 -0.0638  0.4842
 5429SOL    HW217421   1.062   3.583   6.643 -0.2912  0.2580  0.7146
 5430SOL     OW17422   2.653   3.479   0.227  0.1291  0.0877 -0.4331
 5430SOL    HW117423   2.702   3.561   0.222 -0.5078  0.6358  1.4425
 5430SOL    HW217424   2.581   3.490   0.165  1.4492 -0.1202 -2.0877
 5431SOL     OW17425   0.280   8.731   2.961  0.0761 -0.0401  0.0766
 5431SOL    HW117426   0.335   8.792   2.913  1.5243 -2.3420 -1.3943
 5431SOL    HW217427   0.326   8.647   2.955 -2.0435 -1.4200  1.5319
 5432SOL     OW17428   4.069   0.801   1.138  0.4251  0.0864  0.0328
 5432SOL    HW117429   4.149   0.855   1.136 -0.6815  1.8268 -2.3244
 5432SOL    HW217430   4.091   0.729   1.196  2.5134  2.3145  2.2848
 5433SOL     OW17431   8.381   8.181   7.362  0.3066 -0.4071 -0.0153
 5433SOL    HW117432   8.386   8.137   7.447 -0.6369 -0.8794 -0.1992
 5433SOL    HW217433   8.473   8.201   7.341  1.0696 -4.1988 -0.9498
 5434SOL     OW17434   3.850   7.726   5.611 -0.6353 -0.5033 -0.3659
 5434SOL    HW117435   3.855   7.820   5.592 -1.1649 -0.2488  0.6911
 5434SOL    HW217436   3.927   7.689   5.567  1.6546  0.9527  2.1159
 5435SOL     OW17437   7.858   9.097   3.115 -0.1262 -0.8586  0.4365
 5435SOL    HW117438   7.783   9.084   3.057 -0.7414 -0.4226  1.1209
 5435SOL    HW217439   7.839   9.178   3.161  0.7507 -0.7712  0.6518
 5436SOL     OW17440   3.866   8.989   0.575 -0.5734 -0.3403  0.1567
 5436SOL    HW117441   3.942   8.945   0.613 -0.0749  0.6719  0.3675
 5436SOL    HW217442   3.874   9.080   0.603 -1.1132  0.0807 -0.9927
 5437SOL     OW17443   3.523   2.749   3.298  0.1661 -0.3427 -0.6330
 5437SOL    HW117444   3.525   2.801   3.379  2.7270 -0.0976 -0.7555
 5437SOL    HW217445   3.519   2.814   3.228 -0.8310 -0.5141 -0.7533
 5438SOL     OW17446   8.995   1.427   3.124 -0.3547  0.4311  0.2112
 5438SOL    HW117447   9.089   1.427   3.102  0.1713  0.6526  2.2419
 5438SOL    HW217448   8.974   1.519   3.139 -0.6522  0.2882  0.6822
 5439SOL     OW17449   4.115   7.785   3.757  0.3286  0.3805 -0.1507
 5439SOL    HW117450   4.095   7.879   3.755  2.4861  0.9211  0.9832
 5439SOL    HW217451   4.181   7.773   3.689 -0.4578 -0.5008 -0.7924
 5440SOL     OW17452   5.547   2.146   7.844  0.6348  0.1197  0.1235
 5440SOL    HW117453   5.468   2.106   7.809  0.5926  0.7629 -0.5487
 5440SOL    HW217454   5.519   2.234   7.870  0.9129  0.0177  0.7792
 5441SOL     OW17455   7.640   1.008   7.605  0.0429 -1.0338 -0.7539
 5441SOL    HW117456   7.651   0.920   7.640  2.2580 -0.5468 -0.0311
 5441SOL    HW217457   7.628   0.997   7.511  1.3936 -2.0913 -0.8294
 5442SOL     OW17458   3.293   1.430   8.409  0.3149  0.3239 -0.6369
 5442SOL    HW117459   3.319   1.371   8.480  0.0605  0.1368 -0.6967
 5442SOL    HW217460   3.304   1.378   8.329  2.4017  1.1235 -0.9323
 5443SOL     OW17461   4.189   5.794   2.979 -0.4421  0.3482  0.5039
 5443SOL    HW117462   4.257   5.729   2.996  0.0909  0.7737  0.0091
 5443SOL    HW217463   4.107   5.749   3.002  0.0665  0.2139  2.2275
 5444SOL     OW17464   6.710   0.302   0.927  0.7927 -0.1793  0.1459
 5444SOL    HW117465   6.655   0.259   0.862  1.2972 -0.8030  0.1166
 5444SOL    HW217466   6.701   0.247   1.006 -0.3872  0.9690  0.8483
 5445SOL     OW17467   2.946   7.046   6.306  0.5472 -0.2604  0.0396
 5445SOL    HW117468   2.893   6.981   6.259 -0.2561 -0.9141  1.7776
 5445SOL    HW217469   2.988   7.097   6.237 -0.0797 -1.5905 -1.3761
 5446SOL     OW17470   4.675   3.738   7.251 -0.0877 -0.2552  0.3961
 5446SOL    HW117471   4.593   3.772   7.287 -0.6635  0.4029 -1.4104
 5446SOL    HW217472   4.647   3.675   7.184  0.9102 -1.0315  0.6961
 5447SOL     OW17473   6.456   1.385   5.735 -0.2830  0.0596  0.2103
 5447SOL    HW117474   6.362   1.402   5.740 -0.2506  0.0714  0.9728
 5447SOL    HW217475   6.481   1.368   5.826  0.5365  0.4917  0.0698
 5448SOL     OW17476   2.093   7.029   8.443 -0.3595  0.6216  0.2726
 5448SOL    HW117477   2.140   7.058   8.365 -0.3390 -0.3630 -0.0885
 5448SOL    HW217478   2.113   6.936   8.451 -1.1405  0.4929  0.9057
 5449SOL     OW17479   4.635   6.818   8.048  0.2999  0.1163  0.6227
 5449SOL    HW117480   4.694   6.849   8.117  0.6664  1.5763 -0.2964
 5449SOL    HW217481   4.594   6.897   8.015  0.7676 -0.4293 -1.4023
 5450SOL     OW17482   7.904   5.031   7.423  0.0246 -0.2467  0.1487
 5450SOL    HW117483   7.915   5.126   7.419 -1.7090  0.0366  1.1127
 5450SOL    HW217484   7.908   5.003   7.332  0.9331  0.6818 -0.1278
 5451SOL     OW17485   9.048   4.600   2.904 -0.0567 -0.2776 -0.1442
 5451SOL    HW117486   8.968   4.584   2.956  0.0695  0.0527  0.1562
 5451SOL    HW217487   9.087   4.514   2.894  0.0813 -0.3056  0.5867
 5452SOL     OW17488   6.261   8.838   7.296 -0.3048 -0.1824  0.4014
 5452SOL    HW117489   6.197   8.904   7.268 -0.0401  0.5862  1.5344
 5452SOL    HW217490   6.249   8.832   7.391  1.9606  0.7378  0.8255
 5453SOL     OW17491   7.963   7.192   3.064  0.0157 -0.2174 -0.2878
 5453SOL    HW117492   7.968   7.287   3.054 -2.4501  0.0745  0.4519
 5453SOL    HW217493   8.053   7.164   3.076  0.7195  2.1665  0.5045
 5454SOL     OW17494   5.120   4.883   5.907  0.2642 -0.5616  0.4577
 5454SOL    HW117495   5.036   4.853   5.941 -0.5397 -0.4112 -1.2942
 5454SOL    HW217496   5.177   4.806   5.911 -0.1756 -0.8700  0.9297
 5455SOL     OW17497   3.547   0.562   5.174  0.2649 -0.1293  0.3843
 5455SOL    HW117498   3.602   0.485   5.157  0.2328  0.0545 -0.5942
 5455SOL    HW217499   3.458   0.526   5.181  0.4509 -0.3837  1.6252
 5456SOL     OW17500   6.011   2.414   0.236  0.2585 -0.3371 -0.2830
 5456SOL    HW117501   6.004   2.443   0.145 -0.6316  0.7998  0.1325
 5456SOL    HW217502   6.094   2.366   0.239  1.8968  2.2641 -0.9966
 5457SOL     OW17503   7.745   7.179   0.849 -0.6339 -0.0145  0.2137
 5457SOL    HW117504   7.667   7.195   0.797 -0.6652 -0.1199  0.2271
 5457SOL    HW217505   7.803   7.252   0.830 -0.2765 -0.5152 -0.6629
 5458SOL     OW17506   0.879   6.369   2.737 -0.0572 -0.3901 -0.2642
 5458SOL    HW117507   0.874   6.320   2.819  2.0518 -0.1876  0.0443
 5458SOL    HW217508   0.904   6.304   2.672  0.6375 -0.1251 -0.2689
 5459SOL     OW17509   4.143   4.504   7.917  0.8933 -0.3147 -0.0481
 5459SOL    HW117510   4.144   4.566   7.844  0.4221 -0.7220 -0.4078
 5459SOL    HW217511   4.234   4.498   7.944  1.2582 -1.0392 -1.3557
 5460SOL     OW17512   3.593   0.951   0.097  0.3508 -0.3808  0.2107
 5460SOL    HW117513   3.591   1.046   0.092  1.8605 -0.2036  1.9561
 5460SOL    HW217514   3.681   0.927   0.070  0.1691 -1.2456  0.3460
 5461SOL     OW17515   2.852   5.025   0.088  0.1452  1.0076  0.5351
 5461SOL    HW117516   2.805   4.970   0.025  0.2229  1.3138  0.2092
 5461SOL    HW217517   2.815   5.112   0.076  1.1722  1.3641 -0.1112
 5462SOL     OW17518   4.968   2.554   3.100  0.6715  1.1169  0.3627
 5462SOL    HW117519   4.891   2.590   3.057  0.1472 -1.5526 -1.1396
 5462SOL    HW217520   5.040   2.611   3.071 -0.2345  1.6223 -0.9948
 5463SOL     OW17521   8.018   0.757   7.113 -0.4737  0.1902  0.6848
 5463SOL    HW117522   8.032   0.708   7.194  2.7681  1.1401  0.8259
 5463SOL    HW217523   8.000   0.846   7.141  2.2283  0.8904  0.4953
 5464SOL     OW17524   8.361   3.562   0.995  0.7129  0.7760 -0.3783
 5464SOL    HW117525   8.353   3.528   1.085 -2.0757 -1.5814 -1.3675
 5464SOL    HW217526   8.271   3.581   0.969  1.3396  0.4053 -3.0336
 5465SOL     OW17527   2.505   0.339   2.129 -0.1574 -0.2249 -0.7112
 5465SOL    HW117528   2.482   0.381   2.212 -2.2420  0.5308 -1.5986
 5465SOL    HW217529   2.506   0.246   2.148  0.6011  0.0059  0.4247
 5466SOL     OW17530   6.927   8.773   8.670  0.5635 -0.0442  0.2086
 5466SOL    HW117531   6.958   8.814   8.751 -0.0293  0.0899  0.3719
 5466SOL    HW217532   6.997   8.713   8.645 -0.0734 -1.5603  1.8833
 5467SOL     OW17533   6.971   6.114   2.261  0.6333  0.2521  0.2845
 5467SOL    HW117534   6.971   6.189   2.320  0.8740  0.2083  0.3426
 5467SOL    HW217535   6.981   6.038   2.319 -0.3353  0.1132  0.2978
 5468SOL     OW17536   4.395   5.083   2.504 -0.5674  0.1336 -0.6275
 5468SOL    HW117537   4.319   5.135   2.477 -0.9496  0.2827  0.6917
 5468SOL    HW217538   4.358   5.004   2.543 -0.2986  1.8097  3.5143
 5469SOL     OW17539   4.445   5.164   8.351  0.1305 -0.2521 -0.4928
 5469SOL    HW117540   4.502   5.232   8.313  0.6470  0.8351  2.0019
 5469SOL    HW217541   4.488   5.142   8.433 -2.2436 -0.5679  0.7195
 5470SOL     OW17542   8.386   4.154   1.850  0.4307 -0.0392  0.9385
 5470SOL    HW117543   8.417   4.073   1.810 -2.3620 -0.1257 -1.3351
 5470SOL    HW217544   8.462   4.212   1.846  1.2777 -1.1669 -1.4703
 5471SOL     OW17545   5.353   2.897   3.247 -0.0008 -0.0126 -0.0411
 5471SOL    HW117546   5.356   2.977   3.195 -0.4512 -0.9094 -1.5196
 5471SOL    HW217547   5.388   2.922   3.332  1.4425  1.3678 -0.9818
 5472SOL     OW17548   4.023   5.275   3.343  0.3059 -0.3749 -0.6623
 5472SOL    HW117549   4.032   5.360   3.300  0.1849 -1.4879 -3.0206
 5472SOL    HW217550   4.112   5.241   3.347  0.6643  0.6112  2.1173
 5473SOL     OW17551   6.119   0.899   3.601 -0.3628 -0.5520 -0.2154
 5473SOL    HW117552   6.169   0.827   3.640  1.7335  1.2771  0.7050
 5473SOL    HW217553   6.107   0.962   3.672 -2.0945  0.0877 -0.9979
 5474SOL     OW17554   2.908   6.850   8.921  0.5063  0.0891  0.2734
 5474SOL    HW117555   2.874   6.915   8.982  1.4887 -0.7910  1.8355
 5474SOL    HW217556   2.920   6.771   8.975  1.8027 -0.6077 -0.9640
 5475SOL     OW17557   0.071   8.634   7.247 -0.2356 -0.4971 -0.3723
 5475SOL    HW117558   0.165   8.626   7.235  0.0310  1.2770  0.2378
 5475SOL    HW217559   0.060   8.664   7.337 -1.3577 -0.4910 -0.4901
 5476SOL     OW17560   5.222   5.237   8.365  0.1089 -0.3879  0.5250
 5476SOL    HW117561   5.170   5.270   8.292  0.6819  0.7617  0.6234
 5476SOL    HW217562   5.220   5.142   8.354  0.3023 -0.2292 -1.0714
 5477SOL     OW17563   8.150   6.995   3.621  0.4025 -0.3896  0.0887
 5477SOL    HW117564   8.124   6.964   3.534  0.9492 -0.1142 -0.1794
 5477SOL    HW217565   8.246   6.986   3.621  0.4676  0.3274  0.3837
 5478SOL     OW17566   2.437   0.528   0.654  0.3374  0.0621 -0.2284
 5478SOL    HW117567   2.371   0.502   0.718  1.2955 -3.9104 -0.6110
 5478SOL    HW217568   2.510   0.560   0.707  0.5916 -1.8642  0.6546
 5479SOL     OW17569   5.427   2.464   3.217  0.2601  0.1706  0.2668
 5479SOL    HW117570   5.369   2.471   3.292 -0.6004  1.4766 -0.4806
 5479SOL    HW217571   5.383   2.514   3.148  0.5441 -1.7626 -1.4152
 5480SOL     OW17572   1.401   6.390   0.522  0.2359 -0.2842 -0.2564
 5480SOL    HW117573   1.316   6.388   0.566  1.3395  0.5441  2.1150
 5480SOL    HW217574   1.389   6.448   0.448 -1.0804  0.4903  0.5269
 5481SOL     OW17575   0.028   5.030   6.149  0.2264  0.2086 -0.5315
 5481SOL    HW117576   0.097   4.972   6.182  0.2498  1.1426  1.1682
 5481SOL    HW217577  -0.045   4.972   6.129  1.4846 -0.8197 -2.4624
 5482SOL     OW17578   5.194   1.573   8.767 -0.4238  0.0019 -0.5512
 5482SOL    HW117579   5.209   1.659   8.728 -0.3490  0.6689  0.8778
 5482SOL    HW217580   5.275   1.554   8.816 -0.4286 -0.9018 -0.8695
 5483SOL     OW17581   0.892   0.713   2.393 -0.7101  0.4431  0.0607
 5483SOL    HW117582   0.895   0.806   2.416 -0.6008  0.4740 -0.0848
 5483SOL    HW217583   0.982   0.683   2.400 -0.5015  0.6876 -1.3284
 5484SOL     OW17584   2.419   3.392   3.728  0.2628 -0.2597 -0.1810
 5484SOL    HW117585   2.504   3.362   3.761  0.9525 -1.3871 -2.7205
 5484SOL    HW217586   2.368   3.312   3.716 -1.2608  0.4049  1.3259
 5485SOL     OW17587   7.829   5.831   5.231 -0.5604 -0.4470 -0.1465
 5485SOL    HW117588   7.782   5.896   5.178 -1.3903  0.1706  1.3044
 5485SOL    HW217589   7.870   5.774   5.166  0.8337  1.9225 -1.4923
 5486SOL     OW17590   7.115   1.946   3.559 -0.1141  0.1393 -0.6333
 5486SOL    HW117591   7.144   2.014   3.620  0.2694 -0.1288 -0.5132
 5486SOL    HW217592   7.023   1.931   3.582  0.4859 -1.2722  1.1426
 5487SOL     OW17593   7.622   6.300   1.219 -0.1521 -0.1937 -0.0462
 5487SOL    HW117594   7.546   6.270   1.268 -0.4047  0.5383  0.0191
 5487SOL    HW217595   7.695   6.247   1.252 -0.5599 -0.6393  0.1492
 5488SOL     OW17596   7.293   6.339   2.723  0.2483 -0.0734 -0.1727
 5488SOL    HW117597   7.355   6.405   2.754 -1.9074  1.9933  0.0384
 5488SOL    HW217598   7.276   6.285   2.800 -0.0367  0.8626  0.4380
 5489SOL     OW17599   4.053   2.802   0.834 -0.3296 -0.0909 -0.7740
 5489SOL    HW117600   3.970   2.769   0.867 -0.4446 -0.4283 -1.3783
 5489SOL    HW217601   4.034   2.891   0.805  0.4794  1.4527  2.9094
 5490SOL     OW17602   8.437   0.162   5.078  0.2880  0.0489 -0.0574
 5490SOL    HW117603   8.483   0.237   5.042  0.7713  0.0779  0.5902
 5490SOL    HW217604   8.495   0.087   5.060  1.2556  0.2675  1.8989
 5491SOL     OW17605   7.961   5.035   1.614 -0.1386 -0.0062  0.2823
 5491SOL    HW117606   7.971   4.963   1.552 -2.3335 -0.0011 -0.1324
 5491SOL    HW217607   8.051   5.062   1.633  0.6621 -1.5285 -1.0858
 5492SOL     OW17608   7.324   2.048   6.793  0.5554 -0.1081 -0.1808
 5492SOL    HW117609   7.269   2.106   6.741 -0.2766  0.3242  1.1320
 5492SOL    HW217610   7.264   1.981   6.827  0.9574 -0.0720  0.6376
 5493SOL     OW17611   7.581   1.575   0.700 -0.1418  0.3008  0.3889
 5493SOL    HW117612   7.507   1.515   0.691 -0.1306  0.2387  0.7036
 5493SOL    HW217613   7.632   1.539   0.772  0.5613 -0.0476 -0.2630
 5494SOL     OW17614   8.904   4.714   8.969  0.5101 -0.4916 -0.4246
 5494SOL    HW117615   8.868   4.792   9.010  0.6320 -0.7901  0.2586
 5494SOL    HW217616   8.998   4.719   8.986  0.4180 -1.2172  0.3861
 5495SOL     OW17617   8.528   0.589   7.590 -0.2803 -0.1377  0.4377
 5495SOL    HW117618   8.617   0.619   7.573 -0.3790  0.0329  0.2012
 5495SOL    HW217619   8.521   0.505   7.545  0.1898 -0.8265  1.6139
 5496SOL     OW17620   8.985   6.979   7.627  0.4045 -0.1842  0.0566
 5496SOL    HW117621   8.926   6.976   7.551  1.6555  1.5377 -1.0370
 5496SOL    HW217622   9.031   7.063   7.620  1.2586 -0.3969  2.2114
 5497SOL     OW17623   7.826   1.993   3.719 -0.2233 -0.2093 -0.2153
 5497SOL    HW117624   7.889   2.027   3.783 -0.7015  1.9148 -0.7954
 5497SOL    HW217625   7.875   1.989   3.637 -0.8318  1.6386 -0.7127
 5498SOL     OW17626   4.514   5.402   1.092 -0.0721  0.0311 -0.4357
 5498SOL    HW117627   4.589   5.458   1.113  0.7261 -1.0948 -0.1580
 5498SOL    HW217628   4.454   5.414   1.165  0.1433  0.4292 -0.3186
 5499SOL     OW17629   1.035   1.864   3.871 -0.0539 -0.7055 -0.0750
 5499SOL    HW117630   0.942   1.868   3.895  0.4506 -0.2897  2.0406
 5499SOL    HW217631   1.039   1.904   3.785 -1.8176 -0.6214 -0.1667
 5500SOL     OW17632   8.682   5.635   7.497 -0.3400 -0.2357 -0.3187
 5500SOL    HW117633   8.644   5.662   7.414 -2.9046  0.4223  0.9544
 5500SOL    HW217634   8.761   5.586   7.473 -0.5167  0.6568 -3.0587
 5501SOL     OW17635   0.097   3.312   3.153 -0.2530 -0.3581  0.1317
 5501SOL    HW117636   0.114   3.345   3.065 -0.0618 -0.7561  0.0129
 5501SOL    HW217637   0.128   3.221   3.150 -0.2316 -0.3676  0.6134
 5502SOL     OW17638   5.874   3.413   5.160  0.2374 -0.4478 -0.2036
 5502SOL    HW117639   5.811   3.387   5.228  0.0480 -2.4809 -1.0687
 5502SOL    HW217640   5.841   3.496   5.127 -1.9758 -1.3694 -0.5234
 5503SOL     OW17641   7.238   1.194   0.024  0.5380 -0.3335 -0.4027
 5503SOL    HW117642   7.228   1.252   0.100 -0.5767 -0.9272 -0.0730
 5503SOL    HW217643   7.324   1.155   0.035 -0.1650 -1.5509  1.4031
 5504SOL     OW17644   2.699   7.284   7.006 -0.0189  0.3128 -0.3065
 5504SOL    HW117645   2.623   7.226   6.995 -0.7851  1.4936 -1.5540
 5504SOL    HW217646   2.663   7.363   7.046  0.7706  0.4643  0.1122
 5505SOL     OW17647   4.461   7.037   5.668  0.0818 -0.0509  0.4495
 5505SOL    HW117648   4.463   7.132   5.654  1.6210 -0.2541 -1.1029
 5505SOL    HW217649   4.422   7.026   5.754 -1.9841  1.8800 -0.1577
 5506SOL     OW17650   0.401   2.208   0.029  0.8199  0.3361  0.3805
 5506SOL    HW117651   0.361   2.281  -0.017  1.9693  0.1517 -0.9825
 5506SOL    HW217652   0.366   2.213   0.118  0.9548  2.6217  0.3635
 5507SOL     OW17653   1.342   1.306   6.280  0.2152  0.1550  0.1481
 5507SOL    HW117654   1.424   1.256   6.282 -0.5279 -1.1288  0.0361
 5507SOL    HW217655   1.283   1.258   6.338 -0.6904  0.6269 -0.3521
 5508SOL     OW17656   5.361   1.791   6.403 -0.3762 -0.5653  0.0496
 5508SOL    HW117657   5.301   1.865   6.392 -2.4643 -2.3552 -1.5042
 5508SOL    HW217658   5.412   1.789   6.323  0.1390 -0.4437  0.3704
 5509SOL     OW17659   2.222   1.804   1.542 -0.0791 -0.1090 -0.0903
 5509SOL    HW117660   2.205   1.710   1.534 -0.8074 -0.0341  0.4919
 5509SOL    HW217661   2.211   1.837   1.453 -1.4915 -0.3239 -0.0194
 5510SOL     OW17662   5.335   2.947   1.469 -0.2568 -0.2335 -0.3998
 5510SOL    HW117663   5.384   2.931   1.550  1.1244  1.8897 -0.7607
 5510SOL    HW217664   5.262   3.003   1.496 -1.2165 -1.5041 -0.2605
 5511SOL     OW17665   4.129   1.743   1.464  0.3200 -0.5732  0.1089
 5511SOL    HW117666   4.213   1.716   1.499  0.7850 -0.6007 -0.9808
 5511SOL    HW217667   4.118   1.690   1.385 -1.4704 -1.7290  1.0566
 5512SOL     OW17668   4.353   5.722   1.987  0.2823  0.3419  0.1716
 5512SOL    HW117669   4.431   5.667   1.996 -1.0157 -1.2925  2.9901
 5512SOL    HW217670   4.351   5.774   2.068 -1.4412  0.4900  0.0675
 5513SOL     OW17671   5.845   8.239   8.453  0.0361 -0.1628 -0.2741
 5513SOL    HW117672   5.868   8.199   8.369  1.3896  0.4345 -0.1981
 5513SOL    HW217673   5.857   8.333   8.439 -0.6928  0.0243  0.3037
 5514SOL     OW17674   4.058   6.341   3.365 -0.0791 -0.0382 -0.1141
 5514SOL    HW117675   4.068   6.435   3.352 -0.4942 -0.0373 -0.4646
 5514SOL    HW217676   4.059   6.330   3.460  1.1912  0.1690 -0.0898
 5515SOL     OW17677   4.206   7.414   8.251  0.2094  0.0740 -0.0318
 5515SOL    HW117678   4.292   7.424   8.294  0.4060 -2.3004  0.2671
 5515SOL    HW217679   4.224   7.431   8.159  0.4921  1.8180  0.2981
 5516SOL     OW17680   7.245   1.870   0.008  1.0071 -0.2382 -0.7082
 5516SOL    HW117681   7.329   1.851  -0.034  2.1287  1.2915  0.7106
 5516SOL    HW217682   7.266   1.880   0.100 -1.0474 -1.4153 -0.0428
 5517SOL     OW17683   0.684   2.573   0.910 -0.9308  0.1937 -0.8055
 5517SOL    HW117684   0.669   2.620   0.828  1.5585  0.2083 -1.3307
 5517SOL    HW217685   0.668   2.638   0.979 -2.5474  0.3166 -1.2653
 5518SOL     OW17686   5.623   6.449   0.677  0.7170 -0.0707  0.6063
 5518SOL    HW117687   5.716   6.471   0.674  0.5094  0.7532 -0.1994
 5518SOL    HW217688   5.583   6.501   0.607 -0.3078 -0.6291  0.7481
 5519SOL     OW17689   0.679   5.838   8.451 -0.4147 -0.0431  0.1987
 5519SOL    HW117690   0.716   5.921   8.420 -0.0771  0.6242  2.2093
 5519SOL    HW217691   0.696   5.839   8.545  1.0128 -3.1364  0.0747
 5520SOL     OW17692   5.448   6.450   5.563 -0.1141  0.0867  0.3617
 5520SOL    HW117693   5.379   6.430   5.626  0.2564 -0.0102  0.7436
 5520SOL    HW217694   5.460   6.545   5.569 -1.8680  0.4751 -1.4472
 5521SOL     OW17695   7.048   7.888   4.444  0.1265 -0.8269  0.4196
 5521SOL    HW117696   6.954   7.894   4.460 -0.4892 -2.2911 -2.1069
 5521SOL    HW217697   7.077   7.978   4.439 -1.2574 -0.3397  0.6419
 5522SOL     OW17698   0.701   8.500   6.224  0.3596  0.0807  0.7444
 5522SOL    HW117699   0.685   8.591   6.248  0.3295  0.6624 -1.2676
 5522SOL    HW217700   0.633   8.480   6.160  1.4792 -0.7339 -0.2350
 5523SOL     OW17701   4.368   4.415   8.496  0.3537 -0.3030 -0.3148
 5523SOL    HW117702   4.320   4.394   8.576 -3.1673  2.2815 -1.5079
 5523SOL    HW217703   4.399   4.330   8.464 -2.4368 -2.0750  1.2585
 5524SOL     OW17704   1.357   2.942   8.294  0.0425 -1.0343  0.5270
 5524SOL    HW117705   1.356   2.847   8.282  2.5463 -0.9417 -1.2061
 5524SOL    HW217706   1.267   2.964   8.320 -0.8195 -3.7633  0.1477
 5525SOL     OW17707   8.625   0.419   2.304 -0.1416  0.3468  0.0407
 5525SOL    HW117708   8.657   0.436   2.393 -1.1153  1.3522  0.2144
 5525SOL    HW217709   8.695   0.366   2.264  0.0602 -0.6134  1.5620
 5526SOL     OW17710   5.216   7.967   3.163 -0.1152 -0.2297  0.0400
 5526SOL    HW117711   5.289   7.935   3.110  1.8382  1.1349  1.7548
 5526SOL    HW217712   5.213   8.061   3.146 -0.4430 -0.0157  1.1807
 5527SOL     OW17713   8.002   8.242   8.056 -0.0133 -0.3723 -0.4569
 5527SOL    HW117714   8.007   8.245   8.152  1.0034  0.0830 -0.5117
 5527SOL    HW217715   8.037   8.157   8.033  0.2741 -0.2546 -0.4534
 5528SOL     OW17716   4.120   2.977   1.407  0.0868  0.5450 -0.5212
 5528SOL    HW117717   4.062   3.049   1.383 -0.0953  1.0285  1.2675
 5528SOL    HW217718   4.199   3.019   1.441  1.0297 -0.1195 -1.7844
 5529SOL     OW17719   1.733   7.285   2.575  0.5052  0.0342 -0.1356
 5529SOL    HW117720   1.664   7.345   2.546 -0.3923  0.2990  2.3422
 5529SOL    HW217721   1.815   7.330   2.553 -0.1052  0.4526 -1.6428
 5530SOL     OW17722   0.932   2.869   6.889 -0.1804 -0.0534 -0.3000
 5530SOL    HW117723   0.996   2.800   6.870  0.2408  0.2647 -0.0513
 5530SOL    HW217724   0.894   2.890   6.803  1.1316  0.8060 -0.7170
 5531SOL     OW17725   5.977   7.342   2.165 -0.3575  0.0964 -0.7891
 5531SOL    HW117726   6.041   7.273   2.183  1.7258  2.3698  1.4006
 5531SOL    HW217727   5.901   7.320   2.220  1.0304  0.4077  1.3953
 5532SOL     OW17728   4.857   9.031   8.246 -0.0865  0.3042  0.1602
 5532SOL    HW117729   4.779   8.976   8.240 -0.6028  0.7198  2.2369
 5532SOL    HW217730   4.823   9.119   8.260  0.7475  1.0861 -2.2969
 5533SOL     OW17731   1.632   1.883   2.559  0.0216  0.0368  0.0052
 5533SOL    HW117732   1.658   1.847   2.644 -1.3238  0.9069  0.8130
 5533SOL    HW217733   1.617   1.806   2.504  1.5651 -0.5246  0.3163
 5534SOL     OW17734   4.868   5.145   0.570  1.0949 -0.1964 -0.0368
 5534SOL    HW117735   4.827   5.059   0.575  1.4882 -0.3504  0.6221
 5534SOL    HW217736   4.810   5.202   0.621 -0.2149  0.3700 -2.0456
 5535SOL     OW17737   1.543   0.360   4.330  0.1961  0.0282  0.9003
 5535SOL    HW117738   1.596   0.432   4.295 -1.4859  1.5277  1.2795
 5535SOL    HW217739   1.586   0.337   4.413  0.1896  1.3198  1.2832
 5536SOL     OW17740   2.534   5.863   2.924  0.6003  0.5515 -0.3863
 5536SOL    HW117741   2.493   5.921   2.860 -0.1277 -0.6571 -1.0740
 5536SOL    HW217742   2.601   5.816   2.874 -0.8561 -1.3633 -0.6761
 5537SOL     OW17743   7.752   8.121   4.082  0.0165 -0.1190  0.3587
 5537SOL    HW117744   7.799   8.105   4.164 -0.0547 -0.5384  0.3181
 5537SOL    HW217745   7.793   8.200   4.046  0.1766 -0.0451  0.7031
 5538SOL     OW17746   5.073   2.106   2.564 -0.0030  0.8431  0.1810
 5538SOL    HW117747   5.138   2.141   2.625  0.9837  0.2623 -0.4970
 5538SOL    HW217748   5.005   2.069   2.620  1.4518 -0.7486  0.9991
 5539SOL     OW17749   6.471   4.708   8.759 -0.6603  0.2823 -0.2228
 5539SOL    HW117750   6.418   4.784   8.784 -1.9173 -0.0580 -1.7036
 5539SOL    HW217751   6.506   4.731   8.673 -0.2453 -0.4252 -0.2468
 5540SOL     OW17752   5.563   8.980   6.922  1.0578  0.0763  0.5711
 5540SOL    HW117753   5.614   8.940   6.993 -0.2546  0.2158  1.6339
 5540SOL    HW217754   5.511   9.047   6.966 -0.2588 -0.2693 -0.4314
 5541SOL     OW17755   1.863   3.097   2.887 -0.5810 -0.0117  0.0952
 5541SOL    HW117756   1.857   3.112   2.793 -2.4347 -0.3136  0.1277
 5541SOL    HW217757   1.862   3.184   2.926 -1.1285  0.0836 -0.1235
 5542SOL     OW17758   3.888   0.087   5.053  0.4820  0.4324 -0.3235
 5542SOL    HW117759   3.878   0.010   4.997 -1.5030  0.0603  0.4458
 5542SOL    HW217760   3.979   0.085   5.081  1.0153 -0.4386 -1.9940
 5543SOL     OW17761   1.461   2.696   2.375  0.3659 -0.0649 -0.3096
 5543SOL    HW117762   1.483   2.764   2.312  1.0252  0.6400  0.6620
 5543SOL    HW217763   1.524   2.626   2.357  1.0014  0.4122 -0.0075
 5544SOL     OW17764   3.948   4.329   5.832 -0.6932  0.1446  0.4311
 5544SOL    HW117765   3.894   4.404   5.858 -0.0522  0.2681  1.4913
 5544SOL    HW217766   3.941   4.268   5.905  2.2327  1.0735  1.6207
 5545SOL     OW17767   6.387   4.180   6.786  0.8848  0.3448 -0.0585
 5545SOL    HW117768   6.328   4.228   6.728 -0.7259 -0.7466  0.6107
 5545SOL    HW217769   6.385   4.090   6.753  0.8599 -0.0426  0.9723
 5546SOL     OW17770   3.895   1.851   5.891 -0.0206 -0.1594 -0.2196
 5546SOL    HW117771   3.920   1.840   5.983 -0.1728 -1.5106 -0.3113
 5546SOL    HW217772   3.860   1.939   5.886 -4.9741 -1.6380  2.2307
 5547SOL     OW17773   8.524   5.133   2.209  1.0470 -0.0717  0.3340
 5547SOL    HW117774   8.550   5.085   2.130  1.8030 -2.8766  2.1690
 5547SOL    HW217775   8.431   5.152   2.196  1.2573 -0.0502 -1.3971
 5548SOL     OW17776   0.352   0.785   3.953 -0.0563  0.2084  0.0620
 5548SOL    HW117777   0.304   0.831   4.022  1.0312 -0.7162  1.4761
 5548SOL    HW217778   0.355   0.848   3.881  1.5918  2.5267  1.9910
 5549SOL     OW17779   6.895   3.804   3.635 -0.2972  0.4865  0.0403
 5549SOL    HW117780   6.979   3.834   3.601 -0.2784  0.7381  0.3000
 5549SOL    HW217781   6.837   3.805   3.559 -0.2984  1.2003  0.0413
 5550SOL     OW17782   3.374   7.902   5.926  0.4914 -0.3705 -0.1323
 5550SOL    HW117783   3.362   7.825   5.982  0.0623  0.1616  0.5128
 5550SOL    HW217784   3.449   7.948   5.964 -0.9023  0.9618  1.1582
 5551SOL     OW17785   4.722   8.795   5.113  0.2085  0.0942 -0.6045
 5551SOL    HW117786   4.810   8.779   5.146  1.1408  2.1460 -1.9331
 5551SOL    HW217787   4.704   8.886   5.135 -1.3335 -0.0872 -0.9590
 5552SOL     OW17788   3.143   0.644   6.259 -0.1459  0.0418 -0.1232
 5552SOL    HW117789   3.051   0.669   6.248 -0.2675 -0.2199  0.2665
 5552SOL    HW217790   3.189   0.726   6.276  0.0708  0.4958 -2.5455
 5553SOL     OW17791   6.875   4.680   5.959  0.5411 -0.0269 -0.4332
 5553SOL    HW117792   6.797   4.667   6.014  0.3765 -0.5809 -0.7889
 5553SOL    HW217793   6.841   4.686   5.870  0.8157  0.7908 -0.4945
 5554SOL     OW17794   2.504   0.530   3.232 -0.2144 -0.1982  0.1380
 5554SOL    HW117795   2.544   0.444   3.229 -0.6357 -0.5025  1.9565
 5554SOL    HW217796   2.491   0.547   3.325  1.1375  2.4442 -0.0637
 5555SOL     OW17797   0.813   7.487   7.709  0.3272  0.2021 -0.0477
 5555SOL    HW117798   0.886   7.549   7.713  1.2218 -0.7992 -0.3274
 5555SOL    HW217799   0.822   7.435   7.788  1.9405 -2.0721 -1.6076
 5556SOL     OW17800   0.655   4.921   2.018  0.0782  0.7591 -0.6826
 5556SOL    HW117801   0.621   4.910   2.107 -0.5362  1.2273 -0.8586
 5556SOL    HW217802   0.602   4.991   1.980  0.9789  1.2443 -1.0925
 5557SOL     OW17803   8.381   1.391   8.839  0.2697 -0.1166 -0.1731
 5557SOL    HW117804   8.339   1.474   8.863  1.3227  0.7837 -1.2958
 5557SOL    HW217805   8.382   1.340   8.920  1.2639  1.7170  1.0502
 5558SOL     OW17806   6.693   7.065   7.287 -0.4990  0.2826  0.2893
 5558SOL    HW117807   6.684   6.973   7.264  1.2211  0.1494 -0.0258
 5558SOL    HW217808   6.683   7.112   7.204  2.0811  0.0691 -0.2364
 5559SOL     OW17809   3.636   0.163   6.958  0.2775 -0.3255 -0.1161
 5559SOL    HW117810   3.724   0.160   6.996 -0.4651 -0.3604  1.6792
 5559SOL    HW217811   3.630   0.251   6.919  0.7797  0.0300  0.5830
 5560SOL     OW17812   0.197   2.019   7.695 -0.6557  0.0855  0.3664
 5560SOL    HW117813   0.286   2.008   7.661 -1.2005 -1.4761 -0.7327
 5560SOL    HW217814   0.149   2.061   7.623 -0.9321  0.3987  0.7313
 5561SOL     OW17815   4.052   5.109   1.851 -0.1315  0.0549  0.2183
 5561SOL    HW117816   4.145   5.089   1.840 -0.0446  0.1693  0.7004
 5561SOL    HW217817   4.006   5.034   1.813  0.1534  0.0685 -0.1592
 5562SOL     OW17818   3.257   3.340   4.281  0.0779 -0.1908  0.7842
 5562SOL    HW117819   3.319   3.413   4.275 -0.5212  0.2437 -0.2030
 5562SOL    HW217820   3.210   3.356   4.363 -0.1268  0.6098  0.5243
 5563SOL     OW17821   3.730   8.030   8.694 -0.3801  0.2789 -0.2159
 5563SOL    HW117822   3.739   7.948   8.743 -2.1868 -0.7758 -1.5255
 5563SOL    HW217823   3.662   8.078   8.742  0.3395  0.8347  0.2745
 5564SOL     OW17824   3.709   2.088   2.959  0.0427  0.4077 -0.2780
 5564SOL    HW117825   3.754   2.170   2.940  2.0284 -0.3611  0.8836
 5564SOL    HW217826   3.734   2.030   2.887  0.5994  0.1096  0.1476
 5565SOL     OW17827   5.206   9.057   7.390 -0.5791 -0.0936 -0.7737
 5565SOL    HW117828   5.270   9.115   7.349 -0.2163  0.5295  0.6100
 5565SOL    HW217829   5.259   8.993   7.438 -0.9645  0.4389  0.3963
 5566SOL     OW17830   2.568   8.091   7.082 -1.1137  0.2244 -0.3116
 5566SOL    HW117831   2.473   8.076   7.085 -1.2317  1.0188  0.5784
 5566SOL    HW217832   2.580   8.175   7.126  0.0068  0.1551 -0.4581
 5567SOL     OW17833   5.271   1.772   2.250  0.3523 -0.2741  0.2012
 5567SOL    HW117834   5.366   1.768   2.239  0.0795  0.6477 -4.1288
 5567SOL    HW217835   5.249   1.864   2.238 -1.1903 -0.7367 -0.8378
 5568SOL     OW17836   8.656   6.799   3.749 -0.1135  0.0731  0.3516
 5568SOL    HW117837   8.720   6.734   3.718  0.7531 -0.4253  2.8706
 5568SOL    HW217838   8.708   6.877   3.766 -0.4945  0.2619  0.6646
 5569SOL     OW17839   5.265   3.900   5.736  0.1890 -0.2338 -0.4396
 5569SOL    HW117840   5.213   3.821   5.720 -0.0159  0.1485 -1.8765
 5569SOL    HW217841   5.330   3.874   5.801 -0.4890 -1.3062 -0.1680
 5570SOL     OW17842   6.358   7.802   7.193  0.3431  0.0507  0.4268
 5570SOL    HW117843   6.354   7.706   7.200 -1.7204  0.0317 -0.2514
 5570SOL    HW217844   6.372   7.818   7.100  0.5166  0.4035  0.5152
 5571SOL     OW17845   6.318   0.873   0.412  0.1355 -0.0419 -0.3813
 5571SOL    HW117846   6.278   0.894   0.496 -1.1273 -1.2745 -0.6457
 5571SOL    HW217847   6.408   0.905   0.420 -0.1480  0.4438  1.1886
 5572SOL     OW17848   8.051   1.413   5.119 -0.6015 -0.1944  0.1978
 5572SOL    HW117849   8.116   1.462   5.170  1.3731 -2.3244 -0.1034
 5572SOL    HW217850   7.967   1.448   5.148  0.5147  0.2989  3.2459
 5573SOL     OW17851   0.043   8.734   1.563  0.2966 -0.1860 -0.4431
 5573SOL    HW117852  -0.039   8.781   1.573  0.9601  1.2848 -1.5958
 5573SOL    HW217853   0.052   8.720   1.469  2.3007  1.5114 -0.5917
 5574SOL     OW17854   1.102   0.092   7.084 -0.6577  0.5220 -0.2480
 5574SOL    HW117855   1.069   0.180   7.103  0.3405  1.2322 -1.6113
 5574SOL    HW217856   1.029   0.049   7.040  0.0487  2.0896 -3.2622
 5575SOL     OW17857   7.983   0.597   7.453  0.4210 -0.0254  0.5239
 5575SOL    HW117858   8.016   0.520   7.498 -0.8803 -1.5331 -0.9419
 5575SOL    HW217859   8.042   0.609   7.379  0.7510  0.5395  0.8734
 5576SOL     OW17860   1.181   6.766   0.986 -0.1074  0.0929 -0.0115
 5576SOL    HW117861   1.216   6.712   1.056  1.1878 -0.3594 -0.9573
 5576SOL    HW217862   1.188   6.856   1.018 -2.7407 -0.2224  1.7744
 5577SOL     OW17863   1.981   0.605   3.129  0.0307  0.2195 -0.1490
 5577SOL    HW117864   2.049   0.554   3.084 -1.0112 -0.1917 -1.3172
 5577SOL    HW217865   1.918   0.540   3.159 -0.6362  0.7012 -0.4810
 5578SOL     OW17866   8.333   4.643   4.627 -0.0708  0.5890  0.8334
 5578SOL    HW117867   8.428   4.646   4.633  0.0268 -1.5846  1.3816
 5578SOL    HW217868   8.309   4.556   4.661 -1.9992 -0.1417 -1.9448
 5579SOL     OW17869   6.697   8.321   4.499  0.2041 -0.5605 -0.2975
 5579SOL    HW117870   6.683   8.230   4.473  0.5798 -0.1987 -1.8088
 5579SOL    HW217871   6.648   8.373   4.436  1.9589  0.3847 -0.9449
 5580SOL     OW17872   6.868   0.879   4.020  0.1660  0.0719 -0.1906
 5580SOL    HW117873   6.800   0.855   4.083  0.2928 -1.4646 -0.6119
 5580SOL    HW217874   6.934   0.810   4.029  1.4542  1.2682 -0.1399
 5581SOL     OW17875   3.406   4.897   0.518  0.0527 -0.3287  0.2619
 5581SOL    HW117876   3.457   4.931   0.444 -0.1570 -0.7324 -0.0731
 5581SOL    HW217877   3.319   4.937   0.507  0.5515  1.1536  1.3946
 5582SOL     OW17878   6.472   8.245   3.311  0.2269 -0.0244 -0.9519
 5582SOL    HW117879   6.555   8.213   3.278  0.7953  1.7063 -1.2839
 5582SOL    HW217880   6.448   8.317   3.253  0.3016  1.8393  1.1866
 5583SOL     OW17881   0.508   5.384   6.068  0.1362 -0.3609 -0.2876
 5583SOL    HW117882   0.423   5.423   6.049 -0.0884 -0.2635  0.8631
 5583SOL    HW217883   0.565   5.459   6.087  0.1690 -0.4883  0.1274
 5584SOL     OW17884   3.851   6.350   1.964  0.2440 -1.0300  0.1928
 5584SOL    HW117885   3.816   6.263   1.949  0.3519 -0.7951 -1.5715
 5584SOL    HW217886   3.930   6.336   2.017  0.3211 -2.0213 -0.1724
 5585SOL     OW17887   4.199   0.684   0.902 -0.4774 -0.0092  0.0861
 5585SOL    HW117888   4.120   0.666   0.953 -2.0150  2.2018 -1.3334
 5585SOL    HW217889   4.182   0.646   0.816  0.7707 -1.0023  0.2468
 5586SOL     OW17890   5.318   1.157   0.353 -0.7107 -0.1556  0.6022
 5586SOL    HW117891   5.246   1.197   0.305 -0.9229 -0.5570  0.5826
 5586SOL    HW217892   5.396   1.180   0.303 -0.7771  0.5910  0.8212
 5587SOL     OW17893   3.798   5.037   7.830 -0.2157 -0.0437  0.2339
 5587SOL    HW117894   3.858   5.023   7.903 -0.8730 -0.2503  0.7511
 5587SOL    HW217895   3.821   5.123   7.795  1.7174 -0.9673 -0.8813
 5588SOL     OW17896   1.218   6.204   7.320 -0.2094  0.0005  0.5238
 5588SOL    HW117897   1.200   6.113   7.342  1.1221 -0.4761 -0.2512
 5588SOL    HW217898   1.235   6.204   7.226 -0.6341  1.1330  0.4309
 5589SOL     OW17899   8.856   7.032   6.425 -0.1468 -0.1415 -0.2026
 5589SOL    HW117900   8.801   7.060   6.497  3.0057  0.6193  2.1424
 5589SOL    HW217901   8.939   7.007   6.467  2.1874  1.1753 -3.6156
 5590SOL     OW17902   2.825   3.409   1.006 -0.6136  0.5567 -0.6265
 5590SOL    HW117903   2.868   3.443   1.085 -1.0376  0.4229 -0.3353
 5590SOL    HW217904   2.864   3.323   0.992 -0.9409  0.3443 -0.2375
 5591SOL     OW17905   4.178   7.223   1.713  0.2041  0.2566 -0.0892
 5591SOL    HW117906   4.162   7.132   1.736  1.7312  0.1669  0.6942
 5591SOL    HW217907   4.242   7.220   1.642  1.6379  0.7401  1.1511
 5592SOL     OW17908   0.359   8.069   0.751 -0.2893 -0.5612  0.0548
 5592SOL    HW117909   0.418   7.995   0.770 -2.1221 -2.2820 -0.5507
 5592SOL    HW217910   0.387   8.138   0.811  1.5521 -1.7067  0.6078
 5593SOL     OW17911   5.750   5.596   1.194  0.7206  0.0363  0.3440
 5593SOL    HW117912   5.760   5.502   1.209 -1.0309 -0.3590 -0.5918
 5593SOL    HW217913   5.805   5.614   1.118 -0.5767 -0.7320 -0.8303
 5594SOL     OW17914   7.102   0.698   7.061 -0.4754  0.0089  0.2278
 5594SOL    HW117915   7.186   0.682   7.103  0.7597  0.0885 -2.0594
 5594SOL    HW217916   7.054   0.753   7.123  1.5645  0.8438  1.1480
 5595SOL     OW17917   0.440   7.653   8.135  0.0159 -0.0475 -0.3299
 5595SOL    HW117918   0.511   7.590   8.119  1.8846  1.6909  0.6793
 5595SOL    HW217919   0.431   7.699   8.052 -1.5099 -1.6820 -1.1443
 5596SOL     OW17920   3.139   0.344   8.305  0.6283  0.4750  0.0352
 5596SOL    HW117921   3.090   0.310   8.229  1.5494  1.6537 -1.1417
 5596SOL    HW217922   3.133   0.439   8.296 -2.5822  0.8610  3.6753
 5597SOL     OW17923   6.499   7.901   6.869  0.1293  0.8144 -0.1444
 5597SOL    HW117924   6.512   7.823   6.814 -0.1601  0.5022  0.2236
 5597SOL    HW217925   6.541   7.971   6.820 -1.1670  0.7963 -1.3679
 5598SOL     OW17926   9.093   4.069   2.507  0.6576 -0.3371  0.3914
 5598SOL    HW117927   9.039   4.052   2.430 -0.2765  0.7147  0.7974
 5598SOL    HW217928   9.163   4.004   2.502  0.9468  0.0709 -1.6494
 5599SOL     OW17929   0.676   6.959   6.026 -0.1372  0.4322  0.3520
 5599SOL    HW117930   0.615   7.014   6.074  2.1579  2.1001  1.5537
 5599SOL    HW217931   0.684   7.000   5.940 -2.1162 -0.9448 -0.5630
 5600SOL     OW17932   8.998   4.983   8.540 -0.2455 -0.2521 -0.2425
 5600SOL    HW117933   9.086   5.009   8.563 -0.6543  0.2135  0.8424
 5600SOL    HW217934   9.002   4.888   8.530  0.5570 -0.1379 -1.0675
 5601SOL     OW17935   0.575   9.108   5.973  0.2089  0.0297  0.1953
 5601SOL    HW117936   0.571   9.192   5.929  0.5805  0.0629  0.2279
 5601SOL    HW217937   0.517   9.051   5.922 -2.5400  1.1090  1.8964
 5602SOL     OW17938   2.963   5.697   2.233 -0.2749 -0.1586  0.6389
 5602SOL    HW117939   2.993   5.694   2.142  1.2266  1.1156  1.0337
 5602SOL    HW217940   2.957   5.791   2.253 -0.0583 -0.4099  2.0069
 5603SOL     OW17941   1.387   8.555   7.458 -0.0592  0.1885  0.0062
 5603SOL    HW117942   1.394   8.469   7.500 -1.5237  0.0198 -0.0430
 5603SOL    HW217943   1.460   8.558   7.396  0.0972 -0.9575  0.1215
 5604SOL     OW17944   5.545   3.793   1.478 -0.1354 -0.3765  0.4843
 5604SOL    HW117945   5.529   3.874   1.526  1.2744  0.5814 -0.5585
 5604SOL    HW217946   5.516   3.813   1.389  0.2622 -1.0014  0.2112
 5605SOL     OW17947   4.041   0.518   7.992 -0.0702  0.0303 -0.0831
 5605SOL    HW117948   4.079   0.482   7.912 -0.4652 -0.2885 -0.1255
 5605SOL    HW217949   4.098   0.487   8.062  0.0663  0.0104 -0.2028
 5606SOL     OW17950   4.485   7.671   8.490  0.2226 -0.6856  0.3108
 5606SOL    HW117951   4.440   7.685   8.573  0.4206  0.8852  0.1811
 5606SOL    HW217952   4.543   7.747   8.481  3.1458 -2.7155  0.6035
 5607SOL     OW17953   5.253   7.707   5.088 -0.6672  0.0626  0.0341
 5607SOL    HW117954   5.248   7.794   5.129  0.2968 -0.0138  0.3408
 5607SOL    HW217955   5.199   7.651   5.143 -2.0273  0.6440 -0.6699
 5608SOL     OW17956   8.213   5.871   5.600 -0.6141  0.3647 -0.0737
 5608SOL    HW117957   8.155   5.936   5.640 -1.0744  1.3709 -2.2136
 5608SOL    HW217958   8.161   5.832   5.530  0.4897 -0.5142 -0.4399
 5609SOL     OW17959   1.705   3.729   2.660 -0.0811 -0.0170 -0.6331
 5609SOL    HW117960   1.745   3.662   2.715 -0.7244  0.7565  0.8428
 5609SOL    HW217961   1.746   3.718   2.575 -1.0438 -3.0825 -0.8294
 5610SOL     OW17962   3.489   6.651   6.883 -0.1285  0.1521  0.7586
 5610SOL    HW117963   3.477   6.607   6.799 -0.6815  2.1540 -0.2891
 5610SOL    HW217964   3.409   6.634   6.931 -0.8191  0.8901 -0.0871
 5611SOL     OW17965   7.004   6.113   0.729 -0.5710  0.2875 -0.0626
 5611SOL    HW117966   7.014   6.136   0.821  1.4953  0.6297 -0.3213
 5611SOL    HW217967   7.023   6.195   0.682 -2.1788  0.2682 -0.7961
 5612SOL     OW17968   3.731   8.694   1.669  0.6119  0.6790  0.4941
 5612SOL    HW117969   3.808   8.717   1.616  2.7928  0.3809  3.3059
 5612SOL    HW217970   3.710   8.605   1.643  0.3675  1.2007 -1.2041
 5613SOL     OW17971   2.503   1.752   0.631  0.1674 -0.3270  0.0280
 5613SOL    HW117972   2.437   1.682   0.639 -1.8436  1.3199 -1.2252
 5613SOL    HW217973   2.540   1.740   0.543  0.1354 -0.0884 -0.0190
 5614SOL     OW17974   1.311   4.846   5.357  0.4658  0.1278 -0.2129
 5614SOL    HW117975   1.345   4.766   5.317 -0.7906 -0.1768 -0.7361
 5614SOL    HW217976   1.337   4.916   5.298  1.6954  0.1331  0.3217
 5615SOL     OW17977   4.314   8.077   8.580  0.1713  0.3411  0.4465
 5615SOL    HW117978   4.311   8.136   8.505  1.0680 -0.4923 -0.2753
 5615SOL    HW217979   4.223   8.050   8.593  0.3137 -2.3818 -2.7571
 5616SOL     OW17980   4.737   7.630   4.183  0.5271 -0.1282  0.0665
 5616SOL    HW117981   4.714   7.688   4.110  2.1028  0.7431  0.2294
 5616SOL    HW217982   4.790   7.562   4.143  0.6828 -0.1237  0.2680
 5617SOL     OW17983   5.792   8.639   3.173 -0.4271  0.2138  0.0822
 5617SOL    HW117984   5.832   8.574   3.231 -0.0198  1.6096  1.3907
 5617SOL    HW217985   5.865   8.692   3.143 -0.6472 -0.3760 -1.6419
 5618SOL     OW17986   5.937   1.504   0.498  0.2451  0.4749 -0.0180
 5618SOL    HW117987   5.926   1.409   0.497 -1.9592  0.6785  0.4402
 5618SOL    HW217988   5.917   1.531   0.408  1.8279  0.4533 -0.4039
 5619SOL     OW17989   7.711   2.929   7.740 -0.3485 -0.0093 -0.0916
 5619SOL    HW117990   7.798   2.923   7.700 -0.3147  1.6275 -0.3382
 5619SOL    HW217991   7.698   3.023   7.753 -1.5762 -0.3190  1.0755
 5620SOL     OW17992   3.582   1.049   5.357 -0.5671  0.4959  0.1093
 5620SOL    HW117993   3.529   0.984   5.311  0.3674 -0.0582 -0.2152
 5620SOL    HW217994   3.562   1.132   5.314  1.1251 -0.1662 -2.1357
 5621SOL     OW17995   0.066   2.216   7.850 -0.4603 -0.7399 -0.5058
 5621SOL    HW117996   0.117   2.240   7.928 -2.2385  0.4060  0.3508
 5621SOL    HW217997   0.117   2.146   7.809  1.0911 -0.5860  1.0590
 5622SOL     OW17998   0.108   8.680   4.403 -0.0971 -0.1020 -0.3632
 5622SOL    HW117999   0.163   8.732   4.344 -0.7622  1.5214  0.3728
 5622SOL    HW218000   0.027   8.730   4.411 -0.7806 -1.2715  0.4022
 5623SOL     OW18001   2.992   2.087   8.647 -0.7574 -0.2216 -0.3834
 5623SOL    HW118002   3.020   2.101   8.737  0.1250  1.6231 -0.8978
 5623SOL    HW218003   2.915   2.143   8.636 -2.0165 -1.8321 -0.2978
 5624SOL     OW18004   8.704   7.145   6.651  0.6493 -0.0767 -0.3102
 5624SOL    HW118005   8.679   7.056   6.679  0.3557  0.3774  0.9609
 5624SOL    HW218006   8.697   7.197   6.731  2.1296  0.8283 -0.7383
 5625SOL     OW18007   6.950   5.568   6.252  0.0817  0.2698  0.3117
 5625SOL    HW118008   6.884   5.499   6.252 -1.2603  1.4645  2.3005
 5625SOL    HW218009   7.024   5.531   6.204 -0.3492 -2.7679  1.7925
 5626SOL     OW18010   7.574   4.119   2.719 -0.6138  0.0686  0.4176
 5626SOL    HW118011   7.607   4.191   2.665 -1.7931 -0.1367 -0.6234
 5626SOL    HW218012   7.569   4.045   2.659 -3.4048  0.2125  0.3348
 5627SOL     OW18013   4.334   1.947   2.550 -0.3089 -0.1627  0.4228
 5627SOL    HW118014   4.371   1.859   2.543  0.5267  0.2963 -2.0768
 5627SOL    HW218015   4.343   1.970   2.642  1.1065 -1.9842  0.7986
 5628SOL     OW18016   5.502   5.042   3.636 -0.0387  0.8055 -0.1043
 5628SOL    HW118017   5.502   4.972   3.701 -1.3836  0.2550 -0.6517
 5628SOL    HW218018   5.513   5.122   3.687  0.2662  0.2926  0.6577
 5629SOL     OW18019   3.333   5.419   7.419 -0.2206  0.0216  1.0609
 5629SOL    HW118020   3.423   5.394   7.398 -0.3527  1.1066 -1.0703
 5629SOL    HW218021   3.313   5.370   7.499  1.8770 -1.0726  1.0001
 5630SOL     OW18022   6.135   8.554   4.888  0.0572 -0.0236 -0.6278
 5630SOL    HW118023   6.072   8.612   4.932  1.3981  1.0822 -0.0980
 5630SOL    HW218024   6.132   8.473   4.939  1.1894  1.0480  1.2604
 5631SOL     OW18025   3.577   2.114   8.673 -0.4569  0.4589  0.2570
 5631SOL    HW118026   3.616   2.157   8.597  1.1479  0.7930  1.2269
 5631SOL    HW218027   3.484   2.104   8.650  0.0851  0.0078 -1.9725
 5632SOL     OW18028   8.251   8.463   8.887  0.4771 -0.0297 -0.1982
 5632SOL    HW118029   8.279   8.405   8.958  2.6536 -0.5890 -1.4238
 5632SOL    HW218030   8.292   8.548   8.908 -2.1916  1.0039  1.2637
 5633SOL     OW18031   8.401   3.361   7.355  0.2193  0.1521  0.0784
 5633SOL    HW118032   8.390   3.380   7.448 -0.1630  2.5394 -0.4071
 5633SOL    HW218033   8.318   3.321   7.329  0.4393 -0.8155  0.7913
 5634SOL     OW18034   4.015   5.808   0.922  0.1672  0.0513 -0.0728
 5634SOL    HW118035   4.049   5.796   1.011  2.6014 -0.5965 -1.0138
 5634SOL    HW218036   4.057   5.739   0.871 -1.8558 -0.1396 -1.5994
 5635SOL     OW18037   4.072   2.484   2.561 -0.0161 -0.1020 -0.0943
 5635SOL    HW118038   4.126   2.424   2.511 -0.4015 -1.4715  1.0573
 5635SOL    HW218039   4.010   2.428   2.608  0.8523  0.9796  2.5673
 5636SOL     OW18040   5.272   5.765   7.390 -0.9219  0.2612  0.0304
 5636SOL    HW118041   5.337   5.823   7.350 -1.1470  0.8746  0.5379
 5636SOL    HW218042   5.197   5.822   7.407 -0.6174  0.1604  1.8668
 5637SOL     OW18043   6.114   6.776   1.740  0.0418 -0.0127 -0.7108
 5637SOL    HW118044   6.183   6.731   1.691 -0.0844 -2.0221  0.8103
 5637SOL    HW218045   6.033   6.753   1.695  0.2040  0.8273 -1.4327
 5638SOL     OW18046   8.604   3.087   7.970 -0.3126 -0.0460  0.0545
 5638SOL    HW118047   8.527   3.043   7.934 -0.6784  0.3777  0.3111
 5638SOL    HW218048   8.577   3.178   7.979 -0.9254 -0.4152  3.1373
 5639SOL     OW18049   3.485   2.629   2.690 -0.1290 -0.1449  0.2093
 5639SOL    HW118050   3.473   2.649   2.783  0.8362 -0.5978  0.4434
 5639SOL    HW218051   3.467   2.712   2.646 -1.1670 -0.0694  0.7500
 5640SOL     OW18052   3.747   2.669   3.491  0.0746 -0.6220  0.4340
 5640SOL    HW118053   3.719   2.662   3.400 -2.3928 -1.1995  1.1603
 5640SOL    HW218054   3.709   2.751   3.522 -1.0721 -1.5114  1.5094
 5641SOL     OW18055   8.376   3.042   0.655  0.8021  0.2078  0.1192
 5641SOL    HW118056   8.421   3.112   0.701  1.5237  1.0907 -1.8299
 5641SOL    HW218057   8.305   3.085   0.609  1.2610 -0.3165 -1.1198
 5642SOL     OW18058   5.806   8.484   1.690  0.2590 -0.0099 -0.2994
 5642SOL    HW118059   5.714   8.498   1.712 -0.2263 -0.4589 -1.9354
 5642SOL    HW218060   5.816   8.520   1.602  1.7979  0.5211  0.0549
 5643SOL     OW18061   0.728   7.368   1.535 -0.1842 -0.2313 -0.3581
 5643SOL    HW118062   0.730   7.431   1.608 -0.9339 -0.5583 -0.0466
 5643SOL    HW218063   0.767   7.289   1.571 -0.7787 -0.4703 -0.2339
 5644SOL     OW18064   5.778   0.037   2.261 -0.3666 -0.5736 -0.0344
 5644SOL    HW118065   5.717   0.066   2.193 -1.7405 -0.2235  1.3121
 5644SOL    HW218066   5.756   0.090   2.337  1.9603 -0.0819  0.3700
 5645SOL     OW18067   5.992   4.266   6.303  0.0879  0.3736  0.5159
 5645SOL    HW118068   5.957   4.354   6.294  0.4370  0.3700 -1.4396
 5645SOL    HW218069   6.084   4.278   6.327  0.1972  0.5682  0.0157
 5646SOL     OW18070   0.599   1.465   2.469 -0.4650 -0.1620  0.6832
 5646SOL    HW118071   0.598   1.455   2.565 -1.7281 -1.6397  0.5605
 5646SOL    HW218072   0.601   1.559   2.455  0.2845  0.0742  2.1685
 5647SOL     OW18073   6.710   7.901   2.580  0.5425 -0.0331 -0.0043
 5647SOL    HW118074   6.686   7.978   2.529 -2.1628  3.0461  5.1040
 5647SOL    HW218075   6.664   7.829   2.537 -1.1522  2.1131 -2.0989
 5648SOL     OW18076   1.910   1.174   1.440 -0.3839 -0.3045 -0.1132
 5648SOL    HW118077   1.829   1.220   1.463 -0.2053  0.3038 -0.6824
 5648SOL    HW218078   1.935   1.211   1.356 -0.7109 -2.0534 -1.0281
 5649SOL     OW18079   4.503   2.203   1.547  0.8557  0.3373 -0.3052
 5649SOL    HW118080   4.568   2.137   1.523 -0.4774 -1.6995  1.2586
 5649SOL    HW218081   4.495   2.195   1.642 -1.5157  0.5788 -0.4231
 5650SOL     OW18082   6.150   4.007   7.393  0.1174 -0.3056  0.3516
 5650SOL    HW118083   6.071   4.040   7.350 -0.5849 -0.6752  1.3069
 5650SOL    HW218084   6.196   3.958   7.325 -0.5725 -0.2446 -0.1729
 5651SOL     OW18085   0.592   5.591   1.249 -0.2720 -0.7521  0.0519
 5651SOL    HW118086   0.592   5.504   1.289  1.3573 -0.7887  0.0557
 5651SOL    HW218087   0.648   5.582   1.172  1.9975  0.8021  1.3742
 5652SOL     OW18088   6.315   2.108   2.177  0.4868  0.0601 -0.4512
 5652SOL    HW118089   6.347   2.198   2.171  1.4021 -0.3230 -1.7799
 5652SOL    HW218090   6.379   2.056   2.128 -1.7130 -0.8515 -2.6015
 5653SOL     OW18091   0.199   5.275   3.692  0.2340  0.1006 -0.3453
 5653SOL    HW118092   0.195   5.217   3.616  1.1334 -1.7765  0.9451
 5653SOL    HW218093   0.112   5.314   3.697 -0.4034 -1.1012 -1.3316
 5654SOL     OW18094   6.442   4.041   4.206 -0.1802  0.2777 -0.2594
 5654SOL    HW118095   6.404   4.120   4.245  0.5511 -0.5047  2.1814
 5654SOL    HW218096   6.367   3.993   4.172 -1.0801  0.2634  1.6262
 5655SOL     OW18097   3.325   3.227   3.574  0.1458 -0.2102  0.0061
 5655SOL    HW118098   3.372   3.248   3.655  1.9398 -2.8114 -0.2541
 5655SOL    HW218099   3.241   3.192   3.604  0.4456 -0.3512  0.7194
 5656SOL     OW18100   8.042   6.031   7.439  0.0957  0.3068 -0.0673
 5656SOL    HW118101   7.969   6.085   7.409  0.8117  1.3859  0.0858
 5656SOL    HW218102   8.026   5.945   7.399 -0.6348  0.8469 -0.9852
 5657SOL     OW18103   3.119   2.140   0.749  0.0790 -0.3948 -0.1112
 5657SOL    HW118104   3.025   2.151   0.759 -0.3569 -2.2905 -1.5087
 5657SOL    HW218105   3.144   2.203   0.681  0.3744  2.0066  2.1068
 5658SOL     OW18106   7.955   8.389   5.186  0.4042  0.9544  0.3644
 5658SOL    HW118107   7.938   8.428   5.271  0.3960 -1.1185  1.3769
 5658SOL    HW218108   8.047   8.409   5.168  0.5379  1.0128  1.0884
 5659SOL     OW18109   4.783   6.009   3.405 -0.6728 -0.5232  0.4411
 5659SOL    HW118110   4.876   6.034   3.406 -1.2273  2.2184 -2.7191
 5659SOL    HW218111   4.752   6.033   3.492  1.2874 -0.3214  1.1482
 5660SOL     OW18112   1.724   7.925   7.770 -0.1964  0.1661 -0.2126
 5660SOL    HW118113   1.681   7.903   7.687  0.9419  1.4965 -1.2144
 5660SOL    HW218114   1.817   7.908   7.754  0.2131  1.7598  0.2968
 5661SOL     OW18115   2.425   3.017   6.679  0.1543  0.8567  0.0975
 5661SOL    HW118116   2.340   3.036   6.641  0.3931  1.1178 -0.3190
 5661SOL    HW218117   2.488   3.045   6.612  0.5693  0.8432  0.4752
 5662SOL     OW18118   1.942   5.503   2.316 -0.4697  0.0196 -0.7082
 5662SOL    HW118119   2.000   5.575   2.341  0.9263 -1.4467  0.4453
 5662SOL    HW218120   1.866   5.514   2.373  0.1195  0.0991  0.0767
 5663SOL     OW18121   5.140   0.526   1.404 -0.1476 -0.2463 -0.1882
 5663SOL    HW118122   5.079   0.574   1.348  0.1351 -0.7873 -0.9828
 5663SOL    HW218123   5.149   0.441   1.362 -1.1038 -1.2384  1.5284
 5664SOL     OW18124   3.075   8.096   4.586  0.1488  0.0714  0.3482
 5664SOL    HW118125   3.091   8.003   4.605  0.7498  0.1302  0.1537
 5664SOL    HW218126   3.139   8.118   4.518 -1.1969  0.1658 -0.9169
 5665SOL     OW18127   2.252   5.469   5.203 -0.3107  0.3162  0.0547
 5665SOL    HW118128   2.264   5.423   5.286 -3.1942 -2.8596 -1.0246
 5665SOL    HW218129   2.315   5.427   5.143  0.1409  0.9402  0.0900
 5666SOL     OW18130   2.961   7.704   5.656  0.0147 -0.2160 -0.4447
 5666SOL    HW118131   3.054   7.689   5.639  0.2474  0.6011  0.0171
 5666SOL    HW218132   2.946   7.793   5.625 -0.1446  0.3667  1.1962
 5667SOL     OW18133   2.695   3.797   1.561  0.9257  0.4823 -0.3742
 5667SOL    HW118134   2.776   3.781   1.514  1.4829 -0.8849  0.9888
 5667SOL    HW218135   2.655   3.710   1.570  0.7849  0.7031  1.5173
 5668SOL     OW18136   4.392   0.217   4.701  0.4090 -0.1540  0.4512
 5668SOL    HW118137   4.434   0.136   4.730  0.3506 -0.5083 -0.4043
 5668SOL    HW218138   4.456   0.286   4.719  0.5576 -0.4246  0.9664
 5669SOL     OW18139   2.094   3.295   0.538  0.3813 -0.1207 -0.6943
 5669SOL    HW118140   2.158   3.230   0.510 -0.6247 -1.1067 -0.8165
 5669SOL    HW218141   2.010   3.249   0.532 -0.0649  0.0256  2.6592
 5670SOL     OW18142   0.429   4.445   6.644  0.8093  0.1761 -0.3047
 5670SOL    HW118143   0.334   4.456   6.639  0.9078  1.2226 -0.1854
 5670SOL    HW218144   0.462   4.480   6.561  1.0366 -1.0419 -0.7447
 5671SOL     OW18145   3.513   7.968   4.548  0.1942  0.5884  0.4974
 5671SOL    HW118146   3.599   7.932   4.570  0.0900  0.5208  0.7971
 5671SOL    HW218147   3.453   7.924   4.607 -0.2800 -0.5389 -0.7757
 5672SOL     OW18148   5.909   0.489   6.849  0.4640  0.9331  0.2434
 5672SOL    HW118149   5.832   0.447   6.811  0.1346  1.5592  0.2081
 5672SOL    HW218150   5.982   0.431   6.825  0.0288  0.4083  0.1623
 5673SOL     OW18151   5.511   0.112   6.189 -0.1830 -0.9846 -0.2434
 5673SOL    HW118152   5.552   0.121   6.103 -1.2304 -2.1784 -0.9080
 5673SOL    HW218153   5.579   0.071   6.243  0.0971 -1.3440 -0.8496
 5674SOL     OW18154   3.470   5.460   5.312 -0.0235 -0.3817 -0.5447
 5674SOL    HW118155   3.473   5.540   5.260 -2.1914  1.8074  2.3854
 5674SOL    HW218156   3.533   5.474   5.382 -1.4432 -0.5359  0.8198
 5675SOL     OW18157   2.527   5.924   0.548 -0.5606 -0.0193  0.3433
 5675SOL    HW118158   2.540   5.932   0.643  0.3160  0.7868  0.1769
 5675SOL    HW218159   2.528   5.830   0.531  1.0696 -0.1347  0.9147
 5676SOL     OW18160   0.356   3.664   7.563 -0.2366  0.7558  0.3642
 5676SOL    HW118161   0.273   3.711   7.566 -0.2041  0.9301 -0.7460
 5676SOL    HW218162   0.335   3.576   7.593 -0.8049  0.8356  0.2175
 5677SOL     OW18163   5.765   8.316   3.552 -0.0635  0.0960  0.5756
 5677SOL    HW118164   5.678   8.336   3.517  0.4014  0.0454 -0.6669
 5677SOL    HW218165   5.825   8.369   3.499  0.8441 -1.4893 -0.0600
 5678SOL     OW18166   4.723   4.889   7.107  0.3726  0.2679 -0.1343
 5678SOL    HW118167   4.645   4.833   7.108 -0.3459  1.2593  1.1133
 5678SOL    HW218168   4.714   4.941   7.028 -0.2864  0.4472  0.0559
 5679SOL     OW18169   8.022   3.485   5.237 -0.3645  0.2561 -0.1946
 5679SOL    HW118170   8.066   3.504   5.154 -3.0611  1.2990 -1.5128
 5679SOL    HW218171   8.047   3.558   5.294  2.4370 -1.0606  0.4068
 5680SOL     OW18172   5.489   3.799   5.922 -0.0379 -0.0509 -0.3311
 5680SOL    HW118173   5.543   3.740   5.975 -0.1244 -0.4074 -0.6329
 5680SOL    HW218174   5.551   3.865   5.889  0.4325 -1.0351 -1.5101
 5681SOL     OW18175   0.660   6.406   8.190  0.3934 -0.8844  0.9114
 5681SOL    HW118176   0.727   6.465   8.224  1.0263 -1.6342  0.9865
 5681SOL    HW218177   0.607   6.383   8.266 -0.3015  0.1367  0.7579
 5682SOL     OW18178   0.850   3.932   3.194 -0.9586 -0.2407  0.9094
 5682SOL    HW118179   0.942   3.952   3.177 -1.1784 -1.3710 -2.2757
 5682SOL    HW218180   0.822   3.998   3.257  1.6991  0.8718  1.0475
 5683SOL     OW18181   6.234   2.627   6.838  0.3658 -0.1889 -0.7941
 5683SOL    HW118182   6.308   2.613   6.896 -0.1444 -0.5097 -0.2169
 5683SOL    HW218183   6.202   2.715   6.859 -0.5334 -0.7432  0.2385
 5684SOL     OW18184   8.993   1.793   2.811  0.0094 -0.2658  0.7493
 5684SOL    HW118185   8.991   1.876   2.858 -0.9922  0.2258 -0.1318
 5684SOL    HW218186   9.069   1.746   2.848  0.9611  1.2768  0.8238
 5685SOL     OW18187   3.238   2.960   0.512  0.1913  0.2685 -0.0992
 5685SOL    HW118188   3.260   3.052   0.505  1.7507  0.0031  0.8725
 5685SOL    HW218189   3.204   2.950   0.601  0.4705 -0.1650 -0.0369
 5686SOL     OW18190   2.181   7.292   2.982 -0.4355 -0.5443 -0.4473
 5686SOL    HW118191   2.125   7.307   2.906 -0.2302 -0.2969 -0.5523
 5686SOL    HW218192   2.266   7.267   2.945 -0.7329 -1.8808 -0.2809
 5687SOL     OW18193   1.659   3.854   8.142  0.0439 -0.0399 -0.4807
 5687SOL    HW118194   1.692   3.936   8.178 -2.9527  1.2166 -0.2530
 5687SOL    HW218195   1.645   3.872   8.049 -2.2249  0.4041 -0.1241
 5688SOL     OW18196   8.676   3.112   7.375 -0.5254  0.4663 -0.0370
 5688SOL    HW118197   8.697   3.193   7.422 -0.8055  0.6735 -0.2581
 5688SOL    HW218198   8.651   3.142   7.287 -0.0456  0.0858 -0.3020
 5689SOL     OW18199   0.128   0.415   1.788 -0.3833  0.1406  0.7089
 5689SOL    HW118200   0.060   0.482   1.789 -0.6292 -0.1105  0.8515
 5689SOL    HW218201   0.081   0.333   1.802 -0.1382 -0.1118  0.0843
 5690SOL     OW18202   3.574   3.282   4.158 -0.1079 -0.0902  0.2909
 5690SOL    HW118203   3.591   3.376   4.158 -1.6759  0.2485  1.8512
 5690SOL    HW218204   3.560   3.259   4.066 -0.7510  1.4241 -0.0137
 5691SOL     OW18205   0.020   4.674   6.602 -1.0446  0.3785  0.0939
 5691SOL    HW118206  -0.039   4.699   6.531 -0.6716  0.0905 -0.3234
 5691SOL    HW218207   0.021   4.751   6.659 -1.0436  0.7705 -0.4170
 5692SOL     OW18208   2.918   5.703   6.067 -0.0996  0.4886 -0.4166
 5692SOL    HW118209   2.945   5.710   6.158 -0.8035  0.2704 -0.1838
 5692SOL    HW218210   2.962   5.624   6.035  0.0482  0.4966 -0.2322
 5693SOL     OW18211   8.117   6.507   8.677  0.0773 -0.0843  0.3963
 5693SOL    HW118212   8.035   6.505   8.626  1.2752  0.3293 -1.6608
 5693SOL    HW218213   8.150   6.417   8.673 -1.2099 -0.7879  3.0082
 5694SOL     OW18214   2.250   4.456   4.843  0.6793 -0.6126 -0.2478
 5694SOL    HW118215   2.237   4.544   4.877 -2.1418 -0.5304 -1.2651
 5694SOL    HW218216   2.194   4.401   4.898  2.8394 -1.9292  0.7453
 5695SOL     OW18217   3.491   5.813   5.644  0.4709  0.2350  0.5280
 5695SOL    HW118218   3.573   5.862   5.640  0.5599  0.0668  0.2687
 5695SOL    HW218219   3.456   5.817   5.555  0.0530  0.5483  0.7031
 5696SOL     OW18220   2.371   1.645   4.051 -0.3568  0.0464  0.2917
 5696SOL    HW118221   2.402   1.583   4.116 -0.8054  0.6863  1.1289
 5696SOL    HW218222   2.428   1.721   4.062 -0.1340 -0.0140 -0.3857
 5697SOL     OW18223   7.386   5.439   6.535  0.1471  0.0260  0.6770
 5697SOL    HW118224   7.302   5.398   6.514 -0.7120  1.9554  0.0695
 5697SOL    HW218225   7.440   5.425   6.457 -0.0330 -0.2069  0.5931
 5698SOL     OW18226   5.888   3.737   4.407 -0.0991  0.1977 -0.1594
 5698SOL    HW118227   5.921   3.669   4.466  0.1206  1.0951  0.7833
 5698SOL    HW218228   5.871   3.691   4.325  0.1683 -0.9668  0.4111
 5699SOL     OW18229   2.730   4.440   0.229 -0.2443 -0.1479 -0.0826
 5699SOL    HW118230   2.676   4.406   0.300 -0.1351  0.4581  0.3022
 5699SOL    HW218231   2.751   4.363   0.175  0.9655 -0.9056  1.4061
 5700SOL     OW18232   7.387   8.134   6.209  0.3860 -0.1094 -0.6659
 5700SOL    HW118233   7.310   8.165   6.256  0.7053 -0.9050  0.4132
 5700SOL    HW218234   7.402   8.046   6.242  1.5493 -0.1035 -1.1251
 5701SOL     OW18235   7.919   7.086   6.427  0.2582  0.7018 -0.2171
 5701SOL    HW118236   7.925   7.181   6.443  0.6250  0.5298  0.7263
 5701SOL    HW218237   7.831   7.073   6.393  0.6429  1.5544 -1.6196
 5702SOL     OW18238   5.046   1.939   1.587  0.1130 -0.1716  0.0931
 5702SOL    HW118239   5.009   1.955   1.501 -0.7480  0.6193  0.5948
 5702SOL    HW218240   5.096   1.858   1.577  1.5053  0.8290 -1.5841
 5703SOL     OW18241   2.814   6.756   2.072  0.0675 -0.7623 -0.1711
 5703SOL    HW118242   2.782   6.692   2.009 -0.2467  0.1280 -0.9467
 5703SOL    HW218243   2.734   6.792   2.111  0.2161 -0.4198 -0.1809
 5704SOL     OW18244   9.073   8.523   5.524 -0.3862 -0.0485 -0.1424
 5704SOL    HW118245   8.988   8.549   5.559 -2.0708 -1.5769 -2.8050
 5704SOL    HW218246   9.053   8.482   5.440  3.2218  1.9662 -2.2320
 5705SOL     OW18247   1.102   1.425   5.882 -0.6015 -0.3146  0.2217
 5705SOL    HW118248   1.091   1.354   5.944 -1.8766  0.0251  0.4219
 5705SOL    HW218249   1.013   1.444   5.851 -0.4159  1.7022  0.7685
 5706SOL     OW18250   4.819   0.879   1.766  0.1115  0.0525 -0.6084
 5706SOL    HW118251   4.844   0.912   1.680  2.3519 -0.6350 -0.2703
 5706SOL    HW218252   4.888   0.817   1.789 -0.8259 -0.3255  1.3757
 5707SOL     OW18253   2.626   2.959   3.871  0.0410 -0.1555  0.2923
 5707SOL    HW118254   2.600   2.893   3.807 -0.2995  0.4105 -0.1583
 5707SOL    HW218255   2.600   2.923   3.955 -1.0706 -0.1598 -0.0355
 5708SOL     OW18256   1.816   8.186   3.345 -0.2968 -0.0152  0.4774
 5708SOL    HW118257   1.853   8.270   3.372  1.7571 -1.0793  1.1513
 5708SOL    HW218258   1.887   8.142   3.299 -1.7976 -0.8225 -1.1813
 5709SOL     OW18259   2.292   6.471   0.855  0.4208 -0.3233  0.1499
 5709SOL    HW118260   2.379   6.501   0.830  0.5290 -0.3980  0.4258
 5709SOL    HW218261   2.253   6.437   0.774  0.1647  0.8611 -0.2390
 5710SOL     OW18262   1.909   2.288   5.523  0.2811  0.1644 -0.2969
 5710SOL    HW118263   1.941   2.374   5.498  0.9511 -0.5006 -1.8362
 5710SOL    HW218264   1.824   2.280   5.480 -0.8163  0.8693  1.6142
 5711SOL     OW18265   3.384   4.110   3.320 -0.4126  0.0139 -0.0391
 5711SOL    HW118266   3.407   4.134   3.410  0.6320 -0.2852 -0.2168
 5711SOL    HW218267   3.468   4.104   3.274 -0.8840 -0.5273 -0.8633
 5712SOL     OW18268   5.449   1.742   2.828  0.6854 -0.6044 -0.3108
 5712SOL    HW118269   5.520   1.805   2.839  0.3870 -0.0017 -1.6771
 5712SOL    HW218270   5.374   1.794   2.802 -0.4067 -1.1928  1.4432
 5713SOL     OW18271   5.702   1.483   5.406 -0.0935 -0.2128  0.1918
 5713SOL    HW118272   5.718   1.407   5.350 -1.4990 -1.2402  1.1385
 5713SOL    HW218273   5.735   1.557   5.354 -1.2686 -1.1175 -2.0001
 5714SOL     OW18274   5.976   5.049   1.066  0.3293  0.2465 -0.5445
 5714SOL    HW118275   6.019   4.967   1.042 -0.0859  0.2616 -1.3807
 5714SOL    HW218276   5.883   5.026   1.072  0.1891  0.6953 -0.9812
 5715SOL     OW18277   4.480   9.111   0.403 -0.1372  0.1489 -0.3236
 5715SOL    HW118278   4.398   9.135   0.447 -0.1620 -0.5277  0.0092
 5715SOL    HW218279   4.549   9.144   0.460 -0.1423 -1.8450  0.9450
 5716SOL     OW18280   0.467   3.063   2.337 -0.2733 -0.3778  0.4822
 5716SOL    HW118281   0.537   3.006   2.369  0.2885  0.3310  0.5265
 5716SOL    HW218282   0.472   3.141   2.393  0.4949  0.7298 -1.0684
 5717SOL     OW18283   6.732   2.176   5.300  0.5233  0.5608 -0.5412
 5717SOL    HW118284   6.782   2.254   5.277  1.9690  0.0062  0.5411
 5717SOL    HW218285   6.798   2.113   5.328 -0.6341 -0.9428 -1.0551
 5718SOL     OW18286   7.925   6.903   5.274 -0.2145  0.2530  0.5764
 5718SOL    HW118287   7.999   6.960   5.293  1.5455 -1.1700 -1.5210
 5718SOL    HW218288   7.884   6.941   5.196  1.7839 -1.8795 -1.6678
 5719SOL     OW18289   7.288   6.628   1.619  0.2014 -0.1017 -0.2119
 5719SOL    HW118290   7.270   6.552   1.675 -0.7164  0.8257  0.8028
 5719SOL    HW218291   7.373   6.608   1.578 -0.4478 -2.0754 -0.7084
 5720SOL     OW18292   0.053   6.242   0.845 -0.0381  0.2167  0.0286
 5720SOL    HW118293   0.132   6.191   0.859  0.3899  0.7685 -0.3402
 5720SOL    HW218294   0.071   6.295   0.767 -0.9521 -0.0160 -0.3609
 5721SOL     OW18295   4.173   3.080   3.087 -0.0160  0.9613  0.1106
 5721SOL    HW118296   4.183   3.073   2.992 -0.0695  2.3693 -0.0171
 5721SOL    HW218297   4.237   3.018   3.123  0.4944  0.9287 -0.8300
 5722SOL     OW18298   7.714   5.556   2.691  0.1349  0.6686  0.3776
 5722SOL    HW118299   7.680   5.466   2.689 -0.1512  0.7554  0.9594
 5722SOL    HW218300   7.669   5.600   2.618 -0.6070  0.6361  0.8003
 5723SOL     OW18301   0.261   2.165   7.372 -0.2220 -0.4272 -0.4261
 5723SOL    HW118302   0.324   2.102   7.405  0.2851  0.8158  1.0478
 5723SOL    HW218303   0.180   2.147   7.421  0.8228  2.1241  2.5582
 5724SOL     OW18304   1.870   6.097   0.800  0.5608 -0.3182  0.0011
 5724SOL    HW118305   1.799   6.049   0.757  0.1920 -0.1001  0.3674
 5724SOL    HW218306   1.895   6.164   0.736  1.2176 -1.1075 -0.6007
 5725SOL     OW18307   0.979   0.253   2.498  0.1190 -0.0529  0.3255
 5725SOL    HW118308   1.023   0.168   2.509 -0.7370 -0.5302  0.1447
 5725SOL    HW218309   1.015   0.288   2.417 -0.7888 -1.0437 -0.5284
 5726SOL     OW18310   5.339   8.290   7.597 -0.0302  0.0763 -0.5778
 5726SOL    HW118311   5.251   8.265   7.624  0.1341  0.3622  0.2580
 5726SOL    HW218312   5.375   8.337   7.672  0.6093  0.5171 -1.1429
 5727SOL     OW18313   4.269   8.287   1.603 -0.0183  0.1400 -0.0271
 5727SOL    HW118314   4.288   8.217   1.540  1.2756  0.6289 -0.1905
 5727SOL    HW218315   4.263   8.241   1.688 -0.2453 -0.3094 -0.2803
 5728SOL     OW18316   2.900   4.886   0.487  0.6043  0.1406  0.1664
 5728SOL    HW118317   2.842   4.855   0.557  0.0102 -0.5162 -0.5946
 5728SOL    HW218318   2.895   4.818   0.420  0.6620  1.0540 -0.7888
 5729SOL     OW18319   9.059   0.206   5.726 -0.4133  0.7060 -0.0807
 5729SOL    HW118320   9.155   0.201   5.724 -0.4170 -1.8237  1.3053
 5729SOL    HW218321   9.038   0.226   5.817 -1.2072  0.0758 -0.1145
 5730SOL     OW18322   5.967   5.786   0.600  0.1954 -0.4467  0.7181
 5730SOL    HW118323   5.910   5.813   0.528  0.8547  0.6967  0.6042
 5730SOL    HW218324   5.930   5.826   0.678  0.7340  0.1663  0.6683
 5731SOL     OW18325   8.656   6.038   6.632  0.1584  0.2879 -0.9994
 5731SOL    HW118326   8.704   6.115   6.662 -1.2790  0.6318  0.5530
 5731SOL    HW218327   8.646   5.984   6.710  0.1762 -0.9670 -1.8315
 5732SOL     OW18328   4.602   0.426   7.916 -0.2239 -0.4080 -0.4869
 5732SOL    HW118329   4.602   0.515   7.882  1.2553 -0.5611 -0.9449
 5732SOL    HW218330   4.666   0.427   7.987 -0.1164 -1.1258 -0.5606
 5733SOL     OW18331   8.848   2.366   3.288  0.2360  0.1849 -0.0815
 5733SOL    HW118332   8.851   2.455   3.251 -0.8911  0.3169  0.1168
 5733SOL    HW218333   8.844   2.380   3.383 -1.5204 -0.0165 -0.1001
 5734SOL     OW18334   4.335   5.517   6.572  0.1344  0.0478  0.3210
 5734SOL    HW118335   4.288   5.435   6.590  0.1061  0.2211  1.0865
 5734SOL    HW218336   4.384   5.500   6.492 -0.1345 -0.6069  0.2892
 5735SOL     OW18337   1.761   7.699   2.141  0.1287 -0.0400  0.3893
 5735SOL    HW118338   1.770   7.739   2.054  0.7415 -0.0090  0.4627
 5735SOL    HW218339   1.727   7.611   2.123 -1.3075  0.5125  0.2324
 5736SOL     OW18340   7.841   8.582   6.986 -0.3186 -0.3271  0.5697
 5736SOL    HW118341   7.790   8.628   6.920  1.8671 -0.1846 -1.1604
 5736SOL    HW218342   7.925   8.627   6.987  0.8661 -2.3978  1.0061
 5737SOL     OW18343   0.577   4.276   8.884 -0.0055  0.3413  0.4654
 5737SOL    HW118344   0.612   4.353   8.839  1.0155 -0.6737 -0.5367
 5737SOL    HW218345   0.491   4.304   8.915 -1.2148  0.8930 -2.9361
 5738SOL     OW18346   4.861   2.850   1.570  0.6859  0.4701 -0.0403
 5738SOL    HW118347   4.921   2.916   1.535  2.2838  0.1144  1.8675
 5738SOL    HW218348   4.843   2.879   1.660 -1.1541 -0.0354 -0.2084
 5739SOL     OW18349   0.400   4.963   7.882  0.6265 -0.3656 -0.4266
 5739SOL    HW118350   0.493   4.987   7.875  0.8002 -1.0339 -0.5018
 5739SOL    HW218351   0.379   4.976   7.974  1.0204 -0.9899 -0.2456
 5740SOL     OW18352   7.480   7.263   0.772  0.3091 -0.3251 -0.3429
 5740SOL    HW118353   7.410   7.205   0.743 -0.3875  0.0433  0.5786
 5740SOL    HW218354   7.474   7.339   0.714  1.8972 -1.5544 -2.2668
 5741SOL     OW18355   3.172   5.698   3.739  0.4097  0.7819  0.1641
 5741SOL    HW118356   3.214   5.740   3.664 -0.7429  0.7015 -0.5409
 5741SOL    HW218357   3.244   5.656   3.786  1.5360  2.9913  0.5454
 5742SOL     OW18358   6.741   8.680   4.309 -0.2596  0.1081  0.9157
 5742SOL    HW118359   6.718   8.659   4.219  0.7651 -0.0053  0.6723
 5742SOL    HW218360   6.663   8.656   4.360 -0.9944  0.5616  0.0239
 5743SOL     OW18361   2.906   0.023   7.257 -0.0005  0.7273 -0.1780
 5743SOL    HW118362   2.989   0.067   7.242 -1.0195  2.3145 -1.6139
 5743SOL    HW218363   2.923  -0.069   7.235  1.5931  0.8147  0.5650
 5744SOL     OW18364   1.969   0.753   6.498 -0.3383 -1.1222 -0.6563
 5744SOL    HW118365   2.060   0.747   6.468 -0.2989 -1.5161 -0.4610
 5744SOL    HW218366   1.959   0.679   6.557 -0.8820 -1.2588 -0.9229
 5745SOL     OW18367   5.664   4.434   7.680 -0.3677  0.3619  0.1748
 5745SOL    HW118368   5.584   4.381   7.690 -0.7492  0.2740 -2.5902
 5745SOL    HW218369   5.670   4.483   7.762 -1.9029 -1.4001  1.4390
 5746SOL     OW18370   7.036   3.305   8.609 -0.0587  0.1983  0.4527
 5746SOL    HW118371   7.081   3.349   8.681  1.3854 -0.3323 -0.0911
 5746SOL    HW218372   7.105   3.261   8.560 -1.0029  0.4332 -1.1942
 5747SOL     OW18373   0.250   0.814   5.375 -0.6004 -0.2854  0.2883
 5747SOL    HW118374   0.308   0.739   5.388  1.0290  0.4127 -2.2754
 5747SOL    HW218375   0.300   0.889   5.408 -0.9730  0.0482  0.1061
 5748SOL     OW18376   4.085   3.329   7.767 -0.3226  0.2049  0.8424
 5748SOL    HW118377   4.119   3.411   7.731  0.1372 -0.4759 -0.2915
 5748SOL    HW218378   4.038   3.357   7.847 -0.6157  1.6276  0.2168
 5749SOL     OW18379   4.890   7.031   1.371  0.1672  0.5307  0.4752
 5749SOL    HW118380   4.879   7.068   1.459 -0.5398 -2.7475  1.9313
 5749SOL    HW218381   4.803   6.999   1.348  0.8367 -0.7314 -0.3960
 5750SOL     OW18382   8.778   5.813   6.329  0.0239 -0.2511 -0.2106
 5750SOL    HW118383   8.793   5.886   6.270  0.7546  0.1020  0.3990
 5750SOL    HW218384   8.704   5.765   6.290 -1.2901  1.4865  0.0389
 5751SOL     OW18385   8.797   8.303   6.536 -0.2405 -0.2081  0.1721
 5751SOL    HW118386   8.805   8.396   6.513 -1.5527 -0.1007  0.0801
 5751SOL    HW218387   8.869   8.261   6.489 -0.7526  0.5073 -1.3164
 5752SOL     OW18388   4.932   4.140   7.436 -0.3401  0.2384 -0.2620
 5752SOL    HW118389   4.952   4.057   7.479 -2.7613  0.3921  1.3990
 5752SOL    HW218390   4.857   4.121   7.379  0.0687  0.9731 -1.0760
 5753SOL     OW18391   1.838   7.467   7.735 -0.5058  0.1408 -0.7160
 5753SOL    HW118392   1.756   7.471   7.784  0.0065  0.5416  0.1211
 5753SOL    HW218393   1.850   7.374   7.716 -1.1223  0.0717 -0.8025
 5754SOL     OW18394   8.075   5.828   2.844  0.2515  0.2841  0.3845
 5754SOL    HW118395   8.060   5.796   2.756 -0.3001 -0.3770  0.7073
 5754SOL    HW218396   8.080   5.749   2.898  1.7773  0.6121  0.7825
 5755SOL     OW18397   5.048   5.094   6.620 -0.5793 -0.2204 -0.6944
 5755SOL    HW118398   5.059   5.176   6.572  0.2366 -0.7073 -1.3742
 5755SOL    HW218399   5.034   5.028   6.551 -0.8080 -0.7112 -0.1848
 5756SOL     OW18400   2.802   1.141   7.674 -0.4711  0.2562 -0.2600
 5756SOL    HW118401   2.744   1.203   7.631 -0.0030  0.0813 -1.1623
 5756SOL    HW218402   2.790   1.157   7.768 -0.9350  1.1576 -0.4705
 5757SOL     OW18403   0.901   4.010   7.074 -0.6254  0.2867 -0.0045
 5757SOL    HW118404   0.806   4.012   7.066 -0.6977 -0.3569  0.6498
 5757SOL    HW218405   0.918   3.978   7.162  0.2005 -0.3384 -0.3735
 5758SOL     OW18406   1.990   6.953   0.581 -0.1107  0.1738 -0.4482
 5758SOL    HW118407   1.985   7.017   0.652 -2.0113  0.5688 -0.9000
 5758SOL    HW218408   1.908   6.963   0.533  0.3454 -1.3490 -1.6270
 5759SOL     OW18409   0.465   8.844   0.498  0.1482 -0.1164  0.1707
 5759SOL    HW118410   0.468   8.760   0.454 -1.5567 -0.1064 -0.0299
 5759SOL    HW218411   0.469   8.909   0.427 -2.2290 -0.0978 -0.0221
 5760SOL     OW18412   5.482   3.869   5.240 -0.3574  0.4566 -0.3221
 5760SOL    HW118413   5.498   3.963   5.240  0.1703  0.3702  0.2838
 5760SOL    HW218414   5.563   3.830   5.271 -0.7894 -0.1588  0.0729
 5761SOL     OW18415   8.430   3.259   5.513 -0.2426  0.3370 -0.3558
 5761SOL    HW118416   8.370   3.264   5.588 -0.7843  1.0238 -0.8224
 5761SOL    HW218417   8.400   3.328   5.454  0.1039 -0.2799 -1.2678
 5762SOL     OW18418   1.979   5.888   8.601 -0.1062 -0.1132 -0.2003
 5762SOL    HW118419   1.993   5.956   8.667 -0.5432  0.1420 -0.3639
 5762SOL    HW218420   2.058   5.834   8.605  0.8769  1.1866 -1.0027
 5763SOL     OW18421   5.760   3.099   1.433  0.5862 -0.2808 -0.3437
 5763SOL    HW118422   5.748   3.138   1.520 -2.7486 -1.2893 -0.2046
 5763SOL    HW218423   5.800   3.014   1.451 -0.1641 -0.5202  0.2353
 5764SOL     OW18424   1.259   0.537   0.901  0.1041 -0.7483  0.3507
 5764SOL    HW118425   1.283   0.444   0.899 -1.7901 -1.3316  1.8213
 5764SOL    HW218426   1.240   0.555   0.993 -3.3898  0.0124 -0.4012
 5765SOL     OW18427   3.796   0.236   7.842  0.2800 -0.2104 -0.0913
 5765SOL    HW118428   3.725   0.295   7.869  1.8446  1.8080 -0.0709
 5765SOL    HW218429   3.798   0.168   7.909  0.5555  1.6334  1.8732
 5766SOL     OW18430   3.180   7.655   6.748 -0.1828  0.2959  0.5464
 5766SOL    HW118431   3.087   7.652   6.769 -0.3360  0.3371 -0.1203
 5766SOL    HW218432   3.194   7.743   6.713 -0.1467 -0.1283 -0.5167
 5767SOL     OW18433   6.298   7.235   6.101  0.2365 -0.1290  0.2357
 5767SOL    HW118434   6.325   7.176   6.172  2.6617  0.9246  0.2952
 5767SOL    HW218435   6.303   7.181   6.022  0.1259 -0.5990  0.5398
 5768SOL     OW18436   7.745   7.657   9.082 -0.1121 -0.9148  0.7229
 5768SOL    HW118437   7.718   7.713   9.156  0.0538 -1.7756  1.4573
 5768SOL    HW218438   7.799   7.589   9.122  1.4732 -0.3862 -0.4630
 5769SOL     OW18439   7.367   0.960   4.467 -0.0044  0.4026 -0.0749
 5769SOL    HW118440   7.303   0.985   4.534  0.7635 -0.2131  0.9070
 5769SOL    HW218441   7.431   0.906   4.513  2.3631  2.6009 -0.5392
 5770SOL     OW18442   6.392   3.310   6.151  0.2456 -0.3546  0.4592
 5770SOL    HW118443   6.461   3.300   6.085 -0.5876 -1.2855 -0.3049
 5770SOL    HW218444   6.356   3.397   6.135 -0.4122 -0.8318 -0.8194
 5771SOL     OW18445   8.323   8.736   2.667 -0.5569  0.6346  0.0052
 5771SOL    HW118446   8.370   8.753   2.748 -0.2512  0.5586 -0.1551
 5771SOL    HW218447   8.243   8.788   2.674 -0.8894  0.0516  0.6830
 5772SOL     OW18448   8.491   2.124   3.226 -0.0128 -0.0426  0.2611
 5772SOL    HW118449   8.462   2.049   3.277  0.4037  0.9035  1.9619
 5772SOL    HW218450   8.482   2.096   3.135 -0.7536 -1.7981  0.8334
 5773SOL     OW18451   8.771   8.911   2.361  0.1055 -0.2754  0.1329
 5773SOL    HW118452   8.677   8.897   2.370  0.0413 -0.7353 -0.9900
 5773SOL    HW218453   8.810   8.866   2.436 -0.5407 -0.6136  0.2717
 5774SOL     OW18454   1.644   2.145   6.437 -0.6202  0.3431 -0.1983
 5774SOL    HW118455   1.678   2.207   6.373 -0.0368  0.3801  0.1384
 5774SOL    HW218456   1.678   2.176   6.521  0.7829 -1.1482 -0.1632
 5775SOL     OW18457   1.153   3.927   5.067  0.1118 -0.3497  0.3755
 5775SOL    HW118458   1.083   3.873   5.104  0.2861 -0.7317  0.1550
 5775SOL    HW218459   1.119   3.956   4.983 -0.1358  0.2062  0.6691
 5776SOL     OW18460   6.156   8.284   8.715  0.1764  0.0154  0.4473
 5776SOL    HW118461   6.113   8.334   8.785 -0.8531 -0.0967 -0.0837
 5776SOL    HW218462   6.237   8.332   8.697  0.0679  0.4841  1.1726
 5777SOL     OW18463   6.198   3.132   8.127 -0.1264 -0.6609 -0.1597
 5777SOL    HW118464   6.155   3.135   8.042 -1.9109 -1.4777  0.6400
 5777SOL    HW218465   6.189   3.041   8.155 -2.5620  0.1429  2.2410
 5778SOL     OW18466   4.797   0.015   8.918  0.4311 -0.6902 -0.2638
 5778SOL    HW118467   4.892   0.021   8.928  0.4666 -1.8040  0.2288
 5778SOL    HW218468   4.772  -0.062   8.969 -1.0003  0.7191  1.3365
 5779SOL     OW18469   7.729   5.883   1.036  0.2283  0.2110  0.0459
 5779SOL    HW118470   7.741   5.850   1.125  1.0469  2.2743  0.7540
 5779SOL    HW218471   7.638   5.865   1.016  0.1923 -0.8604  1.0380
 5780SOL     OW18472   8.162   0.988   0.488 -0.7120 -0.1178  0.3010
 5780SOL    HW118473   8.198   0.955   0.571  1.2687 -0.4240 -0.6184
 5780SOL    HW218474   8.109   1.063   0.514  0.0003 -0.0957  1.8506
 5781SOL     OW18475   4.484   7.490   8.809  0.1922 -0.6061 -0.5021
 5781SOL    HW118476   4.460   7.412   8.759  0.9750 -0.1847 -1.5716
 5781SOL    HW218477   4.526   7.456   8.888 -0.5117 -1.2722 -0.4022
 5782SOL     OW18478   4.744   4.958   2.033 -0.5469  0.1738 -0.3657
 5782SOL    HW118479   4.797   4.881   2.052  1.3876  1.9092  1.7994
 5782SOL    HW218480   4.655   4.933   2.058  0.2085 -1.0472  1.2430
 5783SOL     OW18481   6.787   0.258   3.425 -0.6334 -0.4478  0.4275
 5783SOL    HW118482   6.871   0.270   3.469 -0.5018  1.9403 -0.3520
 5783SOL    HW218483   6.799   0.178   3.373  1.6672  0.4822 -0.6582
 5784SOL     OW18484   0.378   0.535   6.337 -0.0952  0.3740 -0.5068
 5784SOL    HW118485   0.388   0.472   6.408  0.3811  0.6575 -0.3228
 5784SOL    HW218486   0.445   0.602   6.354  0.6044 -0.0079 -1.7078
 5785SOL     OW18487   0.365   0.725   6.768  0.3301  0.2029 -0.2244
 5785SOL    HW118488   0.321   0.645   6.797  0.6482  0.6042  1.4585
 5785SOL    HW218489   0.450   0.723   6.810  0.1948  1.6158  0.1672
 5786SOL     OW18490   0.305   3.123   0.080 -0.1237 -0.3639 -0.2240
 5786SOL    HW118491   0.307   3.198   0.140 -2.9583  0.7778 -1.3833
 5786SOL    HW218492   0.232   3.070   0.111  1.2130 -2.1758 -0.0347
 5787SOL     OW18493   0.540   0.533   1.033  0.4258  1.0051 -0.4322
 5787SOL    HW118494   0.605   0.537   1.103  1.1635  2.4953 -1.1468
 5787SOL    HW218495   0.556   0.448   0.991  0.6653  0.5539  0.5457
 5788SOL     OW18496   7.906   5.190   5.290  0.7373  0.0090 -0.1530
 5788SOL    HW118497   7.832   5.181   5.351  1.1950  0.1562  0.4392
 5788SOL    HW218498   7.883   5.133   5.217 -1.1385  1.9763 -1.1925
 5789SOL     OW18499   0.445   8.359   0.182  0.1123  0.0633  0.2640
 5789SOL    HW118500   0.493   8.353   0.099 -1.4882 -0.8353 -0.6517
 5789SOL    HW218501   0.508   8.330   0.248  1.6718  1.5340 -0.4957
 5790SOL     OW18502   7.874   5.901   1.496  0.9385  0.1104  0.0346
 5790SOL    HW118503   7.932   5.841   1.543 -1.0165 -0.0016  2.5256
 5790SOL    HW218504   7.815   5.845   1.447  0.7319  0.0854  0.3105
 5791SOL     OW18505   5.080   2.522   7.315  0.0142 -0.4116 -0.0957
 5791SOL    HW118506   5.054   2.434   7.289 -0.9084 -0.2949  0.3733
 5791SOL    HW218507   4.997   2.566   7.334  0.5216  0.2667  0.5869
 5792SOL     OW18508   6.568   8.903   7.800 -0.6193  0.6179 -0.1844
 5792SOL    HW118509   6.588   8.897   7.893 -1.5422  1.1896  0.0677
 5792SOL    HW218510   6.601   8.821   7.762 -0.0306  0.4912  0.6027
 5793SOL     OW18511   2.149   7.721   2.672 -0.0955 -0.1442  0.4692
 5793SOL    HW118512   2.155   7.682   2.759  1.5229 -1.1970 -0.0629
 5793SOL    HW218513   2.217   7.676   2.621 -1.8605 -0.4870 -1.7208
 5794SOL     OW18514   8.647   4.839   8.212  0.5104  0.0143  0.0595
 5794SOL    HW118515   8.584   4.891   8.262 -0.2197 -0.3691 -0.4404
 5794SOL    HW218516   8.723   4.831   8.270  0.2747  0.8634  0.4970
 5795SOL     OW18517   7.568   1.481   3.133  0.0517 -0.8694  0.5767
 5795SOL    HW118518   7.477   1.500   3.155  0.3801  0.4202  0.9018
 5795SOL    HW218519   7.572   1.487   3.038 -0.0818 -0.3149  0.6033
 5796SOL     OW18520   0.214   6.784   6.548 -0.3469  0.5660  0.3993
 5796SOL    HW118521   0.276   6.738   6.491 -1.0385 -0.1965  0.2442
 5796SOL    HW218522   0.265   6.856   6.586  0.2202  0.8734 -0.9030
 5797SOL     OW18523   0.660   3.463   0.078  0.4244  0.3787 -0.7166
 5797SOL    HW118524   0.654   3.389   0.139 -1.3472  0.8270 -0.2925
 5797SOL    HW218525   0.569   3.484   0.058  0.9412  1.6093 -1.8722
 5798SOL     OW18526   2.535   5.897   0.059  0.5190 -0.1285 -0.4026
 5798SOL    HW118527   2.447   5.926   0.080  0.9495  0.7072  0.3125
 5798SOL    HW218528   2.582   5.900   0.143  1.3534 -0.0842 -0.8587
 5799SOL     OW18529   8.125   6.583   7.517 -0.3013  0.1539  0.7317
 5799SOL    HW118530   8.040   6.553   7.549 -0.0681 -0.1374  1.0935
 5799SOL    HW218531   8.123   6.678   7.527 -0.6598  0.1658  0.5476
 5800SOL     OW18532   0.848   6.730   3.991  0.2540  0.2695  0.3529
 5800SOL    HW118533   0.840   6.753   3.898  0.3185 -2.0421 -0.2875
 5800SOL    HW218534   0.762   6.751   4.028 -0.3963 -0.4841 -0.6660
 5801SOL     OW18535   1.024   0.449   7.895 -0.4766  0.0769  0.3986
 5801SOL    HW118536   1.068   0.534   7.891 -0.4334  0.0171 -1.1934
 5801SOL    HW218537   0.938   0.465   7.855  0.3283 -1.0569 -1.9282
 5802SOL     OW18538   3.987   3.206   1.373  0.2602  0.9505  0.0917
 5802SOL    HW118539   4.014   3.295   1.352 -0.5670  1.0629 -0.5404
 5802SOL    HW218540   3.897   3.215   1.405  0.3277  0.3916  0.4528
 5803SOL     OW18541   6.634   5.569   0.663  0.4390  0.4491  0.1518
 5803SOL    HW118542   6.630   5.546   0.570  1.4833  0.6513  0.0442
 5803SOL    HW218543   6.593   5.495   0.707 -0.2223  0.4282 -0.4773
 5804SOL     OW18544   7.641   4.946   6.465 -0.0459 -0.5368  0.0285
 5804SOL    HW118545   7.662   4.878   6.400 -0.1745 -1.4465  0.9144
 5804SOL    HW218546   7.727   4.979   6.493  0.0293 -0.6286 -0.0894
 5805SOL     OW18547   7.489   4.531   1.564  0.0091 -0.2108 -0.1412
 5805SOL    HW118548   7.398   4.529   1.592 -0.4488 -0.5625 -1.5608
 5805SOL    HW218549   7.507   4.624   1.549 -0.2836 -0.1840 -0.3440
 5806SOL     OW18550   8.863   8.185   2.741  0.5920  0.5576 -0.1996
 5806SOL    HW118551   8.771   8.159   2.743 -0.2161  3.0138 -0.9487
 5806SOL    HW218552   8.868   8.258   2.803  1.7664  1.1874 -0.9934
 5807SOL     OW18553   3.490   0.173   5.590  0.2118  0.2429  0.2386
 5807SOL    HW118554   3.429   0.108   5.624  0.5462  0.5172  1.4187
 5807SOL    HW218555   3.466   0.254   5.635  0.7706  0.5889 -0.0795
 5808SOL     OW18556   2.038   1.812   3.710 -0.2909  0.4203 -0.0265
 5808SOL    HW118557   2.083   1.777   3.787 -1.1135  1.6993  1.0721
 5808SOL    HW218558   2.065   1.754   3.639  0.8329 -0.5411  1.1272
 5809SOL     OW18559   5.878   1.044   3.370 -0.4182  0.0331 -0.0916
 5809SOL    HW118560   5.863   1.063   3.277 -0.2179  1.2116  0.1028
 5809SOL    HW218561   5.925   1.120   3.403 -0.2856 -0.4759  0.9323
 5810SOL     OW18562   5.858   2.818   3.893  0.0135 -0.2190 -0.3910
 5810SOL    HW118563   5.772   2.795   3.857 -1.2833  2.0945  1.0130
 5810SOL    HW218564   5.910   2.845   3.817 -1.9798  2.5345 -0.9212
 5811SOL     OW18565   3.506   5.019   7.555  0.2392  0.3525 -0.4127
 5811SOL    HW118566   3.559   5.098   7.565  0.1916  0.3829 -0.4014
 5811SOL    HW218567   3.420   5.042   7.591  0.5968 -0.0913  0.7703
 5812SOL     OW18568   1.485   5.394   6.589 -0.0215 -0.1544  0.1852
 5812SOL    HW118569   1.575   5.392   6.557  0.7399 -0.6601  2.1910
 5812SOL    HW218570   1.486   5.458   6.661 -0.3747 -2.4706  2.4261
 5813SOL     OW18571   8.887   4.470   0.979  0.4268 -0.0212  0.1546
 5813SOL    HW118572   8.930   4.537   1.032  1.3800 -0.4435 -0.0583
 5813SOL    HW218573   8.906   4.388   1.026 -0.0718 -0.2232  0.0031
 5814SOL     OW18574   5.270   5.495   1.515  0.4168 -0.4174  0.0074
 5814SOL    HW118575   5.226   5.424   1.562 -2.4273  2.2189  1.7417
 5814SOL    HW218576   5.262   5.571   1.573  1.6801  1.7705 -2.4479
 5815SOL     OW18577   2.526   2.352   2.930  0.6717 -0.1761 -0.2855
 5815SOL    HW118578   2.547   2.329   2.840 -0.5194 -1.3744 -0.2936
 5815SOL    HW218579   2.569   2.436   2.945  0.7089  0.1400 -2.0411
 5816SOL     OW18580   7.758   1.685   7.191 -0.4613 -0.3049 -1.0930
 5816SOL    HW118581   7.755   1.627   7.115 -0.8103 -1.8092  0.0229
 5816SOL    HW218582   7.666   1.702   7.212 -0.4087 -1.3271  0.0268
 5817SOL     OW18583   5.526   2.140   5.204 -0.1731  0.0842  0.3351
 5817SOL    HW118584   5.610   2.148   5.248 -1.0777  0.2932  2.1128
 5817SOL    HW218585   5.472   2.089   5.264 -1.8698  1.5017  0.1196
 5818SOL     OW18586   3.151   4.087   1.500 -0.3469 -0.2022  0.0729
 5818SOL    HW118587   3.210   4.085   1.574 -0.4718 -2.4053  0.1815
 5818SOL    HW218588   3.205   4.116   1.426  0.2479  0.1557  0.6471
 5819SOL     OW18589   8.019   3.141   4.123 -0.4236 -0.0535 -0.1353
 5819SOL    HW118590   7.980   3.121   4.207 -0.7433  2.3206  0.3520
 5819SOL    HW218591   8.059   3.059   4.094  1.2315 -0.5307  3.1312
 5820SOL     OW18592   0.692   1.596   2.175 -0.4486 -0.3614  0.0836
 5820SOL    HW118593   0.629   1.653   2.219 -0.2993 -1.0208  1.1672
 5820SOL    HW218594   0.717   1.645   2.097 -0.4623  0.9984  0.8991
 5821SOL     OW18595   5.051   4.213   7.929  0.5124  0.4916 -0.2126
 5821SOL    HW118596   5.074   4.221   7.837 -0.1028  0.0829 -0.4052
 5821SOL    HW218597   5.106   4.142   7.961  1.4063  1.2509 -0.0291
 5822SOL     OW18598   8.826   3.645   8.193  0.1053  0.1321  0.5438
 5822SOL    HW118599   8.849   3.711   8.259 -0.5318 -1.2899  2.2911
 5822SOL    HW218600   8.743   3.675   8.157 -0.6688 -0.1096  2.0057
 5823SOL     OW18601   1.878   5.635   7.782 -0.2545 -0.5091 -0.9488
 5823SOL    HW118602   1.911   5.624   7.872 -0.7487 -0.2902 -0.7377
 5823SOL    HW218603   1.811   5.567   7.773  1.0721 -1.7645 -1.7900
 5824SOL     OW18604   4.196   9.097   6.342 -0.0424 -0.2906  0.3016
 5824SOL    HW118605   4.289   9.081   6.361 -0.1284 -1.9569 -0.4579
 5824SOL    HW218606   4.165   9.149   6.416  1.6771  1.0419  0.1425
 5825SOL     OW18607   1.313   3.729   7.001 -0.1642 -0.6441  0.5062
 5825SOL    HW118608   1.370   3.765   6.933 -1.6796  0.7005 -0.0862
 5825SOL    HW218609   1.227   3.767   6.985 -1.1120 -2.0712  1.8106
 5826SOL     OW18610   1.296   3.870   2.821 -0.0960  0.0499  0.0820
 5826SOL    HW118611   1.313   3.870   2.727  1.1226  1.3362  0.2723
 5826SOL    HW218612   1.288   3.963   2.843  2.3778 -0.0381  1.6866
 5827SOL     OW18613   5.696   8.802   2.697 -0.2818 -0.2337 -0.2254
 5827SOL    HW118614   5.665   8.883   2.736 -0.8507 -0.3873 -0.3558
 5827SOL    HW218615   5.636   8.785   2.624  0.5010 -0.1874 -0.8913
 5828SOL     OW18616   0.031   8.547   4.117  0.4406 -0.4095  0.3333
 5828SOL    HW118617  -0.049   8.522   4.163  0.2107 -0.5667 -0.1445
 5828SOL    HW218618   0.101   8.530   4.180  0.1453 -0.7775  0.5701
 5829SOL     OW18619   2.039   7.907   6.549 -0.3739 -0.2732  0.5503
 5829SOL    HW118620   2.023   7.887   6.456 -0.6791 -3.2855  1.1336
 5829SOL    HW218621   1.953   7.897   6.590  0.1305 -1.0673  1.4449
 5830SOL     OW18622   0.503   8.810   6.983  0.2500 -0.1327  0.3052
 5830SOL    HW118623   0.453   8.886   7.012  1.3621  0.3275  1.1034
 5830SOL    HW218624   0.500   8.813   6.888  1.7717  1.9789  0.2525
 5831SOL     OW18625   3.267   9.107   0.854  0.5092 -0.3830 -0.3748
 5831SOL    HW118626   3.301   9.129   0.767  2.0627 -2.0189 -0.2511
 5831SOL    HW218627   3.296   9.178   0.911  0.2921  0.2250 -1.0167
 5832SOL     OW18628   3.151   3.752   7.816 -0.3297 -0.1454 -0.4945
 5832SOL    HW118629   3.161   3.706   7.732  1.3992 -0.4312 -0.1822
 5832SOL    HW218630   3.131   3.682   7.879  0.9520 -0.3219 -0.2528
 5833SOL     OW18631   0.690   5.472   4.007 -0.0979 -0.1502 -0.3684
 5833SOL    HW118632   0.672   5.546   4.064 -1.0125  0.8385 -1.8825
 5833SOL    HW218633   0.626   5.405   4.034 -0.8439  0.4822 -0.5190
 5834SOL     OW18634   7.833   7.928   2.546 -0.2921 -0.0582  0.2118
 5834SOL    HW118635   7.769   7.992   2.515 -0.9895 -0.0686  1.5623
 5834SOL    HW218636   7.809   7.847   2.500  0.5397  0.5853 -1.4320
 5835SOL     OW18637   5.474   6.591   8.767  0.4952  0.0054  0.1444
 5835SOL    HW118638   5.496   6.511   8.816  2.4243  0.2900 -0.1686
 5835SOL    HW218639   5.550   6.605   8.710 -1.2540  0.2354 -2.2475
 5836SOL     OW18640   6.754   4.992   1.291  0.3806 -0.4216 -0.0984
 5836SOL    HW118641   6.713   4.911   1.264  1.6189 -0.9045 -0.6110
 5836SOL    HW218642   6.708   5.018   1.370  0.1339 -1.7559  0.2082
 5837SOL     OW18643   8.873   1.621   6.893 -0.0782 -0.3875 -0.4150
 5837SOL    HW118644   8.903   1.671   6.817  3.5134  0.8420  1.5718
 5837SOL    HW218645   8.945   1.561   6.912 -0.4022  0.0191  2.5057
 5838SOL     OW18646   3.775   0.756   1.574 -0.4192 -0.1412 -0.0949
 5838SOL    HW118647   3.773   0.771   1.479  0.6496  2.1410  0.1911
 5838SOL    HW218648   3.726   0.829   1.611  2.4594  1.2327  1.2862
 5839SOL     OW18649   4.916   1.639   6.081  0.0556  0.7295  0.2339
 5839SOL    HW118650   4.935   1.626   6.174  0.8589 -0.8010 -0.1086
 5839SOL    HW218651   4.826   1.609   6.070  0.1986  0.2398  0.3961
 5840SOL     OW18652   6.972   6.740   1.715 -0.2105 -0.1056 -0.6425
 5840SOL    HW118653   6.964   6.673   1.783 -0.4839  1.7093  1.2098
 5840SOL    HW218654   6.961   6.692   1.633 -0.4511 -2.3038  0.5918
 5841SOL     OW18655   5.513   5.771   0.733  0.2187  0.6133  0.2315
 5841SOL    HW118656   5.434   5.718   0.721 -0.1579  1.0947  0.5952
 5841SOL    HW218657   5.488   5.839   0.794  2.0286 -1.6942  3.9169
 5842SOL     OW18658   4.338   7.195   2.304  0.2784 -0.3242 -0.2767
 5842SOL    HW118659   4.375   7.108   2.320 -0.5921 -0.3478  2.0838
 5842SOL    HW218660   4.291   7.186   2.221  0.3958 -2.0499 -0.2100
 5843SOL     OW18661   8.261   6.597   8.203  0.5131 -0.7468 -0.2458
 5843SOL    HW118662   8.169   6.580   8.182  0.5502  0.7647 -1.8487
 5843SOL    HW218663   8.257   6.659   8.276  0.3353 -2.6974  1.4773
 5844SOL     OW18664   9.087   8.445   1.194  0.3289 -0.6116  0.1124
 5844SOL    HW118665   9.025   8.471   1.126 -1.4310  1.1748  2.2420
 5844SOL    HW218666   9.031   8.415   1.267  2.0023 -0.1485  1.6636
 5845SOL     OW18667   6.787   4.735   0.071  0.1926 -0.4225  0.1125
 5845SOL    HW118668   6.790   4.653   0.120 -0.8855 -0.6092 -0.1075
 5845SOL    HW218669   6.722   4.719   0.002  1.6320 -0.1529 -1.3594
 5846SOL     OW18670   0.872   0.905   6.874 -0.1617  0.8097 -0.6048
 5846SOL    HW118671   0.788   0.947   6.858  0.0441  1.7403  0.5873
 5846SOL    HW218672   0.851   0.831   6.931 -0.3267  0.2216 -1.4137
 5847SOL     OW18673   6.352   3.477   2.725 -0.3875 -0.2260 -0.1146
 5847SOL    HW118674   6.282   3.514   2.778 -0.3000  1.3170 -1.0248
 5847SOL    HW218675   6.394   3.553   2.684  1.0011 -1.2094 -0.5810
 5848SOL     OW18676   2.734   2.840   2.891 -0.8112  0.3166  0.6432
 5848SOL    HW118677   2.784   2.921   2.901 -0.2786  0.1028 -0.1840
 5848SOL    HW218678   2.759   2.807   2.805 -0.3197 -1.2096  1.3284
 5849SOL     OW18679   3.298   1.554   5.569 -0.3875  0.1608 -0.3628
 5849SOL    HW118680   3.388   1.566   5.601 -0.8334 -0.7092  1.3570
 5849SOL    HW218681   3.244   1.597   5.634 -1.2415  0.7534 -1.4363
 5850SOL     OW18682   2.569   6.866   6.515 -0.1483 -0.4912  0.2863
 5850SOL    HW118683   2.605   6.877   6.427 -0.5626 -1.7608 -0.0648
 5850SOL    HW218684   2.636   6.816   6.562 -0.9933 -2.0886 -0.1109
 5851SOL     OW18685   8.934   5.871   7.125  0.1775  0.3743  0.2379
 5851SOL    HW118686   8.931   5.867   7.029 -2.2761  1.0215  0.2257
 5851SOL    HW218687   8.845   5.897   7.151  0.4038 -1.0607  2.7640
 5852SOL     OW18688   2.182   0.145   6.126 -0.4190 -0.2153  0.0500
 5852SOL    HW118689   2.112   0.197   6.085 -0.3829  0.7144  1.1279
 5852SOL    HW218690   2.219   0.203   6.192  1.7317 -0.4988 -0.8468
 5853SOL     OW18691   8.375   3.632   6.372 -0.2076  0.8160 -0.0326
 5853SOL    HW118692   8.361   3.566   6.440  3.3384 -0.3022 -0.1769
 5853SOL    HW218693   8.320   3.603   6.299 -1.8865  0.4461  1.2971
 5854SOL     OW18694   7.365   2.793   2.322 -0.0865  0.0466 -0.2072
 5854SOL    HW118695   7.369   2.825   2.232 -0.5000 -0.4275 -0.3986
 5854SOL    HW218696   7.279   2.752   2.329  0.3024 -0.7216  0.1286
 5855SOL     OW18697   1.299   2.306   4.848  0.0679 -0.9220 -0.0333
 5855SOL    HW118698   1.237   2.335   4.781  0.0273 -0.8892  0.0185
 5855SOL    HW218699   1.267   2.345   4.929 -0.1034 -1.2716  0.0714
 5856SOL     OW18700   2.338   4.928   8.306  0.1140 -0.5661 -0.3572
 5856SOL    HW118701   2.255   4.895   8.340 -0.4089 -0.9820 -1.9243
 5856SOL    HW218702   2.402   4.910   8.375 -0.3828 -3.7720 -0.5871
 5857SOL     OW18703   0.184   1.377   3.528  0.2297  0.3063  0.0911
 5857SOL    HW118704   0.125   1.371   3.604  0.9086 -1.0420  0.5286
 5857SOL    HW218705   0.218   1.289   3.516  0.7075  0.6561 -1.3522
 5858SOL     OW18706   7.966   6.246   6.605  0.1534  0.2625  0.0090
 5858SOL    HW118707   8.003   6.211   6.524 -0.8873  0.6806 -0.6693
 5858SOL    HW218708   7.871   6.237   6.595 -0.1069  2.1167  0.2981
 5859SOL     OW18709   3.749   6.753   6.841 -0.0654  0.3889 -0.2507
 5859SOL    HW118710   3.753   6.759   6.746 -0.3379 -1.1500 -0.3781
 5859SOL    HW218711   3.656   6.747   6.861  0.0581 -0.8853 -0.0149
 5860SOL     OW18712   6.964   1.033   8.753  0.0892  0.0606  0.3825
 5860SOL    HW118713   6.948   1.093   8.679 -1.4481 -0.7152  0.0428
 5860SOL    HW218714   6.897   1.056   8.817 -0.2132 -0.9560  0.4490
 5861SOL     OW18715   6.517   7.505   3.480 -0.1794 -0.1878  0.5101
 5861SOL    HW118716   6.531   7.411   3.486  0.1394 -0.1080  1.1270
 5861SOL    HW218717   6.441   7.515   3.423  0.2762 -0.7817 -0.2235
 5862SOL     OW18718   4.240   1.711   0.535 -0.1718  0.1409  0.2745
 5862SOL    HW118719   4.232   1.731   0.442 -0.5704  0.2353  0.3269
 5862SOL    HW218720   4.149   1.701   0.565 -0.0703  0.6965  0.7793
 5863SOL     OW18721   8.905   3.653   3.442 -0.0857  0.2975  0.2867
 5863SOL    HW118722   8.995   3.622   3.432  0.2779  1.5784 -0.8074
 5863SOL    HW218723   8.886   3.646   3.535  2.0865  2.3751  0.9802
 5864SOL     OW18724   2.278   1.024   7.211  0.1532 -0.1433  0.0794
 5864SOL    HW118725   2.337   0.951   7.194 -0.3790 -0.3504 -0.9657
 5864SOL    HW218726   2.192   0.983   7.223 -0.0724  0.2649 -0.1022
 5865SOL     OW18727   4.546   5.304   1.417 -0.2613  0.1578 -0.2112
 5865SOL    HW118728   4.521   5.391   1.448  0.0777  0.3734 -0.5264
 5865SOL    HW218729   4.626   5.284   1.466 -0.0556  0.2459 -0.5050
 5866SOL     OW18730   1.590   1.300   4.180 -0.1112 -0.1304  0.2641
 5866SOL    HW118731   1.563   1.388   4.207  0.6726  0.0764  0.3956
 5866SOL    HW218732   1.658   1.275   4.243  0.7997 -0.1775 -0.7148
 5867SOL     OW18733   0.835   2.890   2.970 -0.2433 -0.0795  0.0450
 5867SOL    HW118734   0.748   2.923   2.944 -0.4161  0.2245  0.9738
 5867SOL    HW218735   0.890   2.906   2.894 -1.0313 -0.3915 -0.6062
 5868SOL     OW18736   0.784   0.478   8.751  0.2667  0.0369  0.1118
 5868SOL    HW118737   0.794   0.566   8.787 -1.7384 -0.6618  2.7009
 5868SOL    HW218738   0.858   0.429   8.785  1.9814  0.8828 -2.2008
 5869SOL     OW18739   5.540   8.869   3.796  0.2422 -0.5270  0.5068
 5869SOL    HW118740   5.539   8.774   3.787 -0.7323 -0.4175 -0.7196
 5869SOL    HW218741   5.586   8.901   3.718 -1.5308  0.0924 -0.3343
 5870SOL     OW18742   3.374   8.663   0.873  0.3995 -0.1904 -0.0601
 5870SOL    HW118743   3.441   8.732   0.876  2.4462 -1.4269 -5.4824
 5870SOL    HW218744   3.416   8.587   0.915  0.5818  0.2219  0.5141
 5871SOL     OW18745   0.304   2.823   8.674 -0.3317 -0.2850  0.5894
 5871SOL    HW118746   0.306   2.877   8.753  0.8007 -0.0933  0.4505
 5871SOL    HW218747   0.263   2.879   8.608 -0.1384  0.0174  0.7221
 5872SOL     OW18748   2.610   7.210   5.179 -0.5102 -0.3511 -0.0870
 5872SOL    HW118749   2.677   7.227   5.245 -0.7045 -0.4511  0.1411
 5872SOL    HW218750   2.550   7.284   5.186 -0.2955 -0.1362 -0.4607
 5873SOL     OW18751   8.231   2.806   2.060  0.0018 -0.3392  0.7438
 5873SOL    HW118752   8.271   2.728   2.100  1.4289  1.0260  2.1065
 5873SOL    HW218753   8.256   2.878   2.118  0.5197  1.4761 -1.5999
 5874SOL     OW18754   1.829   4.972   6.428  0.0855 -0.2894  0.4442
 5874SOL    HW118755   1.792   4.984   6.341 -0.7764  0.6508  0.9153
 5874SOL    HW218756   1.923   4.968   6.414  0.2033  2.9336 -0.2664
 5875SOL     OW18757   6.671   4.981   2.837  0.0717 -0.0011 -0.1514
 5875SOL    HW118758   6.629   5.064   2.859 -0.0784 -0.7226  2.6728
 5875SOL    HW218759   6.655   4.925   2.913  1.2304 -2.2255 -1.4397
 5876SOL     OW18760   2.297   2.193   0.379  0.5437  0.5394  0.3995
 5876SOL    HW118761   2.361   2.142   0.330  0.8009 -0.8670  2.1424
 5876SOL    HW218762   2.313   2.172   0.471 -1.0409  1.7852  1.0139
 5877SOL     OW18763   3.185   6.266   4.913  0.2881 -0.0172 -0.1220
 5877SOL    HW118764   3.101   6.295   4.948  1.5427  1.5821  1.8702
 5877SOL    HW218765   3.163   6.202   4.846 -2.5166  1.0462 -0.3469
 5878SOL     OW18766   7.219   5.879   2.894 -0.4913 -0.2015  0.1336
 5878SOL    HW118767   7.260   5.875   2.980 -0.7906  1.2322  0.3665
 5878SOL    HW218768   7.251   5.801   2.848  0.4186 -0.4774  1.2044
 5879SOL     OW18769   8.074   7.960   4.606 -0.3997 -0.5559  0.0600
 5879SOL    HW118770   8.063   8.048   4.569 -0.7295 -0.4720  0.3530
 5879SOL    HW218771   7.986   7.924   4.609 -0.4642 -0.3147  1.3678
 5880SOL     OW18772   0.783   7.432   6.987 -0.1639 -0.1984  0.1468
 5880SOL    HW118773   0.760   7.451   7.078  0.5104 -0.8949  0.4737
 5880SOL    HW218774   0.851   7.366   6.993 -0.6742 -0.8373 -0.8983
 5881SOL     OW18775   8.701   7.949   9.047 -0.3655 -0.2199 -0.2109
 5881SOL    HW118776   8.670   7.962   9.137  1.1006 -1.1722  0.4550
 5881SOL    HW218777   8.654   7.871   9.017  0.4743 -0.9816  0.3944
 5882SOL     OW18778   3.652   4.923   8.846  0.0908 -0.2090 -0.1460
 5882SOL    HW118779   3.685   4.866   8.916  2.2162  0.5045 -0.5062
 5882SOL    HW218780   3.730   4.959   8.805 -1.1446  2.4266 -0.4020
 5883SOL     OW18781   0.726   4.945   0.974 -0.2721  0.1152  0.1315
 5883SOL    HW118782   0.652   5.002   0.956 -0.6612 -1.2600 -3.4829
 5883SOL    HW218783   0.771   4.986   1.048 -2.2796  3.2432 -0.2084
 5884SOL     OW18784   8.869   3.591   1.400  0.2564  0.0437 -0.0599
 5884SOL    HW118785   8.891   3.500   1.422 -0.0458 -0.7788 -2.7758
 5884SOL    HW218786   8.788   3.584   1.349 -0.1204  1.9348  0.2129
 5885SOL     OW18787   8.713   4.230   2.981 -0.3595 -0.4591 -0.2229
 5885SOL    HW118788   8.651   4.303   2.987 -1.2450 -1.1213 -0.9717
 5885SOL    HW218789   8.682   4.179   2.906  0.3866 -1.4827  0.1481
 5886SOL     OW18790   0.023   6.473   3.620  0.2742 -0.0148 -0.5081
 5886SOL    HW118791  -0.046   6.407   3.612  0.0877  0.2171 -0.8328
 5886SOL    HW218792   0.104   6.422   3.621  0.0469 -0.4680  2.0717
 5887SOL     OW18793   4.634   2.906   0.333 -0.0424  0.0206 -0.3707
 5887SOL    HW118794   4.630   2.901   0.429  4.6119  1.1982  0.1129
 5887SOL    HW218795   4.562   2.964   0.309 -0.6074  0.6713  2.5289
 5888SOL     OW18796   0.707   3.813   5.934  0.8560 -0.8202  0.1484
 5888SOL    HW118797   0.715   3.831   6.027  0.4105 -0.5555  0.1373
 5888SOL    HW218798   0.613   3.815   5.917  0.9369 -0.8363 -0.3110
 5889SOL     OW18799   1.448   7.234   1.451 -0.3893  0.1088  0.7064
 5889SOL    HW118800   1.384   7.258   1.384 -0.4156 -0.2516  0.6013
 5889SOL    HW218801   1.407   7.162   1.498 -0.3418  0.3156  1.0718
 5890SOL     OW18802   4.403   6.557   2.165  0.1205 -0.6199  0.3438
 5890SOL    HW118803   4.365   6.595   2.245  1.8606 -1.5735  1.6746
 5890SOL    HW218804   4.496   6.578   2.169  0.5013 -1.9118 -0.7123
 5891SOL     OW18805   4.096   5.258   2.707 -0.6555 -0.4226  0.0500
 5891SOL    HW118806   4.143   5.263   2.623  1.6576 -0.6625  1.2640
 5891SOL    HW218807   4.031   5.189   2.694 -0.9987  0.1890 -1.8168
 5892SOL     OW18808   2.719   0.168   8.283 -0.6951 -0.1299 -0.3381
 5892SOL    HW118809   2.768   0.206   8.210  0.3419  1.7056  1.2060
 5892SOL    HW218810   2.688   0.244   8.332 -2.3063 -1.3088  0.5429
 5893SOL     OW18811   2.009   8.853   6.030 -0.3214 -0.4799 -0.7211
 5893SOL    HW118812   1.989   8.760   6.028  1.8695 -1.0204 -0.6615
 5893SOL    HW218813   1.944   8.891   6.090 -0.1854 -2.2808  0.6403
 5894SOL     OW18814   0.546   3.862   6.462  0.0507  0.5653  0.3282
 5894SOL    HW118815   0.630   3.903   6.438 -0.1692  0.7804 -0.0966
 5894SOL    HW218816   0.552   3.848   6.556 -0.4013  2.8637  0.7495
 5895SOL     OW18817   6.005   3.772   4.882 -0.1058  0.1591  0.4341
 5895SOL    HW118818   5.983   3.730   4.965 -1.4123 -0.8887 -0.4052
 5895SOL    HW218819   5.935   3.836   4.869  1.2568  1.8792  1.1486
 5896SOL     OW18820   2.242   7.177   3.439  0.0831 -0.4610  0.5843
 5896SOL    HW118821   2.236   7.160   3.345  0.6473  2.5196 -0.1090
 5896SOL    HW218822   2.218   7.094   3.480  0.5777 -2.1019 -2.1703
 5897SOL     OW18823   4.738   8.223   5.249  0.2657 -0.1485 -0.1029
 5897SOL    HW118824   4.760   8.157   5.315 -0.2264  0.1940  0.4119
 5897SOL    HW218825   4.732   8.174   5.167 -2.7498 -1.2586  0.6713
 5898SOL     OW18826   2.796   7.825   4.311  0.3527 -0.4743  0.5544
 5898SOL    HW118827   2.715   7.854   4.269  0.3855 -1.1857 -0.0283
 5898SOL    HW218828   2.803   7.878   4.390 -1.0122 -0.8265  0.9376
 5899SOL     OW18829   3.240   7.600   3.922  0.7862  0.1265  0.1963
 5899SOL    HW118830   3.224   7.505   3.926  2.1245 -0.1426 -0.2675
 5899SOL    HW218831   3.185   7.630   3.850  0.7303 -0.3806  0.0186
 5900SOL     OW18832   0.154   4.338   1.749  0.1997  0.1021 -0.0367
 5900SOL    HW118833   0.107   4.257   1.767  0.7253  0.2172  2.2039
 5900SOL    HW218834   0.245   4.312   1.737  0.0488  0.1721 -1.5327
 5901SOL     OW18835   5.079   6.066   3.543  0.9744  0.3456 -0.3019
 5901SOL    HW118836   5.162   6.021   3.528  0.3528 -0.4156 -1.6150
 5901SOL    HW218837   5.075   6.132   3.474  1.1746  1.4089  0.6855
 5902SOL     OW18838   3.064   7.417   3.139  0.2021  0.3746 -0.2258
 5902SOL    HW118839   2.980   7.453   3.167  0.3544 -0.0971  0.8597
 5902SOL    HW218840   3.052   7.399   3.045 -0.8883  0.3442 -0.0947
 5903SOL     OW18841   8.797   8.036   5.755  0.0077  1.0030 -0.3242
 5903SOL    HW118842   8.781   8.130   5.762  2.0408  1.3806 -0.1113
 5903SOL    HW218843   8.892   8.028   5.747 -0.1923 -0.9553 -1.7455
 5904SOL     OW18844   5.186   0.130   2.368  0.1735  0.5051 -0.4954
 5904SOL    HW118845   5.247   0.108   2.438 -0.2438  0.4704 -0.1391
 5904SOL    HW218846   5.179   0.225   2.370 -2.0483  0.3989  1.4461
 5905SOL     OW18847   6.572   8.157   1.651 -0.1882 -0.3069  0.2818
 5905SOL    HW118848   6.620   8.219   1.595 -1.3084  1.7598  1.4760
 5905SOL    HW218849   6.483   8.157   1.616 -0.6552  0.2615  1.4261
 5906SOL     OW18850   6.991   3.156   0.224 -0.0083  0.0429 -0.1629
 5906SOL    HW118851   6.924   3.220   0.249 -0.8899 -0.0969 -2.0118
 5906SOL    HW218852   6.993   3.094   0.297 -0.3353  1.2356  0.9034
 5907SOL     OW18853   0.910   7.349   6.195 -0.1720 -0.0517 -0.1226
 5907SOL    HW118854   0.978   7.379   6.255 -0.5282  1.7463 -0.5399
 5907SOL    HW218855   0.856   7.427   6.180 -1.3380 -1.0097 -1.0964
 5908SOL     OW18856   2.929   7.718   2.978  0.0260 -0.5248 -0.2298
 5908SOL    HW118857   2.851   7.746   2.930  1.2312 -0.9472 -2.5647
 5908SOL    HW218858   3.000   7.769   2.940  1.0450 -0.8396  1.1879
 5909SOL     OW18859   2.979   4.467   3.264 -0.3443 -0.9041  0.0202
 5909SOL    HW118860   3.037   4.532   3.302  0.8154 -1.2436 -1.1260
 5909SOL    HW218861   2.958   4.408   3.337 -0.6339  0.1627  0.8329
 5910SOL     OW18862   8.322   4.985   9.073  0.4926 -0.1693  0.2349
 5910SOL    HW118863   8.321   4.889   9.080  1.2436 -0.1355  0.9862
 5910SOL    HW218864   8.288   5.015   9.158  0.1493  0.2401 -0.0408
 5911SOL     OW18865   2.063   2.050   7.263 -0.4346  0.2710 -0.4061
 5911SOL    HW118866   2.109   1.989   7.204 -0.3260 -1.0716  1.0172
 5911SOL    HW218867   2.079   2.136   7.224 -0.1930 -0.5324 -2.2258
 5912SOL     OW18868   7.689   6.535   6.801  0.6361 -0.0060  0.0031
 5912SOL    HW118869   7.702   6.448   6.764  5.1511  0.1952  0.5570
 5912SOL    HW218870   7.741   6.593   6.746  1.1078  1.6130  2.0346
 5913SOL     OW18871   6.487   4.793   7.477  0.5514  0.3238 -0.2240
 5913SOL    HW118872   6.480   4.753   7.564 -0.9968 -0.0640 -0.4934
 5913SOL    HW218873   6.580   4.814   7.468  1.3373 -2.5233  0.2329
 5914SOL     OW18874   2.293   0.042   0.768  0.3095  0.6190  0.0822
 5914SOL    HW118875   2.228   0.112   0.761  0.8774  1.2325  0.7839
 5914SOL    HW218876   2.353   0.057   0.695 -0.9218 -0.6046 -1.2399
 5915SOL     OW18877   8.909   1.946   0.270 -0.0269  0.3596 -0.3540
 5915SOL    HW118878   8.870   1.881   0.327 -0.3627  0.2239 -0.7386
 5915SOL    HW218879   8.837   1.981   0.219  0.2734  0.4682 -0.7115
 5916SOL     OW18880   2.955   2.525   4.078  0.4520 -0.2889 -0.4532
 5916SOL    HW118881   2.914   2.509   3.993 -0.0978  0.0037 -0.2513
 5916SOL    HW218882   3.029   2.582   4.059  0.7313 -0.7643 -0.8187
 5917SOL     OW18883   5.755   7.669   7.707 -0.4231 -0.4673  0.3363
 5917SOL    HW118884   5.673   7.718   7.710  0.4684  1.1909 -0.8817
 5917SOL    HW218885   5.728   7.577   7.712 -2.2677  0.0628  0.9849
 5918SOL     OW18886   8.292   5.234   7.516 -0.6640  0.5043 -0.1112
 5918SOL    HW118887   8.247   5.150   7.516 -1.0462  0.6635  1.9318
 5918SOL    HW218888   8.281   5.268   7.605  1.3491  1.7137 -0.2477
 5919SOL     OW18889   3.747   4.681   5.111 -0.0540  0.6540 -0.2885
 5919SOL    HW118890   3.653   4.696   5.114 -0.0090  0.8045  0.8636
 5919SOL    HW218891   3.782   4.730   5.185  1.0713  1.4888 -1.3339
 5920SOL     OW18892   3.125   3.989   8.856  0.1369 -0.0159  0.4104
 5920SOL    HW118893   3.149   4.071   8.812  1.2345  0.8219  2.4476
 5920SOL    HW218894   3.105   3.928   8.784  0.9192  1.5364 -1.1957
 5921SOL     OW18895   2.167   2.640   7.348 -0.3412  0.2156  0.1841
 5921SOL    HW118896   2.170   2.595   7.432 -0.3045  1.6287  0.9733
 5921SOL    HW218897   2.099   2.594   7.299 -0.4319 -0.5686  1.0096
 5922SOL     OW18898   1.860   2.564   4.198  0.3591 -0.6098 -0.8890
 5922SOL    HW118899   1.769   2.557   4.227  1.0611  0.1648  1.8513
 5922SOL    HW218900   1.856   2.617   4.118 -1.6055 -0.7283 -0.9051
 5923SOL     OW18901   1.055   6.986   3.579  0.0160  0.2941 -0.3489
 5923SOL    HW118902   0.981   7.025   3.534  0.4384  0.4376 -0.9293
 5923SOL    HW218903   1.132   7.020   3.534  0.3992 -1.8602 -1.4864
 5924SOL     OW18904   9.030   3.433   1.989  0.0057  0.1822 -0.2063
 5924SOL    HW118905   9.109   3.487   1.991 -0.9398  1.6807 -1.1690
 5924SOL    HW218906   9.030   3.394   1.901 -0.5896  0.6274 -0.4091
 5925SOL     OW18907   2.065   7.254   1.673  0.3114 -0.0004 -0.7973
 5925SOL    HW118908   2.055   7.207   1.590 -0.5600  0.0790 -0.7449
 5925SOL    HW218909   2.000   7.214   1.732 -0.2573  1.0581 -0.6646
 5926SOL     OW18910   7.586   7.748   8.691  0.0780 -0.0484  0.0136
 5926SOL    HW118911   7.672   7.741   8.650  0.2437  1.1200  0.1292
 5926SOL    HW218912   7.582   7.675   8.752  1.0064 -0.0790  0.0461
 5927SOL     OW18913   8.525   7.303   3.199  0.2217 -0.5900 -0.3083
 5927SOL    HW118914   8.533   7.223   3.146  2.7245  0.1850 -1.2342
 5927SOL    HW218915   8.471   7.276   3.274  0.0096 -2.8141 -1.1703
 5928SOL     OW18916   6.234   3.804   2.006  0.0710  0.1849 -0.1378
 5928SOL    HW118917   6.238   3.859   1.927 -2.5991 -0.9433 -1.1781
 5928SOL    HW218918   6.149   3.825   2.045  0.5246 -0.6961  1.3978
 5929SOL     OW18919   1.466   1.619   5.353  0.0823  0.7290  0.2116
 5929SOL    HW118920   1.528   1.608   5.281 -0.1874 -0.2004  0.1104
 5929SOL    HW218921   1.405   1.546   5.344 -0.3283  0.9569  1.0147
 5930SOL     OW18922   7.373   8.748   3.703 -0.2150 -0.0345  0.2627
 5930SOL    HW118923   7.366   8.785   3.791 -1.0326 -0.0451  0.2167
 5930SOL    HW218924   7.293   8.777   3.659 -0.3932 -1.0234 -0.0889
 5931SOL     OW18925   7.803   3.830   6.255  0.3742  0.1487  0.6463
 5931SOL    HW118926   7.865   3.903   6.261 -1.8798  2.3009 -0.6760
 5931SOL    HW218927   7.743   3.844   6.329 -1.7887  1.4662 -1.2285
 5932SOL     OW18928   3.000   2.606   6.458  0.3600  0.0593 -0.0670
 5932SOL    HW118929   3.071   2.577   6.516  1.2576  1.6874 -0.2941
 5932SOL    HW218930   3.044   2.655   6.388 -0.9450  0.8254 -0.3938
 5933SOL     OW18931   8.778   4.300   0.581  0.0241 -0.0717  0.3337
 5933SOL    HW118932   8.791   4.207   0.602 -0.0694  0.1160  1.2801
 5933SOL    HW218933   8.776   4.303   0.485 -1.6514 -1.2986  0.2834
 5934SOL     OW18934   5.136   8.150   6.537  0.2502  0.5339  0.0635
 5934SOL    HW118935   5.066   8.216   6.543  1.7478  2.5192 -2.4091
 5934SOL    HW218936   5.208   8.195   6.493  2.4849 -1.9482  0.9245
 5935SOL     OW18937   0.112   0.793   5.139 -0.0885  0.1924 -0.0605
 5935SOL    HW118938   0.172   0.785   5.213 -0.2427 -1.9467 -0.0987
 5935SOL    HW218939   0.160   0.754   5.065 -1.4465 -1.5369 -0.1027
 5936SOL     OW18940   1.686   8.057   2.323  0.4067 -0.3491  0.3312
 5936SOL    HW118941   1.695   8.119   2.250  0.6881 -1.1029 -0.2903
 5936SOL    HW218942   1.634   8.104   2.388  1.5308  0.9512  0.3441
 5937SOL     OW18943   5.672   0.434   1.174 -0.6381 -0.3638 -0.0534
 5937SOL    HW118944   5.637   0.352   1.210  0.7734 -0.7652  0.4768
 5937SOL    HW218945   5.766   0.431   1.194 -0.5275  1.3179 -0.1520
 5938SOL     OW18946   0.575   8.597   4.750 -0.3748  0.2004  0.1422
 5938SOL    HW118947   0.627   8.588   4.670 -0.6995 -2.9516  0.1493
 5938SOL    HW218948   0.486   8.576   4.723 -1.1327  2.3080  0.7821
 5939SOL     OW18949   8.127   0.409   7.629  0.1981  0.1710  0.3172
 5939SOL    HW118950   8.116   0.314   7.620  3.7887 -0.6409  2.3577
 5939SOL    HW218951   8.132   0.423   7.723  1.5678  2.0662  0.0113
 5940SOL     OW18952   3.505   6.411   6.103  0.2015 -0.2420 -0.0215
 5940SOL    HW118953   3.529   6.370   6.020 -2.0904 -1.1610 -0.3234
 5940SOL    HW218954   3.430   6.359   6.134  1.3781 -0.3397  2.9693
 5941SOL     OW18955   3.823   0.522   8.175 -0.3363 -0.4930 -0.7224
 5941SOL    HW118956   3.866   0.558   8.253 -0.2438 -1.6715 -0.2005
 5941SOL    HW218957   3.895   0.506   8.114 -0.2660 -0.6238 -0.6075
 5942SOL     OW18958   5.089   1.759   3.358 -0.8055  0.1961 -0.0652
 5942SOL    HW118959   5.137   1.679   3.340 -0.4078  0.6745 -1.2414
 5942SOL    HW218960   5.006   1.729   3.395 -0.4436 -0.7269  0.0326
 5943SOL     OW18961   1.600   9.050   1.532 -0.5154 -0.2668  0.0652
 5943SOL    HW118962   1.580   9.133   1.576 -0.2848  0.4295 -1.1003
 5943SOL    HW218963   1.538   9.046   1.460 -0.4498 -1.0638  0.0481
 5944SOL     OW18964   8.611   7.249   3.769  0.4270  0.4346 -0.1831
 5944SOL    HW118965   8.534   7.226   3.820  0.4837 -0.6386 -0.5567
 5944SOL    HW218966   8.645   7.328   3.811 -0.3808  0.4274  0.5054
 5945SOL     OW18967   2.992   2.398   7.266  0.0346  0.3070  0.4477
 5945SOL    HW118968   2.987   2.325   7.204 -1.4444  0.9521 -0.2401
 5945SOL    HW218969   2.954   2.363   7.347 -1.0734  0.4320 -0.0117
 5946SOL     OW18970   3.908   5.134   8.480  0.0724 -0.0546 -0.0262
 5946SOL    HW118971   3.835   5.134   8.418 -1.5213  1.4579  1.7305
 5946SOL    HW218972   3.974   5.189   8.439 -0.5230  0.0730 -0.8548
 5947SOL     OW18973   4.792   7.332   3.129 -0.5361  0.0103  0.0277
 5947SOL    HW118974   4.751   7.246   3.120  0.5819 -0.4833 -0.5811
 5947SOL    HW218975   4.885   7.316   3.112 -0.5559  1.6387 -2.0090
 5948SOL     OW18976   4.267   2.153   8.062 -0.1421  0.3642 -0.0845
 5948SOL    HW118977   4.335   2.144   7.995 -2.0875  1.1313 -2.3164
 5948SOL    HW218978   4.230   2.065   8.071 -1.6967  0.7094 -2.2149
 5949SOL     OW18979   8.366   8.158   7.633 -0.2048 -0.4955  0.1988
 5949SOL    HW118980   8.413   8.169   7.716 -0.6998  2.5084  0.1720
 5949SOL    HW218981   8.274   8.151   7.658 -0.1212 -3.3177  0.0460
 5950SOL     OW18982   4.948   8.058   2.740 -0.3044  0.1622 -0.3220
 5950SOL    HW118983   4.855   8.078   2.755 -0.0866  2.3366 -1.5086
 5950SOL    HW218984   4.995   8.121   2.794  0.5820 -1.9321  1.5152
 5951SOL     OW18985   6.508   5.887   3.900  0.1394  0.2060  0.3503
 5951SOL    HW118986   6.429   5.855   3.856 -1.2066  1.7553  1.5330
 5951SOL    HW218987   6.511   5.980   3.878  1.6310  0.1868  0.3891
 5952SOL     OW18988   1.541   0.262   8.838 -0.1536  0.2549  0.4493
 5952SOL    HW118989   1.617   0.245   8.894  0.7070  1.2908 -0.3582
 5952SOL    HW218990   1.474   0.202   8.869  0.7783 -0.2049  1.6324
 5953SOL     OW18991   6.727   2.723   1.154  0.0837 -0.6944  0.0831
 5953SOL    HW118992   6.703   2.643   1.108 -1.7316 -2.0704  3.0677
 5953SOL    HW218993   6.661   2.786   1.127  1.3001 -0.2123 -1.9953
 5954SOL     OW18994   2.014   6.628   1.414 -0.1876  0.5828 -0.0713
 5954SOL    HW118995   2.027   6.655   1.505  3.8192  1.9472 -0.8525
 5954SOL    HW218996   2.064   6.547   1.405 -2.8482 -1.1259 -0.5110
 5955SOL     OW18997   3.897   3.987   5.609 -0.5666  0.2089  0.0333
 5955SOL    HW118998   3.968   4.050   5.602 -2.6984  2.6016 -2.1556
 5955SOL    HW218999   3.850   4.012   5.689  0.6513 -1.0360  1.1855
 5956SOL     OW19000   4.160   3.054   0.176  0.2765 -0.2038  0.0446
 5956SOL    HW119001   4.180   2.997   0.102  1.2002  0.2742 -0.0812
 5956SOL    HW219002   4.110   3.127   0.138  0.7106  0.0172 -0.1039
 5957SOL     OW19003   5.459   0.256   8.333  0.0980  0.0014  0.3697
 5957SOL    HW119004   5.430   0.225   8.247  1.8294  1.5356 -0.8482
 5957SOL    HW219005   5.548   0.221   8.341  0.9357  2.0204  0.3122
 5958SOL     OW19006   4.449   3.557   3.737  0.3199  0.0660  0.4497
 5958SOL    HW119007   4.462   3.520   3.649  0.0023 -2.2862  1.3047
 5958SOL    HW219008   4.428   3.481   3.791 -1.0772  1.6507  2.2587
 5959SOL     OW19009   8.361   6.912   4.485 -0.4407 -0.2159 -0.5306
 5959SOL    HW119010   8.407   6.923   4.401  0.3591 -1.5830 -0.2955
 5959SOL    HW219011   8.309   6.993   4.494 -0.6216 -0.0758 -2.3702
 5960SOL     OW19012   1.964   6.331   6.681 -0.4829  0.4280 -0.3735
 5960SOL    HW119013   2.014   6.413   6.676 -1.0281  0.8293  0.5738
 5960SOL    HW219014   1.919   6.335   6.765 -1.7161 -0.1563 -0.9807
 5961SOL     OW19015   2.763   1.953   5.812 -0.5845  0.1074 -0.4650
 5961SOL    HW119016   2.745   1.913   5.898  1.8611 -2.5718 -1.0326
 5961SOL    HW219017   2.700   1.911   5.753 -0.8555  0.3558 -0.3569
 5962SOL     OW19018   6.458   4.487   2.174  0.2261  0.2954 -0.1550
 5962SOL    HW119019   6.547   4.509   2.201  0.4704  0.1284 -0.8017
 5962SOL    HW219020   6.457   4.391   2.174 -0.0224  0.2977  0.0659
 5963SOL     OW19021   6.730   3.478   6.483  0.8065  0.2657 -0.3879
 5963SOL    HW119022   6.806   3.495   6.538 -0.6356  2.6630  1.0246
 5963SOL    HW219023   6.662   3.449   6.544  0.1369 -0.4704 -1.4380
 5964SOL     OW19024   4.062   1.348   1.346  0.2438  0.0866  0.1300
 5964SOL    HW119025   4.105   1.433   1.349  1.2618 -0.2233 -2.5284
 5964SOL    HW219026   4.122   1.292   1.297 -1.0056 -1.7827  0.6145
 5965SOL     OW19027   4.130   4.631   4.878  0.0221  0.3312 -0.0372
 5965SOL    HW119028   4.169   4.614   4.792  0.0548 -2.4287  0.4257
 5965SOL    HW219029   4.205   4.653   4.934  0.1806  0.6899 -0.3844
 5966SOL     OW19030   0.486   7.137   2.697 -0.2764  0.3787 -0.2376
 5966SOL    HW119031   0.397   7.111   2.673 -0.1418  1.4728 -2.1567
 5966SOL    HW219032   0.542   7.067   2.661 -0.3003  0.2114  0.0522
 5967SOL     OW19033   6.805   6.985   4.267  0.1987 -0.4527  0.5305
 5967SOL    HW119034   6.791   7.045   4.193 -0.3862 -0.0553  0.9623
 5967SOL    HW219035   6.838   7.041   4.337  0.2377 -0.7416  0.7420
 5968SOL     OW19036   8.750   5.072   1.073 -0.0900  0.2250 -0.5693
 5968SOL    HW119037   8.688   5.042   1.006 -0.4521 -0.4140  0.0356
 5968SOL    HW219038   8.793   4.992   1.102 -0.4462  0.3963  0.4641
 5969SOL     OW19039   1.900   5.597   7.213 -0.5366  0.1855  0.4885
 5969SOL    HW119040   1.852   5.579   7.294  0.9656  1.2960  1.6784
 5969SOL    HW219041   1.856   5.544   7.146 -1.0415 -1.7447  2.2664
 5970SOL     OW19042   0.694   7.793   1.710 -0.2952  0.1352 -0.2074
 5970SOL    HW119043   0.684   7.862   1.644 -2.3455  1.1259  1.0334
 5970SOL    HW219044   0.625   7.811   1.774  2.3041 -0.0264  2.9073
 5971SOL     OW19045   4.974   2.306   4.134 -0.7260  0.7211 -0.0289
 5971SOL    HW119046   4.911   2.254   4.085 -0.3330 -0.0351  0.2632
 5971SOL    HW219047   5.013   2.364   4.068 -2.0099  1.5244 -0.1465
 5972SOL     OW19048   1.901   8.380   8.302 -0.0382  0.1817  0.7040
 5972SOL    HW119049   1.950   8.378   8.219 -0.2919 -0.2380  0.5666
 5972SOL    HW219050   1.832   8.444   8.287 -1.1099 -1.0985  0.0122
 5973SOL     OW19051   5.723   7.611   6.576  0.2795  0.7474  0.4728
 5973SOL    HW119052   5.732   7.522   6.541 -1.2736  0.7747 -0.1176
 5973SOL    HW219053   5.630   7.618   6.597  0.5374  1.9697  1.2692
 5974SOL     OW19054   5.076   0.314   8.074  0.3808  0.2629 -0.3499
 5974SOL    HW119055   5.143   0.248   8.054  0.3697 -0.0876  0.7280
 5974SOL    HW219056   5.086   0.332   8.167  0.6004  2.0562 -0.6871
 5975SOL     OW19057   7.671   8.719   8.312  0.4759  0.4361  0.3721
 5975SOL    HW119058   7.587   8.722   8.359 -0.4873  0.6652 -1.2551
 5975SOL    HW219059   7.652   8.666   8.235  1.9579  0.1886  0.1651
 5976SOL     OW19060   9.103   6.905   6.470 -0.2858 -0.2910  0.2016
 5976SOL    HW119061   9.190   6.875   6.496  0.2607  1.1067  0.0615
 5976SOL    HW219062   9.049   6.826   6.474  1.3259 -1.5629 -1.2883
 5977SOL     OW19063   1.746   3.658   6.406 -0.2198 -0.8691  0.0812
 5977SOL    HW119064   1.784   3.573   6.385  0.3158 -0.9627  1.3876
 5977SOL    HW219065   1.693   3.643   6.484 -0.7212 -0.1533 -0.1102
 5978SOL     OW19066   4.181   0.706   2.982  0.3823 -0.7441  0.1800
 5978SOL    HW119067   4.122   0.648   2.935 -2.4936  2.8395 -1.1157
 5978SOL    HW219068   4.241   0.739   2.915 -0.1906  0.2093  0.1041
 5979SOL     OW19069   7.529   7.588   3.559 -0.1931 -0.2358  1.2021
 5979SOL    HW119070   7.435   7.578   3.541 -0.1339  0.7083  0.2882
 5979SOL    HW219071   7.538   7.567   3.652 -1.5503  1.0847  1.6739
 5980SOL     OW19072   6.695   3.367   2.478  0.0998 -0.1537  0.1034
 5980SOL    HW119073   6.646   3.410   2.407 -0.1859 -1.1301 -0.3077
 5980SOL    HW219074   6.773   3.422   2.489 -1.2156  1.6393  1.0062
 5981SOL     OW19075   5.761   5.788   6.611  0.2671 -0.0841  0.2254
 5981SOL    HW119076   5.705   5.807   6.686 -1.1990 -3.3082  0.1129
 5981SOL    HW219077   5.707   5.807   6.535  0.1588 -0.9930  0.0712
 5982SOL     OW19078   7.236   8.743   5.029  0.0854 -0.0560  0.7433
 5982SOL    HW119079   7.256   8.790   4.948 -0.7990  1.1766  1.2135
 5982SOL    HW219080   7.167   8.681   5.003 -0.3301  0.4640  0.5712
 5983SOL     OW19081   9.072   6.239   0.282 -0.2186 -0.0625 -0.2214
 5983SOL    HW119082   9.001   6.300   0.301 -0.3601  0.0674 -1.1037
 5983SOL    HW219083   9.103   6.211   0.368 -1.7062 -0.5704  0.1822
 5984SOL     OW19084   5.916   5.955   8.748  0.0538 -0.0856  0.0573
 5984SOL    HW119085   5.851   5.908   8.696  1.1347 -1.2337 -0.3048
 5984SOL    HW219086   5.867   5.990   8.823 -0.8760 -1.4132  0.0933
 5985SOL     OW19087   9.090   4.318   7.890 -0.1203  0.0196  0.0259
 5985SOL    HW119088   9.153   4.280   7.951 -2.1035 -1.2012  1.4431
 5985SOL    HW219089   9.014   4.260   7.894 -1.0503  0.9437 -2.2439
 5986SOL     OW19090   8.674   7.319   6.869 -0.0596  0.6954 -0.5305
 5986SOL    HW119091   8.677   7.258   6.943 -1.6548 -0.0793 -1.0458
 5986SOL    HW219092   8.640   7.401   6.907 -0.4913  0.4257 -0.3258
 5987SOL     OW19093   1.731   8.110   4.190  0.0189  0.3547 -0.3499
 5987SOL    HW119094   1.721   8.175   4.121 -2.9179  1.2276  0.7268
 5987SOL    HW219095   1.660   8.129   4.251  1.1838 -1.7189  1.8226
 5988SOL     OW19096   3.684   7.237   5.433  0.5944  0.3074  0.0320
 5988SOL    HW119097   3.725   7.160   5.393  0.9105  0.5042 -0.0324
 5988SOL    HW219098   3.737   7.254   5.511  0.0789  0.0261  0.4429
 5989SOL     OW19099   7.479   2.844   3.260 -0.2246 -0.1555 -0.0203
 5989SOL    HW119100   7.486   2.810   3.350  0.2897 -1.2620 -0.4597
 5989SOL    HW219101   7.554   2.806   3.214 -2.2720 -2.4435 -1.7639
 5990SOL     OW19102   2.500   3.140   8.741  0.5955 -0.5197 -0.0238
 5990SOL    HW119103   2.469   3.050   8.727 -0.5992  0.1520 -2.1452
 5990SOL    HW219104   2.548   3.162   8.661 -0.3737  1.1984 -0.1886
 5991SOL     OW19105   8.835   5.829   8.729 -0.0583 -0.3638  0.2561
 5991SOL    HW119106   8.879   5.758   8.777 -0.4947 -0.5516  0.3825
 5991SOL    HW219107   8.750   5.837   8.771  0.2438  0.7179  0.6956
 5992SOL     OW19108   4.078   6.223   9.026  0.0318  0.7047 -0.3678
 5992SOL    HW119109   4.002   6.279   9.009  0.5074  1.5690  0.2628
 5992SOL    HW219110   4.131   6.272   9.089  0.7194 -0.2412 -0.1807
 5993SOL     OW19111   1.600   5.539   3.524  0.0764  0.7804 -0.1392
 5993SOL    HW119112   1.594   5.601   3.451 -1.8744 -0.5698 -1.2422
 5993SOL    HW219113   1.536   5.571   3.588 -0.3473  0.3501 -0.3474
 5994SOL     OW19114   2.441   7.512   8.626  0.0361 -0.0649 -0.5078
 5994SOL    HW119115   2.383   7.585   8.647  0.7883 -0.0229  1.6132
 5994SOL    HW219116   2.433   7.502   8.531 -2.0071  1.1169 -0.5120
 5995SOL     OW19117   1.653   4.795   4.017  0.3581  0.1899 -0.4270
 5995SOL    HW119118   1.724   4.762   4.073 -0.2226 -0.5591 -0.1098
 5995SOL    HW219119   1.604   4.716   3.993 -0.4418  0.7187 -0.5387
 5996SOL     OW19120   6.873   7.358   2.833  0.3166 -0.0674  0.3022
 5996SOL    HW119121   6.784   7.338   2.861  0.4708 -0.3480  0.5965
 5996SOL    HW219122   6.877   7.454   2.833 -0.4914 -0.0008 -1.3397
 5997SOL     OW19123   5.536   4.643   5.515 -0.6693 -0.5807  0.4801
 5997SOL    HW119124   5.574   4.670   5.431  0.0259 -2.4275  0.1696
 5997SOL    HW219125   5.448   4.615   5.494 -0.5769 -0.8184  0.4129
 5998SOL     OW19126   4.011   8.054   7.053 -0.2575  0.1929 -0.0826
 5998SOL    HW119127   4.094   8.015   7.082 -0.5641 -0.0445  0.4784
 5998SOL    HW219128   3.945   7.988   7.072 -0.3767 -0.3959 -2.2232
 5999SOL     OW19129   5.412   3.905   3.226  0.0537  0.1623  0.2272
 5999SOL    HW119130   5.452   3.965   3.163 -0.6135  0.1572 -0.2109
 5999SOL    HW219131   5.318   3.913   3.210 -0.0525 -0.9025  0.2517
 6000SOL     OW19132   5.030   5.944   7.420 -0.4253  0.3057  0.0190
 6000SOL    HW119133   4.983   6.003   7.361 -0.2138  0.8914  0.4349
 6000SOL    HW219134   4.980   5.862   7.416 -1.8507  1.0806  0.9019
 6001SOL     OW19135   7.996   4.106   2.526 -0.2514  0.4820 -0.1258
 6001SOL    HW119136   8.070   4.054   2.495 -0.8705 -0.0872 -0.6494
 6001SOL    HW219137   7.923   4.080   2.471 -1.0015  0.5767  0.8014
 6002SOL     OW19138   8.825   0.115   3.275  0.1945  0.5193  0.1097
 6002SOL    HW119139   8.895   0.174   3.301 -0.4760 -0.1979  4.1381
 6002SOL    HW219140   8.746   0.153   3.313 -0.2501 -2.8449  3.1504
 6003SOL     OW19141   0.190   6.698   4.296  0.3456 -0.6747 -0.4936
 6003SOL    HW119142   0.239   6.619   4.274  0.2404 -1.0641  0.6226
 6003SOL    HW219143   0.099   6.669   4.304  0.3887 -0.5775  0.4989
 6004SOL     OW19144   8.107   1.883   4.821 -0.2562 -0.1115  0.4112
 6004SOL    HW119145   8.189   1.922   4.791  0.4479 -0.1535  2.1623
 6004SOL    HW219146   8.068   1.845   4.742  1.3855 -0.0457 -0.4744
 6005SOL     OW19147   4.680   6.733   6.151 -0.2588  0.3414 -0.0618
 6005SOL    HW119148   4.756   6.735   6.093  0.0683 -0.8593  0.2805
 6005SOL    HW219149   4.636   6.817   6.137 -1.0830 -0.4705 -3.2140
 6006SOL     OW19150   2.781   3.047   6.172  0.1859  0.0580 -0.0407
 6006SOL    HW119151   2.832   3.112   6.124  0.8333  0.6971  1.4207
 6006SOL    HW219152   2.708   3.026   6.115 -1.2966  3.7367  0.2419
 6007SOL     OW19153   2.154   5.110   1.260 -0.7095 -0.2186  0.2418
 6007SOL    HW119154   2.236   5.074   1.227 -1.2813 -2.2700  0.8992
 6007SOL    HW219155   2.098   5.116   1.183  0.0807  1.3767 -0.2432
 6008SOL     OW19156   5.951   4.469   7.600 -0.1495  0.2535  0.3725
 6008SOL    HW119157   5.863   4.466   7.563 -0.0179 -0.6716  0.1120
 6008SOL    HW219158   5.941   4.438   7.689 -0.0460 -0.1388  0.2499
 6009SOL     OW19159   2.834   1.646   6.450 -0.9405 -0.6349  0.5294
 6009SOL    HW119160   2.850   1.626   6.542 -0.8017  1.0798  0.8932
 6009SOL    HW219161   2.917   1.680   6.417 -1.7607  1.5034  0.5528
 6010SOL     OW19162   9.051   7.908   5.613 -0.1689 -0.0157 -0.3342
 6010SOL    HW119163   9.032   7.956   5.533 -1.1523  1.9424  0.9863
 6010SOL    HW219164   9.074   7.820   5.584  1.2715  1.0932 -2.8410
 6011SOL     OW19165   0.485   8.429   1.447 -0.0166  0.0771 -0.4745
 6011SOL    HW119166   0.404   8.467   1.413  1.0704  1.3796 -1.7441
 6011SOL    HW219167   0.513   8.369   1.379 -0.2236 -0.8671  0.2524
 6012SOL     OW19168   4.707   8.810   0.960  0.0070 -0.3569 -0.2875
 6012SOL    HW119169   4.766   8.740   0.934 -1.3022 -0.0616 -4.8175
 6012SOL    HW219170   4.632   8.765   0.998  1.2112 -0.9833  1.4763
 6013SOL     OW19171   1.147   3.316   5.154  0.4706  0.2948  0.0400
 6013SOL    HW119172   1.054   3.303   5.135  0.8745 -2.9524 -0.3010
 6013SOL    HW219173   1.148   3.359   5.239 -1.3866 -1.1774  0.8725
 6014SOL     OW19174   6.397   7.344   1.435  0.0419 -0.4190 -0.2698
 6014SOL    HW119175   6.460   7.408   1.469  0.5320 -1.1156  0.1587
 6014SOL    HW219176   6.377   7.288   1.510  0.5737 -1.5273 -0.9365
 6015SOL     OW19177   7.545   1.606   5.219  0.1386 -0.9456  0.2096
 6015SOL    HW119178   7.496   1.577   5.143 -0.3166  0.2769  0.0274
 6015SOL    HW219179   7.623   1.647   5.183 -0.8730  1.1637  0.2797
 6016SOL     OW19180   0.429   1.929   5.511 -0.2577 -0.1862  1.0460
 6016SOL    HW119181   0.389   1.978   5.439 -0.7640 -0.9136  0.8249
 6016SOL    HW219182   0.423   1.988   5.586 -0.5606  0.2227  0.7065
 6017SOL     OW19183   4.781   2.093   3.072  0.0666  0.4463 -0.7663
 6017SOL    HW119184   4.868   2.054   3.075 -0.7874 -1.7708 -2.5361
 6017SOL    HW219185   4.793   2.180   3.110  2.3292 -1.0095  2.2716
 6018SOL     OW19186   5.109   6.921   2.039  0.1361 -0.3400 -0.0338
 6018SOL    HW119187   5.090   6.959   1.954  1.2971 -1.3001 -0.7533
 6018SOL    HW219188   5.029   6.876   2.064 -0.7129  1.1837  0.0956
 6019SOL     OW19189   1.227   9.038   6.448  0.4166 -0.0614 -0.0881
 6019SOL    HW119190   1.147   8.991   6.422  0.2791  0.3836 -0.4985
 6019SOL    HW219191   1.298   8.981   6.419  0.2581  0.2081 -1.0751
 6020SOL     OW19192   1.712   4.950   6.187  0.4421  0.1162 -0.7115
 6020SOL    HW119193   1.688   4.867   6.146  1.1252 -0.9684  0.9691
 6020SOL    HW219194   1.742   5.004   6.115  0.8546 -1.4202 -1.7461
 6021SOL     OW19195   5.913   7.639   4.033  0.2786 -0.0698  0.3802
 6021SOL    HW119196   5.852   7.602   3.970  2.2223 -3.0150  0.0761
 6021SOL    HW219197   5.904   7.584   4.111  2.1532 -0.2449  0.5047
 6022SOL     OW19198   6.462   5.400   7.589  0.0831 -0.1484 -0.5898
 6022SOL    HW119199   6.548   5.440   7.573  0.1158  0.1528  0.3208
 6022SOL    HW219200   6.444   5.417   7.681 -1.7498  1.3304 -1.1640
 6023SOL     OW19201   0.505   3.291   2.485  0.0157  0.2752  0.0169
 6023SOL    HW119202   0.544   3.345   2.416  2.2463 -3.2344 -1.7798
 6023SOL    HW219203   0.546   3.323   2.566  0.1059  2.1506 -0.7161
 6024SOL     OW19204   2.693   2.645   6.467 -0.2177  0.2221  0.2187
 6024SOL    HW119205   2.754   2.579   6.433 -0.6266  0.4341 -0.9687
 6024SOL    HW219206   2.747   2.700   6.525  1.4044  1.9276 -2.6862
 6025SOL     OW19207   8.565   0.094   0.752  0.1933 -0.3743 -0.2494
 6025SOL    HW119208   8.557   0.067   0.844  1.0995 -0.5115 -0.2045
 6025SOL    HW219209   8.476   0.083   0.716 -0.6420  1.4726  1.0806
 6026SOL     OW19210   0.536   7.487   7.898 -0.3383  0.1672  0.0810
 6026SOL    HW119211   0.616   7.467   7.948 -0.1247 -0.1854 -0.3983
 6026SOL    HW219212   0.567   7.537   7.823 -0.6709  0.7669  0.3430
 6027SOL     OW19213   6.294   5.865   0.464  0.4706 -0.3133 -0.2379
 6027SOL    HW119214   6.266   5.937   0.522  1.0517 -1.2662  1.2935
 6027SOL    HW219215   6.370   5.827   0.509  1.5779 -0.4703 -2.1632
 6028SOL     OW19216   3.157   0.995   0.550  0.7745 -0.1812  0.4881
 6028SOL    HW119217   3.171   0.923   0.488 -0.0164  0.6242 -0.6570
 6028SOL    HW219218   3.085   0.966   0.605  1.3157 -0.7990  0.8810
 6029SOL     OW19219   0.777   3.446   6.950 -0.3694 -0.2042  0.0251
 6029SOL    HW119220   0.722   3.370   6.931 -1.6897 -0.2013  3.2109
 6029SOL    HW219221   0.849   3.412   7.004 -0.4272  0.6187  0.6487
 6030SOL     OW19222   4.533   5.999   8.773  0.3290 -0.5230  0.3249
 6030SOL    HW119223   4.523   5.929   8.709  0.4381 -2.0642  1.9268
 6030SOL    HW219224   4.503   6.078   8.727 -0.0069 -1.6327 -1.4538
 6031SOL     OW19225   8.028   5.146   0.649 -0.2076  0.6752  0.1730
 6031SOL    HW119226   8.047   5.238   0.667  2.2394  0.4667 -0.9020
 6031SOL    HW219227   8.103   5.099   0.684 -0.1949 -0.6469 -1.4887
 6032SOL     OW19228   2.032   6.798   8.826  0.1642  0.2050 -0.6393
 6032SOL    HW119229   1.971   6.868   8.847 -0.4999 -0.0578 -1.6259
 6032SOL    HW219230   2.103   6.841   8.778 -0.3023  0.1908 -1.3491
 6033SOL     OW19231   2.636   7.509   2.062 -0.5109  0.5520 -0.1076
 6033SOL    HW119232   2.557   7.518   2.009 -0.5170 -1.3889 -0.4851
 6033SOL    HW219233   2.605   7.474   2.146 -0.2617  1.7473  0.5170
 6034SOL     OW19234   5.112   7.632   7.755 -0.2688  0.3559 -0.4090
 6034SOL    HW119235   5.107   7.721   7.789  0.2187  0.3633 -0.3493
 6034SOL    HW219236   5.085   7.577   7.829  2.0015  0.2870  0.4640
 6035SOL     OW19237   3.701   9.066   8.004  0.5908 -0.3830  0.1797
 6035SOL    HW119238   3.628   9.015   8.038  0.6579 -0.2442  0.5409
 6035SOL    HW219239   3.693   9.060   7.909 -1.3390  1.6224  0.1141
 6036SOL     OW19240   8.144   7.049   8.190 -0.0693  0.2974  0.3889
 6036SOL    HW119241   8.219   6.988   8.189 -1.4216 -1.4995 -1.5705
 6036SOL    HW219242   8.157   7.103   8.112  0.1154  1.2347  1.0617
 6037SOL     OW19243   1.172   4.639   6.891 -0.1052 -0.2101  0.0348
 6037SOL    HW119244   1.088   4.605   6.860 -0.2886  0.1009  0.1882
 6037SOL    HW219245   1.170   4.625   6.986  0.6789 -1.6494 -0.1476
 6038SOL     OW19246   8.310   7.903   0.489  0.3127  0.4657 -0.5465
 6038SOL    HW119247   8.393   7.862   0.516 -1.4724 -1.7804  2.1337
 6038SOL    HW219248   8.276   7.844   0.422  0.4058  0.7923 -0.8787
 6039SOL     OW19249   1.723   8.584   8.319  0.1749  0.5763 -0.9163
 6039SOL    HW119250   1.646   8.621   8.362 -1.3302  0.3046 -3.1993
 6039SOL    HW219251   1.731   8.633   8.237  2.1290  0.2268 -0.9836
 6040SOL     OW19252   8.760   0.461   2.547  0.3911 -0.4772 -0.5877
 6040SOL    HW119253   8.850   0.484   2.571  0.3007 -1.4941  0.8035
 6040SOL    HW219254   8.706   0.525   2.593  0.3534 -0.2604 -0.9230
 6041SOL     OW19255   2.625   7.376   8.144 -0.1813 -0.1142  0.2986
 6041SOL    HW119256   2.631   7.356   8.238 -1.7706  0.3660  0.5217
 6041SOL    HW219257   2.697   7.437   8.128  1.6952 -2.1180  0.6320
 6042SOL     OW19258   4.072   1.464   5.181 -0.0337 -0.6111  0.1521
 6042SOL    HW119259   4.006   1.395   5.184 -0.7660  0.1122  0.9856
 6042SOL    HW219260   4.131   1.436   5.110 -1.6749 -0.8677 -1.1931
 6043SOL     OW19261   0.426   6.933   6.222 -0.0877  0.2562  0.6927
 6043SOL    HW119262   0.515   6.910   6.250  0.0543  0.2301  0.2166
 6043SOL    HW219263   0.438   7.005   6.160 -0.4270  0.5091  0.9112
 6044SOL     OW19264   3.923   1.820   2.403  0.2427  0.0612 -0.1450
 6044SOL    HW119265   3.834   1.796   2.428  1.0468 -1.2434  1.6617
 6044SOL    HW219266   3.960   1.741   2.365  0.6750  0.5723 -0.8166
 6045SOL     OW19267   8.210   3.175   6.994  0.3333 -0.1482 -0.5856
 6045SOL    HW119268   8.274   3.174   6.924  0.5459 -1.2188 -0.4027
 6045SOL    HW219269   8.126   3.165   6.950  0.4339 -0.4324 -0.7134
 6046SOL     OW19270   5.984   6.904   8.684  0.4068  0.3967 -0.0697
 6046SOL    HW119271   6.060   6.962   8.675  1.3343 -0.9486 -1.3691
 6046SOL    HW219272   5.987   6.874   8.775 -0.7542  3.1510  1.0208
 6047SOL     OW19273   8.634   6.379   0.330  0.3100 -0.5513 -0.0738
 6047SOL    HW119274   8.624   6.294   0.373 -2.0341 -0.5317 -0.4303
 6047SOL    HW219275   8.677   6.359   0.247 -0.5897 -1.4609 -0.3351
 6048SOL     OW19276   4.883   1.678   3.498 -0.0033  0.0266 -0.6344
 6048SOL    HW119277   4.799   1.725   3.503  0.8448  1.5350  0.4646
 6048SOL    HW219278   4.889   1.633   3.582 -0.7958 -2.1436 -1.6710
 6049SOL     OW19279   7.109   7.245   3.411  0.2128  0.1005 -0.1469
 6049SOL    HW119280   7.014   7.253   3.398  0.2133  2.2518  0.7545
 6049SOL    HW219281   7.120   7.164   3.460 -1.3344  0.5935  1.0941
 6050SOL     OW19282   4.551   2.872   5.082  0.7223  0.4872  0.1461
 6050SOL    HW119283   4.596   2.953   5.108  1.3064 -0.3474  1.8389
 6050SOL    HW219284   4.613   2.829   5.023  1.4638  0.1507  1.1383
 6051SOL     OW19285   4.086   0.181   6.812  0.4348 -0.1021 -0.5081
 6051SOL    HW119286   4.098   0.269   6.776 -0.2617 -0.4425 -1.6324
 6051SOL    HW219287   4.155   0.172   6.879 -0.0858  1.6216  0.2945
 6052SOL     OW19288   0.295   3.473   4.383  0.5489  0.0825  0.6576
 6052SOL    HW119289   0.229   3.511   4.441  0.7337  1.5621 -0.0359
 6052SOL    HW219290   0.344   3.412   4.438 -1.2054 -0.8612  1.2498
 6053SOL     OW19291   1.558   0.465   5.904  0.1006 -0.8904  0.1602
 6053SOL    HW119292   1.608   0.474   5.986  1.2144 -2.1706 -0.3479
 6053SOL    HW219293   1.527   0.554   5.886 -1.7365 -0.8429  2.8922
 6054SOL     OW19294   0.061   4.928   6.728  0.0250 -0.9813 -0.2725
 6054SOL    HW119295   0.078   5.016   6.694 -0.6493 -0.6270  0.2966
 6054SOL    HW219296  -0.027   4.933   6.764  0.2071 -1.7289  0.2926
 6055SOL     OW19297   6.135   6.935   1.963 -0.0105  0.1309  0.0182
 6055SOL    HW119298   6.079   6.896   2.030 -1.6989  1.1538 -0.7175
 6055SOL    HW219299   6.117   6.885   1.884 -1.0507  1.3837 -0.5706
 6056SOL     OW19300   7.911   4.907   5.897 -0.1442 -0.0977  0.4629
 6056SOL    HW119301   8.007   4.908   5.900  0.0092  3.1368 -0.8752
 6056SOL    HW219302   7.889   4.840   5.832  1.3732  0.4698 -0.7037
 6057SOL     OW19303   3.526   8.751   4.219 -0.3808  0.0862  0.5746
 6057SOL    HW119304   3.522   8.836   4.262 -0.8178  0.5807 -0.4201
 6057SOL    HW219305   3.605   8.710   4.254 -0.1199  0.9281  0.9934
 6058SOL     OW19306   4.344   5.986   5.728  0.6691  0.1605  0.1432
 6058SOL    HW119307   4.339   6.032   5.644  1.0487  0.1801  0.1271
 6058SOL    HW219308   4.274   5.921   5.725 -0.7384  1.5958  0.7013
 6059SOL     OW19309   7.565   6.250   8.255  0.4296  0.1941  0.0754
 6059SOL    HW119310   7.560   6.338   8.218 -0.3712  0.0046 -0.2842
 6059SOL    HW219311   7.650   6.217   8.227  0.7630  0.8752  0.2737
 6060SOL     OW19312   0.988   3.755   5.860  0.1829  0.0505  0.2397
 6060SOL    HW119313   0.894   3.771   5.862  0.2627  0.6070 -0.5306
 6060SOL    HW219314   1.000   3.680   5.920 -0.7330 -0.0048  0.3699
 6061SOL     OW19315   6.266   1.454   1.900  0.0487  0.0985 -0.2126
 6061SOL    HW119316   6.315   1.448   1.982  0.6349 -1.2632 -0.6410
 6061SOL    HW219317   6.215   1.373   1.896  0.4888 -0.1409 -1.4718
 6062SOL     OW19318   7.270   1.812   1.213 -0.1069 -0.1255 -0.0763
 6062SOL    HW119319   7.274   1.758   1.135  0.0529  1.3556 -1.1406
 6062SOL    HW219320   7.202   1.773   1.267  1.2850 -2.4849  0.1104
 6063SOL     OW19321   4.258   6.085   1.038  0.1232 -0.5211  0.2429
 6063SOL    HW119322   4.201   6.134   0.980  2.3904  0.6738 -1.0743
 6063SOL    HW219323   4.205   6.008   1.063 -1.3767 -0.4640 -2.3774
 6064SOL     OW19324   5.306   0.005   6.310 -0.8972  0.0407 -0.4994
 6064SOL    HW119325   5.380   0.036   6.258 -1.1557  1.6304  0.0280
 6064SOL    HW219326   5.346  -0.053   6.375 -0.3077 -0.2222 -1.0777
 6065SOL     OW19327   1.694   5.586   1.642  0.3869 -0.2475  0.1169
 6065SOL    HW119328   1.703   5.547   1.729  1.6380  1.9130  1.0325
 6065SOL    HW219329   1.600   5.587   1.626 -0.1187  1.4993  2.5702
 6066SOL     OW19330   2.664   5.664   8.383  0.2845  0.5837 -0.1382
 6066SOL    HW119331   2.618   5.734   8.429  1.5961  2.1963 -1.1533
 6066SOL    HW219332   2.662   5.590   8.443  1.4161  2.3775  2.2795
 6067SOL     OW19333   1.417   7.278   5.450  0.0941 -0.6477  0.6286
 6067SOL    HW119334   1.447   7.298   5.362  1.6278 -1.3345  0.9703
 6067SOL    HW219335   1.344   7.338   5.465 -0.2945 -0.6422 -1.1534
 6068SOL     OW19336   7.140   4.996   1.991  0.1080  0.4478 -0.1843
 6068SOL    HW119337   7.090   4.997   1.910 -1.4097 -0.0595  0.6984
 6068SOL    HW219338   7.075   4.974   2.059  1.9278 -2.6511  0.7594
 6069SOL     OW19339   6.850   8.407   4.248 -0.4895 -0.3318  0.0433
 6069SOL    HW119340   6.791   8.446   4.183 -1.9311 -0.2125  1.3840
 6069SOL    HW219341   6.841   8.463   4.325  0.3543 -1.1184  0.7343
 6070SOL     OW19342   4.944   4.227   0.183  0.2976  0.1002 -0.7708
 6070SOL    HW119343   5.037   4.213   0.200 -0.2844 -1.3025  1.8390
 6070SOL    HW219344   4.906   4.139   0.186 -1.2121  0.7095 -1.0903
 6071SOL     OW19345   3.944   2.657   4.481  0.0720  0.1213 -0.4545
 6071SOL    HW119346   3.879   2.621   4.420 -0.7883 -0.7343  0.9234
 6071SOL    HW219347   3.897   2.724   4.530  0.4419  0.0405  0.0233
 6072SOL     OW19348   0.471   0.026   5.278  0.0947  0.0550  0.7364
 6072SOL    HW119349   0.403  -0.041   5.281  1.3897 -1.3038  0.5660
 6072SOL    HW219350   0.504   0.030   5.368 -1.0533  1.6677  1.1385
 6073SOL     OW19351   7.770   7.489   7.561  0.2816  0.3393 -0.0569
 6073SOL    HW119352   7.695   7.548   7.568  0.0197  0.3475 -2.3519
 6073SOL    HW219353   7.736   7.404   7.589 -1.3484 -0.1841 -3.1820
 6074SOL     OW19354   1.891   2.149   2.971 -0.4828 -0.0378 -0.0899
 6074SOL    HW119355   1.899   2.240   2.999 -1.6762  0.4056 -1.0986
 6074SOL    HW219356   1.813   2.117   3.018 -0.7222 -0.1907 -0.5917
 6075SOL     OW19357   6.134   2.433   6.656  0.0548  0.0521  0.1759
 6075SOL    HW119358   6.112   2.350   6.698  0.8715  0.4629  1.4578
 6075SOL    HW219359   6.180   2.483   6.723  3.9363 -0.3231 -1.9049
 6076SOL     OW19360   8.251   6.731   6.657 -0.1223  0.1682 -0.0666
 6076SOL    HW119361   8.208   6.779   6.586 -0.6306  1.2520  0.9438
 6076SOL    HW219362   8.266   6.643   6.621 -2.3589  0.0135 -0.7861
 6077SOL     OW19363   3.848   5.721   7.257 -0.1188  0.5355  0.2457
 6077SOL    HW119364   3.931   5.755   7.288 -0.0502  2.2082 -1.5542
 6077SOL    HW219365   3.867   5.631   7.231  0.8130  0.5023  0.9873
 6078SOL     OW19366   3.132   1.879   4.025 -0.4367 -0.0971 -0.2050
 6078SOL    HW119367   3.152   1.819   3.953  0.2299 -0.0376 -0.0775
 6078SOL    HW219368   3.165   1.964   3.995  1.3472 -0.3770  0.7965
 6079SOL     OW19369   1.862   7.653   3.942 -0.7394 -0.1729 -0.7107
 6079SOL    HW119370   1.854   7.745   3.916  0.4292  0.6424  1.5150
 6079SOL    HW219371   1.955   7.640   3.955 -0.9974 -1.3076  0.1792
 6080SOL     OW19372   7.086   4.120   3.810  0.5187 -0.3240  0.1842
 6080SOL    HW119373   7.110   4.046   3.755 -0.5321 -0.0763 -0.6406
 6080SOL    HW219374   7.041   4.180   3.751 -1.1428 -0.2902  1.4233
 6081SOL     OW19375   0.925   6.234   4.710 -0.1421  0.2431 -0.0862
 6081SOL    HW119376   1.006   6.241   4.760 -1.4073 -0.4418  2.2057
 6081SOL    HW219377   0.925   6.312   4.654  0.9624  1.5974  1.6694
 6082SOL     OW19378   7.196   1.492   4.651 -0.3634 -0.0772 -0.6227
 6082SOL    HW119379   7.215   1.505   4.743 -1.6640  0.2253 -0.3808
 6082SOL    HW219380   7.199   1.397   4.639  0.6773 -0.0792 -0.4878
 6083SOL     OW19381   6.667   4.149   4.012  0.3004  0.1990  0.1743
 6083SOL    HW119382   6.760   4.156   4.036  0.7632  0.7403 -1.6617
 6083SOL    HW219383   6.621   4.151   4.096  1.8729  1.3201  1.0689
 6084SOL     OW19384   2.650   3.928   0.030 -0.4763 -0.0211 -0.5473
 6084SOL    HW119385   2.567   3.899   0.066 -0.3547  2.1689  1.8203
 6084SOL    HW219386   2.709   3.854   0.043 -1.3591 -0.5735  0.5109
 6085SOL     OW19387   7.106   7.026   4.903 -0.0071  0.0534  0.4480
 6085SOL    HW119388   7.017   7.024   4.869  0.4982  2.0392 -1.2395
 6085SOL    HW219389   7.145   7.103   4.861  2.1699 -0.1418  1.9767
 6086SOL     OW19390   3.613   8.585   4.603 -0.0084 -0.4177 -0.1569
 6086SOL    HW119391   3.535   8.591   4.659  0.5939 -0.7668  0.7413
 6086SOL    HW219392   3.644   8.675   4.596  0.5134 -0.4939  0.9671
 6087SOL     OW19393   0.074   4.503   1.283 -0.2093 -0.4000 -0.0482
 6087SOL    HW119394   0.145   4.459   1.238  0.5560  1.5588 -0.8669
 6087SOL    HW219395   0.040   4.438   1.345  2.2117 -1.4054  0.3020
 6088SOL     OW19396   0.350   0.168   3.789  0.2197 -0.2878  0.0744
 6088SOL    HW119397   0.423   0.146   3.732  1.8647  0.0102  1.9726
 6088SOL    HW219398   0.300   0.233   3.740 -0.0387 -2.0533 -2.1424
 6089SOL     OW19399   6.246   4.423   4.740  0.0066 -0.1785 -0.2569
 6089SOL    HW119400   6.314   4.449   4.677 -0.5101  0.8453 -0.4167
 6089SOL    HW219401   6.240   4.497   4.800 -2.4174  0.6907 -1.4666
 6090SOL     OW19402   7.770   5.714   6.471 -0.2666  0.4312  0.1611
 6090SOL    HW119403   7.713   5.664   6.530  0.1737 -0.3519 -0.0608
 6090SOL    HW219404   7.828   5.763   6.530  0.5895 -0.8300  0.4111
 6091SOL     OW19405   1.399   3.084   6.268  0.2889 -0.2915  0.8178
 6091SOL    HW119406   1.338   3.072   6.341 -1.2193  1.3379 -0.1075
 6091SOL    HW219407   1.431   2.996   6.249 -2.2114 -1.3231  1.0008
 6092SOL     OW19408   2.214   2.535   2.990  0.2228  0.2636 -0.4203
 6092SOL    HW119409   2.175   2.623   2.991  1.9083  1.0744 -1.0394
 6092SOL    HW219410   2.287   2.540   3.052  1.8921  0.1282 -2.2445
 6093SOL     OW19411   8.775   3.199   9.002 -0.4301 -1.0136  0.1864
 6093SOL    HW119412   8.739   3.169   8.919  2.1536 -0.8048 -1.1296
 6093SOL    HW219413   8.751   3.292   9.007 -0.4419 -0.9836 -0.4264
 6094SOL     OW19414   6.859   7.950   4.207  0.4917 -0.1419 -0.0477
 6094SOL    HW119415   6.815   8.017   4.155 -0.1062 -0.2196  0.3547
 6094SOL    HW219416   6.925   7.999   4.257 -0.0074  0.1644  0.3173
 6095SOL     OW19417   6.149   7.477   4.334  0.3323  0.6222 -0.0153
 6095SOL    HW119418   6.238   7.451   4.310  0.3104  1.6215 -1.3311
 6095SOL    HW219419   6.096   7.456   4.256 -0.6329 -0.1293  0.8109
 6096SOL     OW19420   1.726   8.862   0.699 -0.2908 -0.8590 -0.3935
 6096SOL    HW119421   1.784   8.818   0.761 -0.2822  1.6250  1.5232
 6096SOL    HW219422   1.786   8.912   0.642 -0.1554 -4.3148 -3.7122
 6097SOL     OW19423   0.135   1.786   0.192  0.3033  0.2036  0.0058
 6097SOL    HW119424   0.205   1.819   0.136  1.1259 -0.1641  0.7891
 6097SOL    HW219425   0.093   1.718   0.140  1.8765 -1.0291  0.2813
 6098SOL     OW19426   5.780   6.244   7.566  0.0169 -0.2316 -0.1459
 6098SOL    HW119427   5.761   6.197   7.484  0.4780  0.0167 -0.4047
 6098SOL    HW219428   5.861   6.292   7.547  0.1915 -0.2647  0.4996
 6099SOL     OW19429   7.490   2.811   0.750  0.3564  0.0909  0.7300
 6099SOL    HW119430   7.530   2.751   0.813  1.8252  0.0040 -0.2407
 6099SOL    HW219431   7.532   2.790   0.666  0.0931  1.7319  0.1488
 6100SOL     OW19432   2.879   0.702   7.660 -0.0980  0.9386 -0.1127
 6100SOL    HW119433   2.851   0.725   7.572 -1.6341  2.0550  0.6267
 6100SOL    HW219434   2.846   0.613   7.673 -2.2446  1.7281  0.2449
 6101SOL     OW19435   2.547   4.664   0.340 -0.3013 -0.4500  0.0267
 6101SOL    HW119436   2.639   4.673   0.316 -0.3247 -3.4503 -1.7106
 6101SOL    HW219437   2.546   4.596   0.407 -1.1580  0.7931  1.3350
 6102SOL     OW19438   5.701   2.070   6.499 -0.5069 -0.0412  0.0451
 6102SOL    HW119439   5.789   2.102   6.519 -0.9032  0.9391  0.2496
 6102SOL    HW219440   5.714   2.010   6.425  0.6538 -1.8729  1.6248
 6103SOL     OW19441   3.257   2.249   6.124 -0.2708  0.4675 -0.0704
 6103SOL    HW119442   3.274   2.155   6.135  0.1904  0.7437  2.0742
 6103SOL    HW219443   3.297   2.271   6.040  3.4638 -0.4431  1.3006
 6104SOL     OW19444   8.460   2.999   7.757  0.5417  0.4696 -0.1680
 6104SOL    HW119445   8.368   2.998   7.731  0.5729  2.5122 -0.5319
 6104SOL    HW219446   8.507   2.966   7.680  0.1059 -1.1887  0.2433
 6105SOL     OW19447   4.991   8.391   7.272 -0.1420 -0.3509  0.0476
 6105SOL    HW119448   5.055   8.460   7.291 -0.7055  0.1870  0.0371
 6105SOL    HW219449   5.026   8.346   7.195  1.1975 -1.3170  1.1648
 6106SOL     OW19450   6.192   2.261   6.196  0.4028 -0.2339 -0.3528
 6106SOL    HW119451   6.282   2.230   6.204  0.5599  0.6985  2.9080
 6106SOL    HW219452   6.195   2.323   6.123  2.3697 -0.3069 -0.3977
 6107SOL     OW19453   5.463   4.733   5.033 -0.0415 -0.2566  0.2931
 6107SOL    HW119454   5.389   4.698   5.083 -0.5501 -1.4063 -1.1829
 6107SOL    HW219455   5.496   4.658   4.984  0.5638  0.7668 -0.9269
 6108SOL     OW19456   6.194   7.342   9.048  0.3916  0.3864  0.4283
 6108SOL    HW119457   6.217   7.262   8.999  1.3056  0.9222 -0.0304
 6108SOL    HW219458   6.183   7.312   9.138  0.8451 -0.2358  0.2848
 6109SOL     OW19459   7.160   6.483   5.253  0.0311 -0.6169 -0.1619
 6109SOL    HW119460   7.221   6.556   5.256 -1.1587  0.3806  1.2505
 6109SOL    HW219461   7.115   6.493   5.169 -0.3344  0.4880  0.1447
 6110SOL     OW19462   8.758   8.738   7.766  0.4585  0.7519  0.4733
 6110SOL    HW119463   8.699   8.783   7.827  1.1342  2.7733 -0.2709
 6110SOL    HW219464   8.804   8.809   7.720  0.0570 -0.6574 -2.3310
 6111SOL     OW19465   5.983   2.930   2.365  0.4940  0.0309  0.5649
 6111SOL    HW119466   5.999   2.836   2.363 -1.0510 -0.2524  0.2643
 6111SOL    HW219467   6.023   2.963   2.284  3.5108  0.1193  1.9762
 6112SOL     OW19468   3.728   2.599   4.716 -0.4131  0.2589 -0.2789
 6112SOL    HW119469   3.823   2.605   4.724 -0.3282  0.6037 -1.3807
 6112SOL    HW219470   3.702   2.536   4.783  0.6614 -0.3439 -0.4083
 6113SOL     OW19471   6.615   5.580   1.320 -0.3886  0.1379 -0.0511
 6113SOL    HW119472   6.624   5.547   1.409 -1.9981  0.3234  0.2260
 6113SOL    HW219473   6.562   5.514   1.275  0.8097 -0.1817 -1.0202
 6114SOL     OW19474   1.183   7.912   7.745 -0.6433 -0.0089 -0.0127
 6114SOL    HW119475   1.246   7.852   7.706 -2.1998 -1.6009 -0.2047
 6114SOL    HW219476   1.172   7.981   7.679  0.1782 -0.2075 -0.3752
 6115SOL     OW19477   7.222   3.545   0.011 -0.1174  0.5755 -0.7815
 6115SOL    HW119478   7.196   3.500  -0.069  2.7381 -1.0179 -0.9614
 6115SOL    HW219479   7.302   3.592  -0.013  0.7070  0.2198  1.0470
 6116SOL     OW19480   7.638   3.518   7.473  0.4902 -0.5650 -0.2564
 6116SOL    HW119481   7.664   3.488   7.560 -1.7303 -2.4827 -0.1865
 6116SOL    HW219482   7.663   3.447   7.414  1.7011  0.5903 -1.2025
 6117SOL     OW19483   6.815   4.470   0.209  0.3431  0.3488  0.2182
 6117SOL    HW119484   6.790   4.382   0.183  2.9916  0.2919 -3.0181
 6117SOL    HW219485   6.904   4.460   0.243  1.4913  1.8109 -2.0515
 6118SOL     OW19486   2.604   2.023   2.855  0.4101 -0.0653  0.0255
 6118SOL    HW119487   2.572   2.092   2.797 -0.8421  1.0479  1.9314
 6118SOL    HW219488   2.537   1.955   2.852  1.9990 -1.6700 -2.4402
 6119SOL     OW19489   8.850   2.201   2.264 -0.1735 -0.0492 -0.1544
 6119SOL    HW119490   8.845   2.112   2.229 -0.0210 -0.3745  0.6434
 6119SOL    HW219491   8.939   2.230   2.244  0.3561 -0.7250  1.0989
 6120SOL     OW19492   2.209   4.107   0.026  0.2152  1.0834 -0.0916
 6120SOL    HW119493   2.213   4.189   0.076 -1.1633  0.5198  0.9992
 6120SOL    HW219494   2.120   4.104  -0.008 -0.3494 -0.8475  1.4458
 6121SOL     OW19495   4.037   4.294   0.543  0.2135  0.1113  0.6058
 6121SOL    HW119496   4.028   4.389   0.542 -1.6152 -0.0139  1.3347
 6121SOL    HW219497   3.948   4.261   0.530  0.6826 -1.4917  1.1875
 6122SOL     OW19498   8.596   6.115   2.007  0.1765 -0.4315  0.0224
 6122SOL    HW119499   8.575   6.202   2.041 -2.1668 -0.4899 -1.0836
 6122SOL    HW219500   8.617   6.063   2.085  0.7883  0.8768  0.7677
 6123SOL     OW19501   3.089   3.708   4.251 -0.4016  0.7108  0.1764
 6123SOL    HW119502   3.020   3.642   4.246 -0.8235  1.0456  1.3505
 6123SOL    HW219503   3.101   3.736   4.160 -0.0528 -1.1089 -0.3894
 6124SOL     OW19504   5.351   5.411   0.461 -0.1342 -0.6717  0.0656
 6124SOL    HW119505   5.357   5.503   0.432  0.7426 -0.5674  0.5503
 6124SOL    HW219506   5.314   5.365   0.385 -0.3178  0.0346 -0.2854
 6125SOL     OW19507   1.035   4.549   1.928 -0.2680  0.4141  0.1760
 6125SOL    HW119508   1.030   4.453   1.918  0.4216  0.2785  0.9756
 6125SOL    HW219509   1.122   4.571   1.896  0.2140  0.5446  1.4914
 6126SOL     OW19510   4.662   8.075   2.713  0.3153 -0.2873  0.3022
 6126SOL    HW119511   4.595   8.038   2.770 -0.0770  0.4094  0.2934
 6126SOL    HW219512   4.636   8.166   2.699  0.9822 -0.1485 -0.1187
 6127SOL     OW19513   7.023   4.599   6.249 -0.0772  0.2130 -0.1114
 6127SOL    HW119514   7.042   4.505   6.239 -0.1552  0.2511 -0.6355
 6127SOL    HW219515   6.929   4.606   6.234 -0.5683  0.0274  2.4690
 6128SOL     OW19516   7.862   8.832   5.144  0.4758  0.2924  0.5492
 6128SOL    HW119517   7.823   8.907   5.190  1.0357  0.3021  1.0227
 6128SOL    HW219518   7.903   8.870   5.067  1.4374  0.5934  1.1948
 6129SOL     OW19519   1.169   7.647   1.909  0.2171  0.1881  0.1094
 6129SOL    HW119520   1.214   7.729   1.931  0.8745 -0.1472  0.0386
 6129SOL    HW219521   1.180   7.638   1.814 -1.3854  0.9054 -0.1860
 6130SOL     OW19522   6.532   1.244   8.884 -0.2795 -0.3571 -0.0227
 6130SOL    HW119523   6.575   1.195   8.954 -1.4835 -0.9907  0.2991
 6130SOL    HW219524   6.497   1.321   8.927  1.7884  0.9672 -0.5652
 6131SOL     OW19525   7.017   0.644   2.455  0.2273 -0.4300  0.1674
 6131SOL    HW119526   7.016   0.728   2.501  0.5466 -0.4150  0.1437
 6131SOL    HW219527   6.930   0.639   2.414 -0.0830 -0.4748  0.8240
 6132SOL     OW19528   6.400   5.512   2.687  0.5946  0.4224 -0.2349
 6132SOL    HW119529   6.309   5.501   2.717  0.3872  0.3161 -0.8838
 6132SOL    HW219530   6.397   5.589   2.631  0.8898  0.3686 -0.3228
 6133SOL     OW19531   6.825   8.208   4.047  0.3345  0.7371 -0.2878
 6133SOL    HW119532   6.803   8.233   3.957  0.9406 -0.2281 -0.7148
 6133SOL    HW219533   6.751   8.240   4.099 -0.3766  0.6664 -1.2288
 6134SOL     OW19534   7.895   7.489   4.315  0.6804 -0.0165  0.1560
 6134SOL    HW119535   7.878   7.395   4.308 -0.9733  0.1938  1.0881
 6134SOL    HW219536   7.828   7.522   4.374  1.5306  1.6882  0.2315
 6135SOL     OW19537   3.164   8.479   8.067  0.3752  0.4571 -0.1957
 6135SOL    HW119538   3.252   8.443   8.061  0.1798  0.1694 -1.6937
 6135SOL    HW219539   3.125   8.434   8.142  1.1530 -0.1865 -0.1684
 6136SOL     OW19540   8.169   2.164   1.402 -0.0786 -0.3875 -0.2124
 6136SOL    HW119541   8.178   2.252   1.365  1.5187 -0.6299 -0.4751
 6136SOL    HW219542   8.090   2.169   1.456  1.1055  1.8446  1.5075
 6137SOL     OW19543   2.968   0.168   7.780 -1.1514 -0.5629 -0.2247
 6137SOL    HW119544   2.998   0.087   7.820 -0.9940 -0.2243  0.3594
 6137SOL    HW219545   2.993   0.160   7.688  1.6972  0.1236  0.3867
 6138SOL     OW19546   6.526   2.452   8.542 -0.0798 -0.8489 -0.3665
 6138SOL    HW119547   6.508   2.451   8.448  0.9120  1.6984 -0.6884
 6138SOL    HW219548   6.600   2.392   8.553 -0.2230 -1.1897 -1.2099
 6139SOL     OW19549   5.536   4.801   5.292  0.6109 -0.5453  0.3829
 6139SOL    HW119550   5.543   4.896   5.300 -0.4100 -0.4157 -0.1003
 6139SOL    HW219551   5.512   4.787   5.200 -2.8862 -1.0079  1.2190
 6140SOL     OW19552   8.445   2.317   8.536 -0.2252  0.1573  0.3727
 6140SOL    HW119553   8.526   2.280   8.499  0.2711  0.8307  0.7740
 6140SOL    HW219554   8.451   2.299   8.629  0.4566  2.0345  0.7127
 6141SOL     OW19555   3.097   2.363   4.294  0.9231 -0.0704 -0.3203
 6141SOL    HW119556   3.062   2.409   4.218 -2.0607  0.7811  1.4118
 6141SOL    HW219557   3.185   2.399   4.305  0.1127  2.4052 -1.2787
 6142SOL     OW19558   4.927   3.002   7.779  0.3587  0.3515 -0.2795
 6142SOL    HW119559   5.019   3.026   7.788  0.0882  1.0171  0.9359
 6142SOL    HW219560   4.910   2.944   7.854 -0.3307  0.6251 -0.2182
 6143SOL     OW19561   0.628   7.519   2.496 -0.1443 -0.2138 -0.3253
 6143SOL    HW119562   0.662   7.523   2.407 -1.6552 -0.0309 -0.9222
 6143SOL    HW219563   0.583   7.435   2.501  0.7426 -0.6594  0.5993
 6144SOL     OW19564   2.600   7.620   0.310 -0.7774 -0.0483  0.5264
 6144SOL    HW119565   2.600   7.546   0.250 -0.2717  1.1540 -1.0420
 6144SOL    HW219566   2.573   7.695   0.256  4.0744  2.0026  0.4936
 6145SOL     OW19567   7.461   7.124   5.451 -0.0835 -0.5235  0.1500
 6145SOL    HW119568   7.376   7.136   5.408  0.3340  4.8964  0.2138
 6145SOL    HW219569   7.511   7.069   5.391 -2.1786 -0.0511 -2.1795
 6146SOL     OW19570   2.246   3.435   1.543  0.2818  0.5414  0.1680
 6146SOL    HW119571   2.209   3.426   1.630 -1.0753  1.0230 -0.3324
 6146SOL    HW219572   2.274   3.347   1.519 -0.3817  0.2012  0.6338
 6147SOL     OW19573   5.687   0.069   2.579 -0.2139  0.0966 -0.4234
 6147SOL    HW119574   5.775   0.039   2.603 -0.2878 -0.6218 -1.0349
 6147SOL    HW219575   5.694   0.165   2.580  0.5534  0.0470 -0.3921
 6148SOL     OW19576   8.453   7.427   6.165 -0.0329  0.6135  0.2201
 6148SOL    HW119577   8.413   7.363   6.107 -0.5115 -1.5824  2.7666
 6148SOL    HW219578   8.406   7.508   6.148 -2.3558 -0.7445 -0.1823
 6149SOL     OW19579   5.293   7.713   8.134 -0.1223 -0.0680  0.1747
 6149SOL    HW119580   5.258   7.634   8.093  0.2912 -0.3322  0.3385
 6149SOL    HW219581   5.377   7.687   8.171 -0.5448  0.1392  1.3016
 6150SOL     OW19582   0.937   7.241   5.217 -0.4673  0.6606  0.7659
 6150SOL    HW119583   0.885   7.176   5.171 -0.1583 -0.0011  1.3422
 6150SOL    HW219584   0.925   7.322   5.166 -2.3835  0.6345  1.1245
 6151SOL     OW19585   2.372   1.160   8.942  0.4382  0.1622  0.6393
 6151SOL    HW119586   2.384   1.211   8.862 -1.3896  0.7654  0.6837
 6151SOL    HW219587   2.460   1.142   8.974  1.1719  0.8244 -0.9362
 6152SOL     OW19588   5.056   8.192   5.007 -0.1980 -0.3909 -0.0836
 6152SOL    HW119589   5.035   8.200   5.100  1.5173 -0.4490  0.3366
 6152SOL    HW219590   5.111   8.268   4.989  0.5187 -1.0516 -0.7389
 6153SOL     OW19591   6.698   2.199   1.089 -0.1110 -0.4656  0.2950
 6153SOL    HW119592   6.720   2.143   1.014  1.9796 -2.1885  2.0993
 6153SOL    HW219593   6.771   2.261   1.095 -1.0508  0.7257  0.0296
 6154SOL     OW19594   6.302   7.540   3.324 -0.2590 -0.0254  0.2530
 6154SOL    HW119595   6.265   7.482   3.258 -3.0695  0.0456  1.6309
 6154SOL    HW219596   6.308   7.625   3.280  2.1330 -0.8178 -1.1815
 6155SOL     OW19597   4.320   5.771   1.658 -0.1176  0.1926 -0.0976
 6155SOL    HW119598   4.237   5.816   1.640 -1.1214 -1.9872 -1.4060
 6155SOL    HW219599   4.313   5.742   1.749 -0.5576  0.4888 -0.0365
 6156SOL     OW19600   3.945   2.909   2.172  0.1677 -0.1154  0.4141
 6156SOL    HW119601   3.962   2.824   2.132 -0.2678 -0.8579  1.7601
 6156SOL    HW219602   3.894   2.889   2.251 -0.2436  1.4194  0.5713
 6157SOL     OW19603   0.529   7.438   6.173 -0.2505 -0.3619 -0.2794
 6157SOL    HW119604   0.541   7.500   6.246  0.7096 -0.6478 -0.1816
 6157SOL    HW219605   0.580   7.361   6.199  0.7613 -0.1759 -1.5889
 6158SOL     OW19606   3.402   5.288   6.893  0.2970  0.0136  0.2480
 6158SOL    HW119607   3.330   5.338   6.855  0.6059 -1.0045 -1.8038
 6158SOL    HW219608   3.367   5.254   6.976 -1.2845  0.2445 -0.2943
 6159SOL     OW19609   1.263   4.859   3.326 -0.1981 -0.5209  0.5451
 6159SOL    HW119610   1.353   4.843   3.357  0.3067  2.8395  1.1714
 6159SOL    HW219611   1.248   4.791   3.261  2.7204 -1.3591  0.6120
 6160SOL     OW19612   5.900   4.418   8.968  0.3039 -0.1329 -0.7834
 6160SOL    HW119613   5.883   4.498   8.918  0.7963 -0.2492 -1.1458
 6160SOL    HW219614   5.995   4.404   8.959  0.2120 -0.7801 -0.7579
 6161SOL     OW19615   5.145   2.140   4.773  0.3748 -0.0245 -0.2927
 6161SOL    HW119616   5.214   2.202   4.752 -0.3264 -0.0512 -2.9698
 6161SOL    HW219617   5.155   2.070   4.709 -1.7787 -0.3036 -0.3913
 6162SOL     OW19618   4.545   6.066   7.514 -0.5642 -0.0254  0.0510
 6162SOL    HW119619   4.631   6.102   7.536 -1.0141  0.2667  1.4000
 6162SOL    HW219620   4.564   5.996   7.451  0.5901  0.4843 -0.1997
 6163SOL     OW19621   5.162   2.788   8.385  0.0988  0.6531  0.3220
 6163SOL    HW119622   5.116   2.861   8.427 -1.2877 -0.5281  0.9357
 6163SOL    HW219623   5.158   2.808   8.291 -1.6861  0.6078  0.3554
 6164SOL     OW19624   2.333   8.363   3.258 -0.6423  0.0058  0.1296
 6164SOL    HW119625   2.337   8.269   3.274  0.3257 -0.0931 -0.5746
 6164SOL    HW219626   2.372   8.374   3.171  0.1961  1.1503  0.6218
 6165SOL     OW19627   8.726   8.200   8.037  0.0493 -0.1173 -0.1300
 6165SOL    HW119628   8.773   8.242   8.109  0.6494 -0.4224 -0.3421
 6165SOL    HW219629   8.745   8.107   8.047 -0.7209 -0.2808 -0.0681
 6166SOL     OW19630   6.170   4.918   4.748  0.4994 -0.4844 -0.6567
 6166SOL    HW119631   6.094   4.869   4.782  0.1375  0.3069 -0.3124
 6166SOL    HW219632   6.134   4.971   4.677  0.2470  1.5918  0.9495
 6167SOL     OW19633   7.413   7.572   3.243  0.0289  0.2952  0.1045
 6167SOL    HW119634   7.442   7.616   3.163 -0.3709 -0.7223 -0.6138
 6167SOL    HW219635   7.482   7.508   3.261  1.0647  1.7568  1.6491
 6168SOL     OW19636   2.591   8.414   5.042  0.4920 -0.0944  0.5656
 6168SOL    HW119637   2.624   8.353   4.975 -0.2109  1.9427 -1.8030
 6168SOL    HW219638   2.504   8.381   5.063 -0.4295  0.7150 -1.6897
 6169SOL     OW19639   8.438   6.321   1.835 -0.0018 -0.4766  0.0608
 6169SOL    HW119640   8.531   6.332   1.856  0.6537 -1.9882 -1.6561
 6169SOL    HW219641   8.403   6.270   1.908  1.0483 -1.6052 -0.1748
 6170SOL     OW19642   6.811   3.388   8.736  0.2102 -0.1291 -0.4283
 6170SOL    HW119643   6.775   3.302   8.759  0.1693  0.4781  2.0453
 6170SOL    HW219644   6.881   3.368   8.673 -0.2812 -1.8822 -0.4739
 6171SOL     OW19645   0.267   6.244   5.019 -0.3701 -0.4090  0.4346
 6171SOL    HW119646   0.313   6.302   5.079 -0.6205 -0.1066  0.3394
 6171SOL    HW219647   0.313   6.161   5.026  0.2568 -0.0871  0.2625
 6172SOL     OW19648   3.509   3.892   4.638 -0.3355  0.8798  0.0070
 6172SOL    HW119649   3.552   3.975   4.616  0.1301  0.7838  0.5289
 6172SOL    HW219650   3.561   3.826   4.592 -1.9574  1.0206 -2.1686
 6173SOL     OW19651   5.341   2.314   0.661  0.7059  0.2457  0.1340
 6173SOL    HW119652   5.349   2.224   0.631 -0.6041  0.0238  0.3736
 6173SOL    HW219653   5.300   2.360   0.587 -0.2240  0.2442  0.6237
 6174SOL     OW19654   6.799   3.661   1.859 -0.1164  0.1242 -0.3191
 6174SOL    HW119655   6.846   3.651   1.776  0.5942 -1.9178  0.2719
 6174SOL    HW219656   6.716   3.616   1.846 -0.4556  0.7096 -0.2355
 6175SOL     OW19657   2.145   0.924   5.321  0.5946  0.3633 -0.4508
 6175SOL    HW119658   2.126   0.902   5.230  0.5913 -0.3858 -0.2761
 6175SOL    HW219659   2.069   0.976   5.350  0.0603 -0.3514 -0.5438
 6176SOL     OW19660   6.576   8.627   0.590 -0.3965 -0.3023  0.2214
 6176SOL    HW119661   6.563   8.659   0.501 -2.0785  1.8434  1.1445
 6176SOL    HW219662   6.671   8.615   0.598 -0.1236  0.4199 -1.5526
 6177SOL     OW19663   2.121   5.699   8.741 -0.3236  0.1623  0.4750
 6177SOL    HW119664   2.209   5.706   8.705 -0.2697  0.5173  0.6627
 6177SOL    HW219665   2.135   5.686   8.835 -0.4666 -0.3092  0.4328
 6178SOL     OW19666   7.361   7.190   4.708 -0.4787  0.2035  0.8208
 6178SOL    HW119667   7.279   7.211   4.753 -0.5591  1.4831  0.1293
 6178SOL    HW219668   7.396   7.275   4.682 -0.2746 -0.4604 -1.2204
 6179SOL     OW19669   4.030   5.706   8.908  0.1924  0.2610 -0.3028
 6179SOL    HW119670   3.939   5.697   8.935  0.0472  0.4925 -0.7007
 6179SOL    HW219671   4.051   5.798   8.926  1.1400 -0.3498  2.1738
 6180SOL     OW19672   6.014   1.156   3.847  0.5794 -0.2283  0.3132
 6180SOL    HW119673   5.983   1.181   3.934  2.9638 -1.0492  1.4992
 6180SOL    HW219674   5.938   1.117   3.805 -0.0270 -2.6527  3.2321
 6181SOL     OW19675   4.539   8.422   2.698  0.4744 -0.5861  0.2078
 6181SOL    HW119676   4.508   8.359   2.634  1.4468  0.1118 -0.9849
 6181SOL    HW219677   4.547   8.505   2.650  1.7865 -0.1753  1.0599
 6182SOL     OW19678   5.237   1.285   4.111  0.0161  0.2349 -0.1562
 6182SOL    HW119679   5.245   1.198   4.071  1.0161  0.8420 -1.3810
 6182SOL    HW219680   5.289   1.342   4.053  2.8457  0.9438  2.7821
 6183SOL     OW19681   5.378   7.968   1.846  0.1973  0.7793  0.1822
 6183SOL    HW119682   5.297   7.950   1.797  1.0743  1.7417 -1.7368
 6183SOL    HW219683   5.440   7.903   1.814  0.1446 -0.1873  1.9151
 6184SOL     OW19684   5.914   5.590   6.136  0.4590 -0.9829  0.2073
 6184SOL    HW119685   5.862   5.581   6.216  0.4189  0.4706  0.3794
 6184SOL    HW219686   5.923   5.501   6.102 -0.4780 -1.4821  1.2249
 6185SOL     OW19687   4.377   8.986   8.929 -0.0627 -0.0717 -0.6021
 6185SOL    HW119688   4.364   9.030   8.844  0.7981 -0.8843 -1.1788
 6185SOL    HW219689   4.297   9.003   8.978 -1.6791 -1.6833 -2.5177
 6186SOL     OW19690   3.211   6.941   8.465  0.1030  0.1351 -0.3270
 6186SOL    HW119691   3.118   6.964   8.468 -0.1057 -0.4638 -1.6250
 6186SOL    HW219692   3.257   7.025   8.459 -0.3096  0.4589  0.7608
 6187SOL     OW19693   4.979   4.119   6.556 -0.5678  0.1163 -0.0938
 6187SOL    HW119694   5.063   4.159   6.535 -1.1015 -0.2008 -3.3387
 6187SOL    HW219695   4.992   4.026   6.538 -1.0329 -0.2955  1.5516
 6188SOL     OW19696   6.651   8.258   8.018  0.1863 -0.2459  0.0935
 6188SOL    HW119697   6.706   8.254   7.939  2.2326 -0.3784  1.4640
 6188SOL    HW219698   6.703   8.214   8.085 -1.7508 -0.6151  1.4046
 6189SOL     OW19699   3.762   4.450   6.161 -0.7904  0.0909  0.7224
 6189SOL    HW119700   3.838   4.482   6.209 -1.8907  1.2562  1.7518
 6189SOL    HW219701   3.712   4.399   6.225 -1.6542  0.6260  0.4846
 6190SOL     OW19702   2.485   6.165   5.387  0.3901  0.5745 -0.9184
 6190SOL    HW119703   2.520   6.154   5.299 -1.0152 -1.9985 -1.2388
 6190SOL    HW219704   2.453   6.079   5.412 -1.4157  1.7335  1.1978
 6191SOL     OW19705   7.961   0.280   9.090  0.5147 -0.4578  0.1662
 6191SOL    HW119706   7.879   0.250   9.051  0.7107 -0.7753 -0.0023
 6191SOL    HW219707   8.022   0.207   9.079  1.0935  0.1081 -0.5361
 6192SOL     OW19708   2.430   5.361   5.400 -0.2004  0.1301 -0.3407
 6192SOL    HW119709   2.504   5.378   5.341 -0.4819 -0.4270 -0.8662
 6192SOL    HW219710   2.469   5.351   5.486  0.0625  3.0264  0.0029
 6193SOL     OW19711   5.811   5.844   2.660 -0.4373  0.1262  0.3762
 6193SOL    HW119712   5.835   5.751   2.667 -0.8489 -0.1386 -1.1550
 6193SOL    HW219713   5.817   5.862   2.566 -1.4334  1.3571  0.5231
 6194SOL     OW19714   4.359   0.783   2.779  0.0560 -0.0110 -0.3522
 6194SOL    HW119715   4.327   0.858   2.729  1.0278 -0.0259 -1.0348
 6194SOL    HW219716   4.392   0.722   2.713 -0.6128 -0.9993  0.1977
 6195SOL     OW19717   1.731   3.858   7.065  0.0319  0.0517 -0.2353
 6195SOL    HW119718   1.764   3.769   7.083  1.3004  0.2190 -1.5934
 6195SOL    HW219719   1.682   3.881   7.144  0.7616 -1.3642  0.6781
 6196SOL     OW19720   5.043   1.573   4.978  0.2970  0.1351  0.4639
 6196SOL    HW119721   5.033   1.632   4.903 -1.1688  0.4841  0.9006
 6196SOL    HW219722   5.028   1.629   5.055 -0.0670 -0.5757  0.9249
 6197SOL     OW19723   8.923   2.988   7.522 -0.2135  0.2886 -0.1810
 6197SOL    HW119724   8.947   3.070   7.480 -0.9287  1.0808  0.9012
 6197SOL    HW219725   8.884   2.935   7.452 -1.2594  1.5249 -0.5663
 6198SOL     OW19726   4.780   0.626   5.932  0.3472  0.4180 -0.0199
 6198SOL    HW119727   4.832   0.686   5.879  2.1987 -0.4107  0.7779
 6198SOL    HW219728   4.819   0.629   6.019 -2.3583  1.4306  1.2982
 6199SOL     OW19729   8.662   8.951   1.068  0.3972  0.1639 -0.1790
 6199SOL    HW119730   8.690   8.885   1.131 -0.1873 -1.2064 -1.3046
 6199SOL    HW219731   8.608   8.903   1.005  2.4842  1.0757 -2.8226
 6200SOL     OW19732   0.091   1.699   7.653  0.0575  0.1205  0.0164
 6200SOL    HW119733   0.045   1.630   7.605 -0.6593  0.3109  0.4098
 6200SOL    HW219734   0.023   1.739   7.708  0.6723  0.5009  0.5124
 6201SOL     OW19735   7.812   8.017   6.334 -0.3587  0.6600  0.3539
 6201SOL    HW119736   7.763   8.021   6.416  1.2384  2.0768  1.2908
 6201SOL    HW219737   7.838   8.108   6.317  1.1168  0.0850 -0.6120
 6202SOL     OW19738   3.381   1.176   9.058  0.1362  0.0061  0.3011
 6202SOL    HW119739   3.355   1.224   9.137  0.4360  0.1020  0.3408
 6202SOL    HW219740   3.318   1.204   8.992 -0.9576 -1.0734  0.8329
 6203SOL     OW19741   4.098   2.727   8.341 -0.0330  0.1059  0.0352
 6203SOL    HW119742   4.190   2.701   8.340  0.3646  1.0866  2.9074
 6203SOL    HW219743   4.067   2.702   8.428 -2.1911  0.7921 -0.4749
 6204SOL     OW19744   6.398   3.019   2.408  0.0692  0.1851  0.3939
 6204SOL    HW119745   6.425   3.048   2.321 -0.7125  0.8507  0.3622
 6204SOL    HW219746   6.370   3.099   2.453 -1.4670 -0.4061  0.5456
 6205SOL     OW19747   5.014   3.549   0.007 -0.2357 -0.1780 -0.2583
 6205SOL    HW119748   5.007   3.467   0.055 -2.8809 -0.1981 -0.5309
 6205SOL    HW219749   4.981   3.615   0.067  0.6049  0.5138 -0.5270
 6206SOL     OW19750   8.250   3.254   8.224 -0.2202  0.1890 -0.6666
 6206SOL    HW119751   8.264   3.298   8.140  2.3658  0.3019 -0.2507
 6206SOL    HW219752   8.164   3.214   8.215  0.0433  0.0138 -3.4655
 6207SOL     OW19753   7.218   2.694   5.761 -0.0682  0.0960 -0.5095
 6207SOL    HW119754   7.257   2.718   5.677 -3.1229 -0.7736 -2.3298
 6207SOL    HW219755   7.219   2.599   5.762  2.5076  0.0148  1.8770
 6208SOL     OW19756   1.675   4.104   1.994  0.0292 -0.0960  0.1710
 6208SOL    HW119757   1.726   4.179   2.023 -0.7426  0.7905 -0.6989
 6208SOL    HW219758   1.588   4.139   1.976 -0.7959 -1.4955  1.2411
 6209SOL     OW19759   3.016   5.928   7.964  0.0495  0.2228  0.1148
 6209SOL    HW119760   2.946   5.892   7.910  2.2703 -0.8886 -2.2569
 6209SOL    HW219761   3.019   5.872   8.041  0.4152 -1.8446 -1.3338
 6210SOL     OW19762   1.649   1.913   5.478 -0.0612 -0.0111 -0.1220
 6210SOL    HW119763   1.618   2.000   5.454 -1.1482 -0.7096 -1.4153
 6210SOL    HW219764   1.570   1.865   5.504  0.5698 -0.5118  0.9619
 6211SOL     OW19765   5.093   1.330   7.990 -0.1509  0.3984  0.2288
 6211SOL    HW119766   5.133   1.390   8.053  1.0707 -0.8900  0.7412
 6211SOL    HW219767   5.165   1.307   7.930 -1.5192  2.4544 -2.4335
 6212SOL     OW19768   8.021   8.924   6.715  0.2181  0.0775  0.3265
 6212SOL    HW119769   7.962   8.914   6.641  0.4477  1.0515 -0.0008
 6212SOL    HW219770   8.070   8.841   6.718 -0.5563 -0.4002  0.0865
 6213SOL     OW19771   8.667   2.935   4.578 -0.5589  0.2685 -0.4990
 6213SOL    HW119772   8.661   2.885   4.496 -0.2561  0.4822 -0.6506
 6213SOL    HW219773   8.650   2.870   4.647 -0.6117  0.0475 -0.7186
 6214SOL     OW19774   2.330   3.458   0.705 -0.3663 -0.4809  0.0431
 6214SOL    HW119775   2.346   3.533   0.762  0.4366 -0.4486 -0.2095
 6214SOL    HW219776   2.312   3.386   0.765  0.1829 -0.3811  0.3370
 6215SOL     OW19777   5.971   2.681   7.658 -0.1304 -0.1124 -0.4493
 6215SOL    HW119778   5.904   2.615   7.674 -0.9498  0.7568 -0.1685
 6215SOL    HW219779   5.923   2.763   7.653  0.9526  0.5975  0.1950
 6216SOL     OW19780   0.637   8.421   7.202  0.2338 -0.2832 -0.7039
 6216SOL    HW119781   0.645   8.504   7.155  2.3584 -0.1198 -0.1756
 6216SOL    HW219782   0.668   8.355   7.140  0.3182 -0.4411 -0.4966
 6217SOL     OW19783   5.326   6.267   8.298 -0.7994  0.7443 -0.6161
 6217SOL    HW119784   5.259   6.199   8.299 -1.1486  1.0758 -1.1072
 6217SOL    HW219785   5.316   6.309   8.212  0.2372  0.5965 -0.8168
 6218SOL     OW19786   3.401   3.819   1.514 -0.5636  0.0588  0.2046
 6218SOL    HW119787   3.345   3.742   1.505 -1.8037  0.6337  2.2198
 6218SOL    HW219788   3.487   3.783   1.537 -0.5627 -0.7760 -1.0132
 6219SOL     OW19789   6.643   5.669   3.830 -0.7526  0.3289 -0.1188
 6219SOL    HW119790   6.560   5.628   3.855 -0.6773  0.6410  0.6742
 6219SOL    HW219791   6.625   5.763   3.829 -1.0584  0.3108 -2.4349
 6220SOL     OW19792   6.275   6.643   1.554 -0.2025 -0.1126  0.1079
 6220SOL    HW119793   6.325   6.670   1.478 -0.7917 -0.9201 -0.5781
 6220SOL    HW219794   6.340   6.614   1.618  0.2077 -2.9241 -1.4361
 6221SOL     OW19795   3.318   0.900   4.703 -0.0510  0.3222 -0.1352
 6221SOL    HW119796   3.377   0.908   4.777  0.8301 -0.7305 -0.6936
 6221SOL    HW219797   3.334   0.979   4.651 -0.6630  1.0553  0.7620
 6222SOL     OW19798   4.875   8.980   7.714 -0.2853  0.2649  0.4176
 6222SOL    HW119799   4.865   8.931   7.633 -1.4943  0.1174  0.6428
 6222SOL    HW219800   4.920   9.061   7.687 -1.9540  0.8850 -0.6796
 6223SOL     OW19801   8.592   1.859   4.004 -0.0728 -0.1413  0.3724
 6223SOL    HW119802   8.660   1.915   4.039 -0.6915  0.2690  0.9281
 6223SOL    HW219803   8.510   1.903   4.026 -0.5205 -0.5419 -0.4311
 6224SOL     OW19804   5.705   3.440   2.277 -0.0224 -0.1514 -0.3537
 6224SOL    HW119805   5.640   3.510   2.284  1.1373  0.7931  2.4436
 6224SOL    HW219806   5.655   3.363   2.250 -2.1072  0.8036  0.5597
 6225SOL     OW19807   0.916   6.832   4.646 -0.2922  0.1549 -0.1582
 6225SOL    HW119808   0.957   6.829   4.733 -1.1904 -0.6647  0.2503
 6225SOL    HW219809   0.824   6.851   4.663 -0.4764  0.0011 -0.9313
 6226SOL     OW19810   4.658   6.057   3.661 -0.1438  0.0576  0.0243
 6226SOL    HW119811   4.590   6.116   3.629 -0.7678 -0.4679  0.3775
 6226SOL    HW219812   4.728   6.116   3.690 -0.0272  0.5736 -1.2265
 6227SOL     OW19813   2.163   3.644   2.880 -0.7705  0.7243 -0.8088
 6227SOL    HW119814   2.115   3.707   2.826 -0.8316  0.3914 -1.1511
 6227SOL    HW219815   2.160   3.563   2.830  1.1676  0.9734 -1.4284
 6228SOL     OW19816   4.136   7.854   8.591 -0.1994 -0.2660  0.1361
 6228SOL    HW119817   4.077   7.791   8.550  0.2017 -1.2021  0.9513
 6228SOL    HW219818   4.207   7.801   8.626  0.2331  0.6631  0.7121
 6229SOL     OW19819   4.431   6.797   6.403 -0.2933  0.3399  0.3066
 6229SOL    HW119820   4.369   6.761   6.466  0.0863 -0.6271  0.1412
 6229SOL    HW219821   4.504   6.735   6.402 -0.4087  0.1862 -1.2680
 6230SOL     OW19822   8.189   0.622   8.797 -0.1093  0.5936  0.3854
 6230SOL    HW119823   8.117   0.560   8.803 -0.6217  1.2808  2.2355
 6230SOL    HW219824   8.268   0.568   8.792 -0.6079 -0.1907  0.8285
 6231SOL     OW19825   3.992   4.279   7.196  0.1904 -0.3463 -0.2832
 6231SOL    HW119826   3.980   4.353   7.255  0.5794 -0.0382 -0.5851
 6231SOL    HW219827   3.914   4.225   7.209 -0.2002  0.2234 -0.2178
 6232SOL     OW19828   3.685   5.537   2.110  0.1502  0.0039 -0.1056
 6232SOL    HW119829   3.687   5.521   2.016  0.3115 -0.9812  0.0575
 6232SOL    HW219830   3.679   5.450   2.149 -3.3176  0.5084  0.7321
 6233SOL     OW19831   2.600   3.467   7.818 -0.2008  0.0594  0.1369
 6233SOL    HW119832   2.628   3.379   7.792 -1.0075 -0.1333 -0.1121
 6233SOL    HW219833   2.527   3.487   7.759 -0.2940  0.7317  0.4706
 6234SOL     OW19834   3.247   0.076   5.696  0.5506  0.0301  0.0751
 6234SOL    HW119835   3.213   0.001   5.745 -0.8251 -0.2479 -1.2066
 6234SOL    HW219836   3.246   0.148   5.758 -3.0757  0.1958  0.0530
 6235SOL     OW19837   7.523   3.157   2.362 -0.3045 -0.2546 -0.4636
 6235SOL    HW119838   7.452   3.155   2.298  0.1933  1.3651 -1.1121
 6235SOL    HW219839   7.569   3.074   2.348 -1.6701 -1.0254 -0.4810
 6236SOL     OW19840   6.895   6.411   3.714 -0.0888  0.3219 -0.1397
 6236SOL    HW119841   6.804   6.424   3.740 -0.4157 -1.2232 -0.3652
 6236SOL    HW219842   6.946   6.455   3.781 -0.9998  1.0363  0.1087
 6237SOL     OW19843   5.997   4.585   1.159 -0.7132  0.6232  0.4130
 6237SOL    HW119844   6.041   4.651   1.213 -1.4286  1.6471 -0.2440
 6237SOL    HW219845   5.944   4.535   1.221 -0.5729  0.9909  0.8330
 6238SOL     OW19846   6.732   5.434   2.414  0.2990 -0.2240 -0.3450
 6238SOL    HW119847   6.791   5.364   2.388  0.4558  0.7397 -2.8701
 6238SOL    HW219848   6.691   5.402   2.494  1.8752 -2.2762 -0.2706
 6239SOL     OW19849   2.797   8.018   4.507 -1.0583  0.3865  0.2012
 6239SOL    HW119850   2.774   8.087   4.445  0.3548 -1.1020 -2.1370
 6239SOL    HW219851   2.879   8.049   4.546  0.2680 -0.4117 -1.7796
 6240SOL     OW19852   3.378   9.084   0.221 -0.4588  0.1884  0.1163
 6240SOL    HW119853   3.437   9.094   0.147  0.6295 -0.2566  0.8993
 6240SOL    HW219854   3.313   9.153   0.210 -1.0903 -0.6527 -1.9485
 6241SOL     OW19855   7.157   3.780   8.166 -0.2529 -0.3499 -0.4040
 6241SOL    HW119856   7.134   3.722   8.093 -1.2518 -0.0979 -0.2975
 6241SOL    HW219857   7.094   3.758   8.235  0.6196 -0.5147  0.3579
 6242SOL     OW19858   3.824   7.730   3.174  0.7339  0.5496 -0.5770
 6242SOL    HW119859   3.897   7.788   3.156  0.3523  1.4148  0.5835
 6242SOL    HW219860   3.803   7.744   3.266 -0.5536 -0.0692 -0.7459
 6243SOL     OW19861   1.839   6.299   3.776  0.2237  0.0351 -0.1001
 6243SOL    HW119862   1.898   6.374   3.769  1.2859 -0.5471  2.0205
 6243SOL    HW219863   1.882   6.230   3.726 -0.5441  0.6519 -1.6887
 6244SOL     OW19864   7.587   8.929   1.190  0.3458  0.1461  0.3499
 6244SOL    HW119865   7.549   8.975   1.114  0.0739 -0.6423  0.0020
 6244SOL    HW219866   7.521   8.864   1.214  1.5892 -1.4718 -0.4709
 6245SOL     OW19867   6.858   5.834   5.346 -0.4338 -0.2873 -0.5764
 6245SOL    HW119868   6.867   5.814   5.439 -0.6620  0.7921 -0.3106
 6245SOL    HW219869   6.779   5.787   5.319  0.0952 -1.2755 -0.4280
 6246SOL     OW19870   3.402   5.929   4.738 -0.1236  0.2672  0.4865
 6246SOL    HW119871   3.482   5.972   4.771  2.2155 -2.5309 -1.0260
 6246SOL    HW219872   3.374   5.873   4.811 -0.2471  0.6682  0.7498
 6247SOL     OW19873   5.965   2.434   7.462 -0.1387 -0.4017 -0.5102
 6247SOL    HW119874   6.031   2.428   7.530 -0.4831  0.8109 -0.0288
 6247SOL    HW219875   6.010   2.474   7.387  0.0421 -0.9843 -0.7129
 6248SOL     OW19876   4.298   4.812   8.651  0.2975 -0.4057  0.3869
 6248SOL    HW119877   4.223   4.753   8.659  0.9747 -1.3071  0.2378
 6248SOL    HW219878   4.336   4.790   8.566  1.3385 -0.6928  0.9137
 6249SOL     OW19879   2.421   8.656   3.762  0.7444 -0.0879  0.1847
 6249SOL    HW119880   2.379   8.570   3.770  2.9452 -1.1246  1.9757
 6249SOL    HW219881   2.483   8.646   3.690  0.3183  0.3260 -0.2420
 6250SOL     OW19882   8.760   2.352   0.330  0.4625  0.2906  0.3189
 6250SOL    HW119883   8.800   2.432   0.363 -2.3507  0.4123  4.0858
 6250SOL    HW219884   8.686   2.381   0.278 -1.1434  0.2723  2.4892
 6251SOL     OW19885   8.464   1.215   1.594 -0.3152 -0.2371  0.1320
 6251SOL    HW119886   8.517   1.283   1.637  0.0793 -0.4660  0.0028
 6251SOL    HW219887   8.431   1.258   1.515  0.3039 -0.3390 -0.1813
 6252SOL     OW19888   3.031   1.868   6.397  0.5234  0.6779  0.1605
 6252SOL    HW119889   3.022   1.961   6.416  1.5535  1.2708 -1.9686
 6252SOL    HW219890   3.124   1.856   6.377  0.1070 -0.4042 -1.3629
 6253SOL     OW19891   3.487   3.457   7.678  0.3198 -0.0760 -0.0245
 6253SOL    HW119892   3.491   3.514   7.601  2.5954  0.0495  0.1151
 6253SOL    HW219893   3.473   3.369   7.642  0.7402  0.0608 -0.5293
 6254SOL     OW19894   8.166   4.987   8.033 -0.0636 -0.2218  0.5434
 6254SOL    HW119895   8.125   4.929   8.097 -2.4711  0.7230 -0.0420
 6254SOL    HW219896   8.123   4.967   7.951  1.9176 -0.3486 -0.5360
 6255SOL     OW19897   7.352   8.989   3.226  0.0357 -0.2062  0.5493
 6255SOL    HW119898   7.260   8.972   3.204  0.0877  0.2548 -0.0666
 6255SOL    HW219899   7.384   9.043   3.153  0.8778 -0.6122  0.6106
 6256SOL     OW19900   2.139   3.601   4.397  0.1802 -0.0676 -0.4510
 6256SOL    HW119901   2.060   3.645   4.427 -0.0850 -0.4390 -0.6053
 6256SOL    HW219902   2.128   3.510   4.424  0.5070 -0.1436 -0.5655
 6257SOL     OW19903   5.093   8.629   2.162 -0.0743  0.4025 -0.2016
 6257SOL    HW119904   5.025   8.597   2.103 -0.9526 -1.4106  1.6487
 6257SOL    HW219905   5.152   8.554   2.174 -0.6571  0.2284  2.1562
 6258SOL     OW19906   2.593   9.064   5.140 -0.1250  0.3880  0.1242
 6258SOL    HW119907   2.580   9.158   5.134  0.1349  0.5642  1.8719
 6258SOL    HW219908   2.510   9.026   5.110 -0.0156  1.1358 -1.1703
 6259SOL     OW19909   2.888   7.515   2.673  0.1528  0.8867 -0.3985
 6259SOL    HW119910   2.971   7.491   2.632 -0.4126  0.8716 -1.5523
 6259SOL    HW219911   2.870   7.443   2.734  1.0513  0.9686 -0.0110
 6260SOL     OW19912   3.690   2.125   4.201  0.3884 -0.1418 -0.2062
 6260SOL    HW119913   3.622   2.180   4.162  0.6209  0.3018  0.0091
 6260SOL    HW219914   3.700   2.052   4.140 -0.9426 -0.7088  0.2216
 6261SOL     OW19915   4.859   7.365   2.472  0.2432 -0.6702 -0.2889
 6261SOL    HW119916   4.842   7.424   2.399  0.2233 -1.0223 -0.5650
 6261SOL    HW219917   4.952   7.342   2.463  0.5851  0.2915  0.5254
 6262SOL     OW19918   0.390   0.332   9.069  0.0363  0.2845  0.4442
 6262SOL    HW119919   0.456   0.382   9.118 -1.5303  2.2294  0.6970
 6262SOL    HW219920   0.356   0.394   9.004  0.3669 -1.5120 -1.5876
 6263SOL     OW19921   3.027   8.290   8.960  0.0906  0.9832 -0.2375
 6263SOL    HW119922   3.087   8.236   8.909  0.4933  1.2192 -0.0214
 6263SOL    HW219923   3.072   8.304   9.043 -1.1995 -0.6866  0.8113
 6264SOL     OW19924   7.481   3.413   1.703 -0.0361  0.8556  0.8209
 6264SOL    HW119925   7.483   3.487   1.763  2.2030  1.1774  0.4438
 6264SOL    HW219926   7.551   3.355   1.734  0.4007  0.4760 -0.7809
 6265SOL     OW19927   8.041   7.969   5.008  0.2944  0.5986 -0.4181
 6265SOL    HW119928   8.035   7.876   5.032 -2.1149  0.7484 -0.1950
 6265SOL    HW219929   8.126   7.977   4.967  0.0344 -2.0299 -1.7142
 6266SOL     OW19930   3.706   6.142   3.092 -0.1147  0.1328  0.2447
 6266SOL    HW119931   3.718   6.234   3.116  0.5936  0.5216 -1.4337
 6266SOL    HW219932   3.611   6.130   3.090 -0.2482  1.1802 -0.6881
 6267SOL     OW19933   3.195   4.416   7.713  0.3013 -0.0419 -0.3199
 6267SOL    HW119934   3.263   4.483   7.708 -0.8826  1.1071 -2.2140
 6267SOL    HW219935   3.114   4.462   7.690 -0.6740 -1.9458 -0.9228
 6268SOL     OW19936   0.076   6.661   1.287 -0.0941  0.0609 -0.8932
 6268SOL    HW119937   0.091   6.717   1.362  0.0530 -0.4810 -0.5125
 6268SOL    HW219938   0.046   6.720   1.218 -1.7217  0.3721  0.0342
 6269SOL     OW19939   4.145   0.888   3.454  0.2005  0.1163 -0.6337
 6269SOL    HW119940   4.141   0.796   3.481 -1.3136  0.3613  0.1045
 6269SOL    HW219941   4.142   0.884   3.358 -1.1679 -0.5998 -0.5955
 6270SOL     OW19942   2.700   0.822   0.165 -0.1093  0.2543  0.4739
 6270SOL    HW119943   2.740   0.762   0.228  1.0824  2.2575  1.7399
 6270SOL    HW219944   2.641   0.767   0.114  1.6076 -2.1669  0.9007
 6271SOL     OW19945   1.677   1.208   8.036  0.3337 -0.4285 -0.3397
 6271SOL    HW119946   1.757   1.238   8.079  0.6702 -0.3387 -1.0092
 6271SOL    HW219947   1.686   1.239   7.946 -0.4019 -0.5222 -0.4457
 6272SOL     OW19948   5.620   5.812   4.591  0.0462 -0.4495  0.2071
 6272SOL    HW119949   5.543   5.786   4.641 -0.4072  0.8040  0.1898
 6272SOL    HW219950   5.660   5.881   4.643 -0.6437  1.1444 -1.3011
 6273SOL     OW19951   3.325   2.246   7.532  1.0919  0.3869  0.0324
 6273SOL    HW119952   3.334   2.184   7.460  1.5783 -0.7859  1.0601
 6273SOL    HW219953   3.255   2.209   7.586  0.2736  1.5957 -0.1511
 6274SOL     OW19954   8.415   0.560   0.934  0.0192  0.4302  0.3483
 6274SOL    HW119955   8.447   0.510   1.008  2.7510  0.4162 -0.7076
 6274SOL    HW219956   8.325   0.531   0.922  0.5740 -2.0695  1.5594
 6275SOL     OW19957   8.117   6.486   0.598  0.0754  0.1853 -0.1000
 6275SOL    HW119958   8.093   6.448   0.514  0.2556  0.6082 -0.3456
 6275SOL    HW219959   8.039   6.475   0.653  0.2366 -0.8493 -0.0492
 6276SOL     OW19960   8.000   0.939   2.292 -0.4311  0.4491  0.2891
 6276SOL    HW119961   8.005   0.889   2.374 -2.9059 -0.4258 -0.0121
 6276SOL    HW219962   8.049   0.886   2.229 -1.2810 -0.5929  0.4675
 6277SOL     OW19963   8.284   8.410   5.780 -0.7938  0.5157 -0.1606
 6277SOL    HW119964   8.270   8.315   5.781  1.3700  0.1362  1.1428
 6277SOL    HW219965   8.276   8.434   5.687  1.4083 -1.4801 -0.9922
 6278SOL     OW19966   2.707   2.397   1.036  0.5193 -0.4875  0.0707
 6278SOL    HW119967   2.727   2.308   1.063 -1.7898 -0.4558  2.2020
 6278SOL    HW219968   2.715   2.449   1.116 -0.7231  0.7338 -0.5472
 6279SOL     OW19969   3.230   3.489   0.643  0.1305 -0.0283 -0.3717
 6279SOL    HW119970   3.183   3.481   0.726  0.3566  1.4254 -0.0891
 6279SOL    HW219971   3.167   3.530   0.584  1.0534  2.1365  0.0704
 6280SOL     OW19972   6.997   7.749   2.382 -0.0326  0.3943 -0.1538
 6280SOL    HW119973   6.955   7.736   2.297 -0.1241  0.3974 -0.1092
 6280SOL    HW219974   6.973   7.671   2.432  1.2529 -0.3374 -0.6293
 6281SOL     OW19975   1.341   5.423   5.138  0.0921 -0.0998  0.2102
 6281SOL    HW119976   1.411   5.457   5.193  1.8737  0.0843 -2.0502
 6281SOL    HW219977   1.286   5.500   5.120  1.5562  0.6754 -1.1766
 6282SOL     OW19978   7.458   5.974   5.653  0.6890  0.2900 -0.0828
 6282SOL    HW119979   7.366   5.984   5.625 -0.0115  0.2031  2.0284
 6282SOL    HW219980   7.459   5.893   5.703  1.6018  1.0289  1.1363
 6283SOL     OW19981   8.223   4.597   1.874 -0.3443 -0.1053  0.1517
 6283SOL    HW119982   8.226   4.568   1.965 -1.0226  0.5738  0.3988
 6283SOL    HW219983   8.129   4.608   1.856 -0.3674 -1.8635 -1.1588
 6284SOL     OW19984   4.460   7.524   7.609  0.6831  0.5220  0.6123
 6284SOL    HW119985   4.504   7.578   7.544  0.3358 -0.3680 -0.4123
 6284SOL    HW219986   4.524   7.456   7.631  0.0212 -0.5285 -0.5671
 6285SOL     OW19987   3.290   0.994   2.493  0.4372  0.4665 -0.3044
 6285SOL    HW119988   3.317   0.921   2.549 -0.2237  0.5297  0.1068
 6285SOL    HW219989   3.309   0.964   2.404  1.1524  0.2159 -0.0736
 6286SOL     OW19990   2.943   7.964   0.088  0.0106 -0.1092 -0.5170
 6286SOL    HW119991   2.860   7.948   0.134 -0.5845  0.4431 -1.3838
 6286SOL    HW219992   2.972   8.049   0.119  0.2957 -0.3296 -0.1674
 6287SOL     OW19993   2.699   1.601   4.037 -0.0565  0.0153  0.1742
 6287SOL    HW119994   2.605   1.596   4.052 -0.2849  0.7194 -0.8993
 6287SOL    HW219995   2.710   1.580   3.944  1.0194 -1.5642  0.6123
 6288SOL     OW19996   6.296   2.382   7.867  0.0016  0.2338 -0.0240
 6288SOL    HW119997   6.362   2.320   7.837  0.1497  0.2485  0.2701
 6288SOL    HW219998   6.289   2.446   7.796 -1.7454 -1.2943 -1.3718
 6289SOL     OW19999   7.934   5.839   3.759  0.0177 -0.4169 -0.3132
 6289SOL    HW120000   8.007   5.900   3.768 -0.2510 -0.2659  1.0277
 6289SOL    HW220001   7.857   5.894   3.753  0.0256 -0.5431 -2.5796
 6290SOL     OW20002   7.690   7.678   1.499 -0.1475  0.0462  0.2189
 6290SOL    HW120003   7.730   7.595   1.472  1.1923  0.9731 -0.7934
 6290SOL    HW220004   7.599   7.671   1.472  0.4527 -0.2552 -1.9283
 6291SOL     OW20005   4.436   1.404   5.529 -0.0996  0.2655 -0.3635
 6291SOL    HW120006   4.353   1.445   5.554 -0.2531 -1.3468  2.2274
 6291SOL    HW220007   4.503   1.457   5.574  0.0238 -0.1181 -0.0950
 6292SOL     OW20008   7.566   5.311   2.661 -0.1983 -0.7407  0.0481
 6292SOL    HW120009   7.591   5.257   2.736  1.7513  0.9840  0.7425
 6292SOL    HW220010   7.596   5.262   2.585 -1.5148 -2.1572  0.4026
 6293SOL     OW20011   4.439   6.368   0.295 -0.1784 -0.2109 -0.2657
 6293SOL    HW120012   4.363   6.320   0.328 -0.5000 -0.5648 -1.4876
 6293SOL    HW220013   4.501   6.300   0.269  0.5490  0.0774  0.6729
 6294SOL     OW20014   7.115   0.710   8.905  0.1129  0.0210 -0.6806
 6294SOL    HW120015   7.142   0.786   8.957  3.9578 -2.1018  0.8558
 6294SOL    HW220016   7.146   0.728   8.817  0.1469  0.5966 -0.5556
 6295SOL     OW20017   2.267   3.459   6.857 -0.4604  0.2527  0.1501
 6295SOL    HW120018   2.307   3.537   6.897 -1.7028  1.3892 -0.7241
 6295SOL    HW220019   2.330   3.433   6.789  0.3610 -0.0340  1.0004
 6296SOL     OW20020   1.904   5.529   0.171  0.1125 -0.2774 -0.1366
 6296SOL    HW120021   1.853   5.594   0.123 -0.2484 -0.4258  0.0429
 6296SOL    HW220022   1.882   5.544   0.263  1.3228  0.4536  0.0473
 6297SOL     OW20023   8.793   2.536   6.115  0.3528  0.1937 -0.8670
 6297SOL    HW120024   8.748   2.528   6.200  1.7454  0.6861 -0.0611
 6297SOL    HW220025   8.873   2.584   6.134  1.5253 -1.1311 -2.1567
 6298SOL     OW20026   7.057   0.268   3.473 -0.0436 -0.3848 -0.0491
 6298SOL    HW120027   7.089   0.345   3.519 -1.1339  0.7813 -1.1592
 6298SOL    HW220028   7.117   0.198   3.498  1.1236  0.8716  0.7973
 6299SOL     OW20029   2.944   6.294   7.887 -0.7474 -0.0619 -0.1990
 6299SOL    HW120030   3.036   6.272   7.871  0.0814  2.0899  1.1028
 6299SOL    HW220031   2.907   6.307   7.800  0.2948 -0.5532 -0.7330
 6300SOL     OW20032   5.723   1.642   6.037  0.6391  0.3935  0.5698
 6300SOL    HW120033   5.755   1.689   5.960  0.5512 -0.4640  0.0064
 6300SOL    HW220034   5.802   1.606   6.077  0.4072 -2.6424 -1.4155
 6301SOL     OW20035   3.828   6.354   9.055 -0.1318 -0.1513  0.4540
 6301SOL    HW120036   3.805   6.431   9.107 -1.6319  0.3402 -0.8627
 6301SOL    HW220037   3.776   6.283   9.092 -0.1117 -0.1269  0.5285
 6302SOL     OW20038   4.844   2.158   8.955 -0.0283  0.2066 -0.6376
 6302SOL    HW120039   4.873   2.108   9.031  1.2533  0.7188 -0.7742
 6302SOL    HW220040   4.769   2.209   8.988  2.0537  2.3938  1.0624
 6303SOL     OW20041   8.800   2.338   6.731 -0.0688  0.0659  0.5442
 6303SOL    HW120042   8.723   2.297   6.772 -0.1935  0.2851  0.5284
 6303SOL    HW220043   8.778   2.343   6.638 -1.0578  2.3603  0.8525
 6304SOL     OW20044   8.295   9.015   0.085 -0.0987 -0.1486  0.1063
 6304SOL    HW120045   8.384   9.041   0.106 -0.7917  1.0274  1.8161
 6304SOL    HW220046   8.264   8.967   0.162 -0.3310 -2.3132 -1.2464
 6305SOL     OW20047   5.601   1.016   5.601  0.0456  0.3750  0.1689
 6305SOL    HW120048   5.672   0.975   5.552 -0.2095 -1.2531  1.0533
 6305SOL    HW220049   5.592   0.961   5.680 -2.8163 -0.1226 -0.3845
 6306SOL     OW20050   1.541   7.264   3.195 -0.2026  0.1093 -0.2139
 6306SOL    HW120051   1.578   7.253   3.108  1.1964  0.9549  0.2407
 6306SOL    HW220052   1.552   7.179   3.237  3.1332  0.7952  0.5617
 6307SOL     OW20053   7.578   7.375   7.329 -0.2647 -0.0420 -0.2482
 6307SOL    HW120054   7.601   7.313   7.399  1.2196  0.1260 -0.5456
 6307SOL    HW220055   7.645   7.361   7.262 -2.9333 -1.8506 -2.7712
 6308SOL     OW20056   0.459   4.274   1.976 -0.6579 -0.0714 -0.5356
 6308SOL    HW120057   0.411   4.355   1.992 -1.0627  0.2648 -3.1007
 6308SOL    HW220058   0.548   4.302   1.956 -0.8925 -0.1666 -1.8312
 6309SOL     OW20059   2.480   8.900   1.211  0.3000 -0.7064 -0.1110
 6309SOL    HW120060   2.436   8.939   1.136  1.7829 -0.1098 -0.7130
 6309SOL    HW220061   2.566   8.944   1.214 -0.4596  0.8451  3.2100
 6310SOL     OW20062   2.135   8.686   3.585  0.1001 -0.0640  0.0305
 6310SOL    HW120063   2.127   8.648   3.673 -0.6243 -2.5107 -1.0238
 6310SOL    HW220064   2.218   8.654   3.552  0.0318  0.2469 -0.4571
 6311SOL     OW20065   7.260   1.438   2.476 -0.6438 -0.1320 -0.1222
 6311SOL    HW120066   7.237   1.368   2.415 -1.3794  0.9543 -1.1286
 6311SOL    HW220067   7.201   1.510   2.454  0.0398  0.7896  0.9360
 6312SOL     OW20068   2.233   5.217   2.853  0.0196 -0.0412 -1.0679
 6312SOL    HW120069   2.191   5.278   2.792  0.4411 -0.3120 -1.6393
 6312SOL    HW220070   2.167   5.203   2.921 -1.2215 -1.2078 -2.4322
 6313SOL     OW20071   1.912   7.329   6.379 -0.4276 -0.9285 -0.2126
 6313SOL    HW120072   1.833   7.298   6.422 -1.6517  0.8158 -1.0961
 6313SOL    HW220073   1.955   7.250   6.347 -1.7213 -1.9205  0.4200
 6314SOL     OW20074   4.237   5.042   4.268 -0.4730 -0.0335 -0.2731
 6314SOL    HW120075   4.257   5.046   4.174  0.8839 -0.6911 -0.0249
 6314SOL    HW220076   4.150   5.002   4.271 -1.2962  1.5422 -1.3057
 6315SOL     OW20077   2.190   6.759   6.533  0.1150  0.6066 -0.4389
 6315SOL    HW120078   2.133   6.835   6.529 -0.6316  0.0483 -0.6087
 6315SOL    HW220079   2.199   6.730   6.442  0.6953  0.6987 -0.4186
 6316SOL     OW20080   8.382   2.079   8.217  0.2444  0.5928  0.1436
 6316SOL    HW120081   8.447   2.118   8.159 -1.8402  0.6660 -2.3113
 6316SOL    HW220082   8.410   1.988   8.226  0.1755  0.3319 -1.8055
 6317SOL     OW20083   7.809   4.069   2.138  0.5141  0.1018 -0.2181
 6317SOL    HW120084   7.894   4.029   2.119  1.4994  1.3379  1.2888
 6317SOL    HW220085   7.830   4.160   2.160 -1.0677  0.1537  1.2722
 6318SOL     OW20086   8.107   3.695   7.345 -0.2940  0.2193 -0.0843
 6318SOL    HW120087   8.184   3.688   7.290 -1.1360  1.7701 -1.5711
 6318SOL    HW220088   8.106   3.787   7.373 -1.0820 -0.0129  0.7173
 6319SOL     OW20089   4.640   4.272   0.208  0.9280 -0.2432 -0.0194
 6319SOL    HW120090   4.733   4.284   0.186  0.8954 -0.1378 -0.1043
 6319SOL    HW220091   4.611   4.359   0.235  1.3275 -0.6592  1.8264
 6320SOL     OW20092   4.515   6.127   0.927  0.1214 -0.2883  0.0909
 6320SOL    HW120093   4.440   6.091   0.976  2.0270 -3.5078  0.9472
 6320SOL    HW220094   4.524   6.217   0.959 -3.3929  0.3199 -0.2000
 6321SOL     OW20095   6.244   0.715   8.478  0.6276  0.0897 -0.3819
 6321SOL    HW120096   6.279   0.645   8.534 -0.5477 -0.4772 -0.3267
 6321SOL    HW220097   6.301   0.790   8.495  1.1554 -0.4894  0.5017
 6322SOL     OW20098   3.394   5.677   6.051  0.3537 -0.4546 -0.8255
 6322SOL    HW120099   3.376   5.583   6.047  0.5822 -0.5855  0.5422
 6322SOL    HW220100   3.361   5.712   5.969 -0.5775 -1.6005 -0.9601
 6323SOL     OW20101   4.826   4.356   8.443  0.1035 -0.1489  0.0522
 6323SOL    HW120102   4.742   4.350   8.399 -1.1518 -4.4742  2.4311
 6323SOL    HW220103   4.886   4.307   8.386  0.7640  1.6925 -0.9211
 6324SOL     OW20104   7.593   4.599   0.719 -0.3290  0.2086  0.2870
 6324SOL    HW120105   7.630   4.586   0.806 -0.6842 -1.3835  0.2366
 6324SOL    HW220106   7.668   4.595   0.660 -0.0296  1.7511  0.5353
 6325SOL     OW20107   7.184   3.425   1.823  0.4701  0.4481  0.4882
 6325SOL    HW120108   7.109   3.406   1.767  0.3845  0.7430  0.5034
 6325SOL    HW220109   7.248   3.467   1.765  0.2494  1.0562  0.6864
 6326SOL     OW20110   3.994   3.036   2.528  0.1235  0.3750 -0.0150
 6326SOL    HW120111   4.030   3.062   2.444  1.4691 -0.1038  0.3886
 6326SOL    HW220112   3.901   3.019   2.511  0.4503 -0.0474 -1.4647
 6327SOL     OW20113   1.547   5.942   9.104 -0.3041 -0.7226  0.2900
 6327SOL    HW120114   1.540   6.023   9.154 -0.8844 -1.9985  2.4206
 6327SOL    HW220115   1.466   5.895   9.123  0.2226 -2.0108 -0.5108
 6328SOL     OW20116   4.923   4.109   8.798 -0.1165  0.7822  0.0548
 6328SOL    HW120117   4.832   4.085   8.817  0.3188 -0.6880  0.4152
 6328SOL    HW220118   4.973   4.032   8.825  1.1856  1.3706 -0.6525
 6329SOL     OW20119   5.220   0.714   8.797  0.3453 -0.0850  0.5899
 6329SOL    HW120120   5.191   0.624   8.810  0.7580 -0.0645  1.8157
 6329SOL    HW220121   5.309   0.706   8.762  0.2662 -0.1553  0.4065
 6330SOL     OW20122   2.968   0.690   0.265 -0.2748  0.3026 -0.1843
 6330SOL    HW120123   3.015   0.644   0.334  0.3324  2.6218  1.0456
 6330SOL    HW220124   3.036   0.721   0.205 -0.6094  0.2259 -0.6126
 6331SOL     OW20125   0.817   3.940   8.210 -0.1117  0.4232  0.0866
 6331SOL    HW120126   0.779   3.931   8.297  0.2483  0.1835  0.2202
 6331SOL    HW220127   0.792   3.859   8.164  2.4007 -0.9714  1.0147
 6332SOL     OW20128   8.119   1.163   7.155 -0.9807  0.0390  0.1216
 6332SOL    HW120129   8.208   1.134   7.133 -0.8605  1.6218 -1.8350
 6332SOL    HW220130   8.128   1.205   7.241  0.5764  1.5775 -0.7051
 6333SOL     OW20131   7.491   5.090   3.681  0.0545  0.2472  0.3353
 6333SOL    HW120132   7.544   5.169   3.675  1.3541 -0.6691 -1.5366
 6333SOL    HW220133   7.523   5.045   3.759  1.9733 -0.1795 -0.6337
 6334SOL     OW20134   4.502   4.825   0.918 -0.4328 -0.5485 -0.4121
 6334SOL    HW120135   4.418   4.785   0.944  0.6744 -1.2382  2.3989
 6334SOL    HW220136   4.483   4.919   0.913 -1.8725 -0.8641 -2.1606
 6335SOL     OW20137   8.938   8.438   1.662  0.4697 -0.5464  0.2672
 6335SOL    HW120138   9.002   8.482   1.718 -0.3906  3.3025 -1.4115
 6335SOL    HW220139   8.989   8.374   1.612  2.1898 -0.3801  1.6939
 6336SOL     OW20140   5.844   3.165   0.630  0.1092  0.1408 -0.3946
 6336SOL    HW120141   5.827   3.091   0.689 -2.2749 -1.0213 -2.3191
 6336SOL    HW220142   5.810   3.241   0.677  1.1872 -0.2052  1.0016
 6337SOL     OW20143   2.360   3.883   0.135 -0.1584  0.1274  0.7098
 6337SOL    HW120144   2.298   3.945   0.097 -0.0071 -0.4651 -0.5663
 6337SOL    HW220145   2.353   3.805   0.080 -0.1815 -0.9160  2.1327
 6338SOL     OW20146   7.000   7.638   3.151  0.3284 -0.0488 -0.4336
 6338SOL    HW120147   7.059   7.565   3.169 -0.8090 -1.3693 -1.8024
 6338SOL    HW220148   7.058   7.714   3.138  1.7431 -1.3028 -1.8403
 6339SOL     OW20149   3.002   7.743   0.683  0.6605  0.3765  0.5346
 6339SOL    HW120150   2.910   7.749   0.659  0.9519 -0.9274 -1.1128
 6339SOL    HW220151   3.028   7.833   0.703 -0.6080  0.9896 -0.4390
 6340SOL     OW20152   5.188   4.458   3.119 -0.4081  0.3653  0.3276
 6340SOL    HW120153   5.130   4.397   3.074  0.0022 -0.5256  0.9792
 6340SOL    HW220154   5.131   4.532   3.142 -2.0259 -1.5685  3.2362
 6341SOL     OW20155   7.357   3.224   1.527 -0.0393  1.0256  0.3571
 6341SOL    HW120156   7.371   3.257   1.616 -1.0220 -1.4026  1.4960
 6341SOL    HW220157   7.420   3.273   1.474  1.7617  1.4037  2.6371
 6342SOL     OW20158   8.364   1.039   6.201 -0.5037 -0.2633 -0.2327
 6342SOL    HW120159   8.366   0.943   6.205 -2.0968 -0.3163  0.0307
 6342SOL    HW220160   8.416   1.067   6.277 -2.0795 -0.9731  1.1618
 6343SOL     OW20161   5.897   7.733   2.229 -0.5728 -0.2331 -0.1407
 6343SOL    HW120162   5.957   7.711   2.157 -0.7643 -1.5540  0.0809
 6343SOL    HW220163   5.890   7.828   2.226  1.8776  0.0171  0.0827
 6344SOL     OW20164   7.735   7.902   3.101  0.1441  0.0178 -0.0442
 6344SOL    HW120165   7.754   7.889   3.008 -1.8059 -2.2989 -0.2369
 6344SOL    HW220166   7.653   7.951   3.103 -0.6748 -1.2851  0.3291
 6345SOL     OW20167   6.987   2.860   1.312 -0.3978  0.0897  0.0284
 6345SOL    HW120168   6.917   2.926   1.315  0.1438  0.7854 -1.6641
 6345SOL    HW220169   7.011   2.848   1.404 -0.5793  2.2107  0.4159
 6346SOL     OW20170   3.219   2.636   8.067 -0.4562  0.6120  0.1900
 6346SOL    HW120171   3.240   2.551   8.028  0.1628  0.9630 -0.2540
 6346SOL    HW220172   3.203   2.616   8.159 -3.7761 -0.5174 -0.4828
 6347SOL     OW20173   1.165   4.768   2.854 -0.2639  0.0376 -0.4047
 6347SOL    HW120174   1.105   4.842   2.853  0.8642  0.9821 -1.5971
 6347SOL    HW220175   1.251   4.805   2.833  0.5192 -1.4503 -0.0048
 6348SOL     OW20176   0.940   6.814   0.533  0.3677  0.2181  0.6426
 6348SOL    HW120177   0.909   6.775   0.614 -0.5756 -0.5121 -0.0426
 6348SOL    HW220178   0.876   6.881   0.512  0.5248  0.3052  0.4327
 6349SOL     OW20179   3.508   0.413   2.954 -0.0223 -0.0788  0.1500
 6349SOL    HW120180   3.513   0.331   3.004 -0.7740  0.0643  0.4633
 6349SOL    HW220181   3.487   0.385   2.865 -2.9360 -0.1070  0.7676
 6350SOL     OW20182   9.107   8.025   6.113  1.0343  0.1551  0.1488
 6350SOL    HW120183   9.138   8.008   6.024  1.8747  0.2420  0.4107
 6350SOL    HW220184   9.041   7.957   6.129  1.1073 -0.0582 -0.4222
 6351SOL     OW20185   0.979   5.280   6.455  0.2783  0.1837 -0.1553
 6351SOL    HW120186   1.068   5.250   6.472  0.1560 -0.9181 -1.3814
 6351SOL    HW220187   0.936   5.207   6.411 -0.2049  1.8607 -2.6908
 6352SOL     OW20188   5.194   6.338   6.514 -0.1269  0.4653  0.3601
 6352SOL    HW120189   5.255   6.383   6.572  2.1230 -0.5003 -1.1515
 6352SOL    HW220190   5.126   6.403   6.496  1.9152  2.5782 -0.1342
 6353SOL     OW20191   5.337   1.034   4.306  0.4552  0.2203 -0.3186
 6353SOL    HW120192   5.411   1.011   4.249 -0.5739  0.4573 -1.8089
 6353SOL    HW220193   5.330   1.129   4.299 -0.0651  0.1874 -0.2984
 6354SOL     OW20194   7.277   5.368   7.696 -0.1106 -0.2746 -0.2425
 6354SOL    HW120195   7.325   5.341   7.775 -1.2830 -0.4551  0.4290
 6354SOL    HW220196   7.242   5.454   7.719 -1.7063 -0.9621  0.0138
 6355SOL     OW20197   6.877   5.649   1.022 -0.5598  1.0534 -0.2304
 6355SOL    HW120198   6.898   5.685   0.936  1.7831 -0.5128 -0.4109
 6355SOL    HW220199   6.782   5.655   1.028 -0.7879  1.4089 -2.8384
 6356SOL     OW20200   7.265   2.930   2.999  0.1784  0.1812  0.0133
 6356SOL    HW120201   7.334   2.868   2.975  0.8844  1.6336 -2.0978
 6356SOL    HW220202   7.184   2.881   2.991  0.8504 -1.1364  0.9915
 6357SOL     OW20203   6.863   6.468   9.061  0.1584  0.3357  0.1707
 6357SOL    HW120204   6.912   6.387   9.073  1.1882  1.1160  1.4916
 6357SOL    HW220205   6.799   6.469   9.133 -1.1522 -0.1767 -0.9366
 6358SOL     OW20206   1.868   7.670   2.670  0.3225 -0.2934  0.0052
 6358SOL    HW120207   1.950   7.712   2.696  0.6155 -0.9692  0.2025
 6358SOL    HW220208   1.886   7.635   2.583  0.5532 -1.2209  0.4084
 6359SOL     OW20209   7.484   4.464   5.990  0.3373  0.2847 -0.7950
 6359SOL    HW120210   7.414   4.412   5.951  0.7178  0.2201 -1.3979
 6359SOL    HW220211   7.546   4.480   5.919  1.9638 -1.3725  0.1359
 6360SOL     OW20212   5.078   0.677   6.404  0.0143 -0.2118 -0.4952
 6360SOL    HW120213   4.994   0.634   6.420 -1.4306  1.9266 -1.7276
 6360SOL    HW220214   5.084   0.683   6.309  0.6692  1.2524 -0.3939
 6361SOL     OW20215   7.497   8.894   4.864 -0.9503  0.4635  0.4747
 6361SOL    HW120216   7.419   8.949   4.877 -2.3386 -1.6750  1.7888
 6361SOL    HW220217   7.518   8.862   4.951  1.5939  1.1451  0.1720
 6362SOL     OW20218   2.304   1.195   6.997 -0.5439 -0.3900 -0.4053
 6362SOL    HW120219   2.218   1.236   6.986 -0.3330  0.0411 -0.4732
 6362SOL    HW220220   2.291   1.131   7.067 -0.6628  0.4504  0.3768
 6363SOL     OW20221   6.420   8.213   5.577 -0.3070 -0.5145  0.1082
 6363SOL    HW120222   6.341   8.264   5.596 -0.9552 -1.1730 -0.7570
 6363SOL    HW220223   6.483   8.241   5.644 -1.3049 -0.0597  0.8853
 6364SOL     OW20224   4.443   7.525   0.940 -0.1418  0.3959 -0.3413
 6364SOL    HW120225   4.491   7.543   1.021 -0.4191  0.4201 -0.1803
 6364SOL    HW220226   4.391   7.604   0.926  1.2615  1.1679 -1.5301
 6365SOL     OW20227   6.800   2.447   6.390  0.3891  0.4842  0.2977
 6365SOL    HW120228   6.806   2.490   6.475 -1.4180 -0.0540  0.7600
 6365SOL    HW220229   6.876   2.390   6.386  0.8383  0.9962  1.2751
 6366SOL     OW20230   8.470   1.730   6.314 -0.0447 -0.2293 -0.2121
 6366SOL    HW120231   8.457   1.636   6.322 -0.5805 -0.0775  0.9351
 6366SOL    HW220232   8.457   1.749   6.221 -1.0419 -1.1307 -0.2708
 6367SOL     OW20233   3.015   4.128   2.463  0.1385  0.5359  0.1780
 6367SOL    HW120234   2.959   4.187   2.414  0.5836  1.5702  0.8753
 6367SOL    HW220235   2.969   4.044   2.461 -0.4047  0.8399 -0.9969
 6368SOL     OW20236   7.350   8.409   8.250  0.1632 -0.5329 -0.2937
 6368SOL    HW120237   7.431   8.364   8.227  0.7064  0.9872 -1.5132
 6368SOL    HW220238   7.297   8.406   8.171 -0.0895  0.3088 -0.1668
 6369SOL     OW20239   4.088   1.506   5.901  0.1025  0.1455 -0.1634
 6369SOL    HW120240   4.105   1.578   5.840  0.6242  0.2301  0.0802
 6369SOL    HW220241   4.158   1.511   5.965 -1.0523  0.7478  1.1137
 6370SOL     OW20242   4.786   2.212   3.962 -0.2492  0.0073  0.2580
 6370SOL    HW120243   4.777   2.261   3.880  2.4611 -0.4725 -0.4028
 6370SOL    HW220244   4.698   2.178   3.978 -1.4973  2.3927 -0.9413
 6371SOL     OW20245   1.440   0.325   7.652  0.1277  0.2948  0.0554
 6371SOL    HW120246   1.500   0.379   7.704 -2.6791  2.0033  1.8350
 6371SOL    HW220247   1.393   0.273   7.718 -0.9784 -0.2788 -1.1505
 6372SOL     OW20248   6.812   0.900   4.783 -0.2495  0.2626  0.2411
 6372SOL    HW120249   6.906   0.890   4.765 -0.6332  0.5957 -2.2584
 6372SOL    HW220250   6.809   0.942   4.870  1.8712 -0.2647  0.6314
 6373SOL     OW20251   1.054   1.160   1.290  0.6514  0.0292 -0.2057
 6373SOL    HW120252   1.123   1.094   1.281  1.3670  0.7405 -0.0727
 6373SOL    HW220253   1.092   1.228   1.345 -0.2888  0.2743  0.1622
 6374SOL     OW20254   5.025   5.437   3.587  0.0250 -0.4463 -0.0980
 6374SOL    HW120255   4.967   5.361   3.585  1.2456 -1.5637  2.3156
 6374SOL    HW220256   5.110   5.402   3.614  0.5142  1.8152  1.6749
 6375SOL     OW20257   5.546   9.019   5.916  0.5987 -0.8268  0.1767
 6375SOL    HW120258   5.541   9.109   5.949 -0.7528 -0.0078 -2.0585
 6375SOL    HW220259   5.617   8.980   5.967 -0.1632  0.8042  2.7401
 6376SOL     OW20260   5.060   8.002   8.792  0.2454  0.0401  0.2641
 6376SOL    HW120261   5.051   7.972   8.702  0.1503 -0.7727  0.5365
 6376SOL    HW220262   4.974   8.034   8.816  0.5112  1.1750 -0.2473
 6377SOL     OW20263   7.784   5.571   0.739 -0.0259 -0.3396 -0.2847
 6377SOL    HW120264   7.692   5.592   0.752  0.2598  0.7620  0.1240
 6377SOL    HW220265   7.831   5.650   0.768  1.0726 -1.0834  0.0482
 6378SOL     OW20266   8.200   7.592   0.467 -0.9122  0.1941  0.4987
 6378SOL    HW120267   8.280   7.597   0.415 -0.6151 -0.0729  0.9301
 6378SOL    HW220268   8.137   7.547   0.410 -0.5284 -0.2779  0.4451
 6379SOL     OW20269   4.426   3.065   0.332  0.6324  0.0067 -0.1321
 6379SOL    HW120270   4.403   3.148   0.289 -1.3528 -0.9645 -1.1119
 6379SOL    HW220271   4.395   3.075   0.422 -0.5715 -0.0179 -0.5281
 6380SOL     OW20272   4.711   8.570   1.360 -0.2293 -0.4130 -0.1269
 6380SOL    HW120273   4.711   8.524   1.276  4.2381 -2.2977  0.6222
 6380SOL    HW220274   4.727   8.661   1.337 -0.0077 -0.7404 -1.3553
 6381SOL     OW20275   5.695   3.581   8.022  0.2467 -0.3730  0.4227
 6381SOL    HW120276   5.765   3.565   8.086 -0.2291 -0.3542  0.9534
 6381SOL    HW220277   5.728   3.654   7.969  0.5770 -0.2718  0.7578
 6382SOL     OW20278   6.728   1.125   6.021 -0.0247  0.4937 -0.1478
 6382SOL    HW120279   6.724   1.198   6.083  0.1591  0.2368  0.1685
 6382SOL    HW220280   6.709   1.048   6.074 -1.4460  0.4385 -0.7152
 6383SOL     OW20281   1.383   1.804   4.166 -0.1590 -0.7837  0.3243
 6383SOL    HW120282   1.320   1.802   4.237  1.3981 -0.0561  1.7943
 6383SOL    HW220283   1.434   1.884   4.181 -1.2490  0.7541 -2.9858
 6384SOL     OW20284   4.912   1.343   4.828 -0.0257  0.4951 -0.1495
 6384SOL    HW120285   4.976   1.272   4.839 -0.1937  0.4641  0.6955
 6384SOL    HW220286   4.933   1.405   4.898 -0.1901  1.0529 -0.5868
 6385SOL     OW20287   7.813   5.794   0.478  0.3374 -0.5080 -0.3828
 6385SOL    HW120288   7.885   5.746   0.520  0.2997 -0.0809  0.1993
 6385SOL    HW220289   7.747   5.728   0.461  0.4524 -0.7394  0.0315
 6386SOL     OW20290   8.954   5.891   5.924  0.6143 -0.2211 -0.2157
 6386SOL    HW120291   8.871   5.877   5.878 -0.1582 -0.1882  1.0934
 6386SOL    HW220292   8.973   5.807   5.965  0.4284  0.1601  0.6973
 6387SOL     OW20293   0.470   3.911   7.190  0.5867 -0.0584 -0.0204
 6387SOL    HW120294   0.473   3.967   7.268 -0.5511 -1.3301  0.9683
 6387SOL    HW220295   0.540   3.946   7.134  0.1292  2.1543  0.6723
 6388SOL     OW20296   0.410   1.028   1.103  0.3325  0.7056  0.3245
 6388SOL    HW120297   0.365   0.988   1.177 -0.1874  0.5036 -0.0965
 6388SOL    HW220298   0.482   0.968   1.084 -1.8069 -1.4110 -1.8303
 6389SOL     OW20299   2.039   3.793   4.718  0.1865  0.2919  0.6148
 6389SOL    HW120300   2.107   3.860   4.709 -1.3940  2.0267  0.8106
 6389SOL    HW220301   1.957   3.841   4.704 -1.0847 -1.3919  1.8652
 6390SOL     OW20302   6.335   5.019   8.916 -1.0108 -0.4518  0.0478
 6390SOL    HW120303   6.274   5.090   8.938 -0.5291 -0.2581  0.8098
 6390SOL    HW220304   6.294   4.941   8.952 -1.1706 -0.4452 -0.1144
 6391SOL     OW20305   1.154   0.949   7.283 -0.2454 -0.1800  0.0347
 6391SOL    HW120306   1.127   0.997   7.204  0.8335  0.4589  0.0398
 6391SOL    HW220307   1.202   1.014   7.335  1.7557 -1.3833 -0.2175
 6392SOL     OW20308   6.103   8.868   7.004 -0.1353 -0.4927  0.5833
 6392SOL    HW120309   6.042   8.888   7.075 -1.9105 -1.2700 -0.6806
 6392SOL    HW220310   6.145   8.952   6.984  0.8465 -0.3502  2.8740
 6393SOL     OW20311   6.576   4.564   6.507 -0.4509  0.0179 -0.4180
 6393SOL    HW120312   6.609   4.603   6.426 -1.6744 -0.7595 -1.3164
 6393SOL    HW220313   6.482   4.576   6.503 -0.5415 -0.0765  0.8906
 6394SOL     OW20314   0.724   6.613   6.065 -0.2509 -0.1567  0.2990
 6394SOL    HW120315   0.732   6.704   6.093  0.4047 -0.0337 -0.2631
 6394SOL    HW220316   0.802   6.570   6.101 -0.6738 -0.5472  0.7560
 6395SOL     OW20317   8.855   1.079   8.140  0.0410  0.1155 -0.4101
 6395SOL    HW120318   8.941   1.052   8.108  0.8627 -1.6104  2.8736
 6395SOL    HW220319   8.794   1.046   8.074  1.7316 -0.4762 -1.7578
 6396SOL     OW20320   8.402   4.176   8.347 -0.8214 -0.0559 -0.3743
 6396SOL    HW120321   8.485   4.150   8.385 -1.6415 -0.8577  0.9518
 6396SOL    HW220322   8.382   4.261   8.387 -0.2749  0.5438 -1.3248
 6397SOL     OW20323   7.307   7.879   6.978  0.0594 -0.1320  0.1783
 6397SOL    HW120324   7.286   7.794   6.939  3.1259 -0.7538 -0.3746
 6397SOL    HW220325   7.231   7.898   7.034 -1.0683 -2.8717 -0.2068
 6398SOL     OW20326   4.996   8.827   6.193  0.3730 -0.1014  0.2110
 6398SOL    HW120327   5.032   8.911   6.224  0.9753  0.0989 -0.9491
 6398SOL    HW220328   4.907   8.825   6.226  0.5225  0.7606  0.7017
 6399SOL     OW20329   8.741   8.283   5.954 -0.3208 -0.2273  0.0216
 6399SOL    HW120330   8.707   8.232   6.027  0.1642 -0.7151 -0.0892
 6399SOL    HW220331   8.773   8.364   5.994 -0.5545 -0.2581  0.2735
 6400SOL     OW20332   5.040   1.032   3.137 -0.1877 -0.2143  0.3242
 6400SOL    HW120333   4.949   1.028   3.108  0.1453  0.6073 -0.9080
 6400SOL    HW220334   5.088   0.977   3.075  0.2425 -0.1339  0.5841
 6401SOL     OW20335   3.009   8.762   0.211  0.3276 -0.0616 -0.0757
 6401SOL    HW120336   3.022   8.796   0.300  0.1739  0.5581 -0.2860
 6401SOL    HW220337   2.995   8.668   0.224  1.3986 -0.1618  0.4568
 6402SOL     OW20338   7.118   3.293   6.121 -0.2743  0.1887  0.9781
 6402SOL    HW120339   7.180   3.354   6.161 -0.8401 -0.0752  2.3063
 6402SOL    HW220340   7.061   3.349   6.068  0.3161  0.5918  0.7671
 6403SOL     OW20341   1.653   4.563   0.029  0.2211  0.1210  0.3565
 6403SOL    HW120342   1.702   4.508   0.090  2.2321  1.9552  0.5220
 6403SOL    HW220343   1.693   4.547  -0.056 -1.9994 -1.7683 -0.4172
 6404SOL     OW20344   7.483   6.379   5.554 -0.5709  0.0333  0.0159
 6404SOL    HW120345   7.405   6.338   5.516 -1.7804  1.4966  0.7977
 6404SOL    HW220346   7.456   6.470   5.571  1.2869  0.5540  0.3917
 6405SOL     OW20347   2.165   0.556   2.413 -0.0478 -0.0853  0.5745
 6405SOL    HW120348   2.144   0.479   2.360 -3.4784  0.7786  0.4274
 6405SOL    HW220349   2.100   0.556   2.483  0.8334  1.8554  1.4805
 6406SOL     OW20350   8.435   5.169   5.188  0.1911 -0.4525 -0.3201
 6406SOL    HW120351   8.416   5.260   5.166  1.1071  0.1095  1.0766
 6406SOL    HW220352   8.381   5.151   5.264 -0.9544 -1.5221 -1.3368
 6407SOL     OW20353   8.963   3.726   5.601 -0.1247  0.1253 -0.5858
 6407SOL    HW120354   9.029   3.723   5.532 -0.7912 -1.0476 -1.2162
 6407SOL    HW220355   8.882   3.697   5.557 -0.8233  0.5042  0.4155
 6408SOL     OW20356   6.216   7.357   7.168 -0.1389  0.1962 -0.6829
 6408SOL    HW120357   6.268   7.394   7.097  0.9227 -2.5652 -1.4689
 6408SOL    HW220358   6.280   7.333   7.235 -0.8406  0.2030  0.0164
 6409SOL     OW20359   5.627   5.541   0.133  0.2072  0.0205 -0.3708
 6409SOL    HW120360   5.702   5.572   0.084 -0.1938 -0.1313 -1.0940
 6409SOL    HW220361   5.622   5.447   0.113 -0.9521  0.2721 -1.4128
 6410SOL     OW20362   8.241   0.859   2.095 -0.3451 -0.1594 -0.2930
 6410SOL    HW120363   8.171   0.915   2.062 -2.2610 -1.3651  1.4720
 6410SOL    HW220364   8.257   0.798   2.023 -1.5974 -0.2697 -0.5153
 6411SOL     OW20365   9.047   2.866   1.207  0.8017 -0.4531 -0.3533
 6411SOL    HW120366   9.097   2.919   1.268  0.0904  0.0358 -0.1811
 6411SOL    HW220367   9.074   2.897   1.120  1.0669 -0.4535 -0.2719
 6412SOL     OW20368   1.768   5.667   0.651  0.1820 -0.1185 -0.5096
 6412SOL    HW120369   1.695   5.694   0.595  0.4944 -0.8311 -1.2888
 6412SOL    HW220370   1.731   5.601   0.710  0.2861 -0.8332 -1.2259
 6413SOL     OW20371   7.709   8.550   3.230  0.0479 -0.4133  0.2656
 6413SOL    HW120372   7.645   8.621   3.238  1.2251  0.6294  0.7101
 6413SOL    HW220373   7.793   8.594   3.218  0.6342 -1.7593 -0.8766
 6414SOL     OW20374   1.090   0.315   2.259 -0.6971  0.0827 -0.1538
 6414SOL    HW120375   1.044   0.267   2.191  0.2273 -0.7382 -0.2143
 6414SOL    HW220376   1.113   0.399   2.219 -0.1949 -0.3798 -0.8391
 6415SOL     OW20377   3.528   8.804   5.081 -0.2524 -0.5575 -0.2616
 6415SOL    HW120378   3.541   8.828   5.172 -1.3511 -1.0965  0.0504
 6415SOL    HW220379   3.458   8.861   5.050 -0.1723 -0.6615 -0.6477
 6416SOL     OW20380   4.080   8.636   5.087  0.2827  1.0027  0.5530
 6416SOL    HW120381   4.043   8.649   5.174 -0.3026  1.4400  0.2473
 6416SOL    HW220382   4.166   8.598   5.103  0.0544  0.7813  1.3104
 6417SOL     OW20383   2.862   3.241   7.881 -0.6272  0.4299  0.3966
 6417SOL    HW120384   2.838   3.179   7.811  3.1967  0.4621 -1.1985
 6417SOL    HW220385   2.876   3.185   7.957  0.9085 -0.5255 -0.5187
 6418SOL     OW20386   0.020   7.814   7.980 -0.9221 -0.6127 -0.1366
 6418SOL    HW120387   0.004   7.720   7.964  0.9563 -0.9447 -0.2312
 6418SOL    HW220388   0.081   7.840   7.911 -1.0254  0.5715  0.1987
 6419SOL     OW20389   0.131   3.590   4.561 -0.0816  0.2323  0.0373
 6419SOL    HW120390   0.172   3.543   4.634  0.1534 -1.0585 -0.8842
 6419SOL    HW220391   0.041   3.606   4.590  0.1163  0.0838  0.7585
 6420SOL     OW20392   0.858   2.438   1.258 -0.1044 -0.1133  0.0413
 6420SOL    HW120393   0.921   2.405   1.193 -0.3998  0.5769 -0.6128
 6420SOL    HW220394   0.907   2.504   1.307 -0.7434  1.6345 -1.5588
 6421SOL     OW20395   8.724   8.474   7.755 -0.1122  0.5516 -0.3534
 6421SOL    HW120396   8.711   8.569   7.761 -1.4232  0.4275 -0.9899
 6421SOL    HW220397   8.648   8.436   7.799  1.6675 -0.2618  2.3180
 6422SOL     OW20398   6.902   6.475   0.788  0.0234  0.1019 -0.8266
 6422SOL    HW120399   6.949   6.556   0.805 -1.7671  0.7383  1.7215
 6422SOL    HW220400   6.856   6.490   0.705 -0.4440  1.8129 -0.2919
 6423SOL     OW20401   8.824   8.020   3.000  0.0309 -0.2005 -0.1921
 6423SOL    HW120402   8.831   8.112   3.023 -1.6771 -0.0363 -0.2090
 6423SOL    HW220403   8.730   8.005   2.986  0.1955 -2.0635  0.3596
 6424SOL     OW20404   2.095   4.010   0.491  0.4447 -0.3134  0.4154
 6424SOL    HW120405   2.049   4.084   0.452  0.4389 -0.1992  0.6415
 6424SOL    HW220406   2.119   4.039   0.579 -0.7586 -1.0475  1.0106
 6425SOL     OW20407   0.201   2.515   0.558 -0.3342  0.3888  0.1296
 6425SOL    HW120408   0.257   2.504   0.635 -0.1944  1.6946  0.2259
 6425SOL    HW220409   0.191   2.609   0.548 -1.1948  0.2144 -0.8551
 6426SOL     OW20410   3.633   3.705   1.600  0.2546  0.1140  0.1688
 6426SOL    HW120411   3.712   3.754   1.622  0.9118 -1.1499  0.7911
 6426SOL    HW220412   3.656   3.659   1.519 -0.7048  1.5531 -0.9731
 6427SOL     OW20413   9.116   1.618   6.548  0.6035  0.2364  0.5668
 6427SOL    HW120414   9.202   1.643   6.580  2.3399 -0.9550 -2.7587
 6427SOL    HW220415   9.106   1.526   6.576 -0.4268  0.8422  2.3745
 6428SOL     OW20416   8.055   4.870   8.268  0.0812 -0.1975  0.3422
 6428SOL    HW120417   8.011   4.875   8.353  1.1261  0.8957  0.8417
 6428SOL    HW220418   8.106   4.789   8.273  0.8959  0.3363  1.1661
 6429SOL     OW20419   5.164   3.127   1.222  0.6887 -0.0846  0.5946
 6429SOL    HW120420   5.176   3.077   1.302  3.9334 -2.8563 -1.3498
 6429SOL    HW220421   5.214   3.207   1.236 -0.1666  0.2705  1.8383
 6430SOL     OW20422   6.449   0.500   0.464 -0.0488  0.3104 -0.3130
 6430SOL    HW120423   6.386   0.455   0.521  0.2682  1.1099  0.7133
 6430SOL    HW220424   6.436   0.461   0.378  0.2355 -1.7660  0.5167
 6431SOL     OW20425   6.405   4.930   7.043 -0.0661  0.1884  0.1059
 6431SOL    HW120426   6.490   4.910   7.083 -0.5715 -1.7948  0.3175
 6431SOL    HW220427   6.347   4.947   7.117 -0.1750  0.1369  0.0326
 6432SOL     OW20428   5.282   4.210   3.850 -0.3027  0.1326  0.1015
 6432SOL    HW120429   5.217   4.140   3.856 -0.9416  0.6737 -0.3435
 6432SOL    HW220430   5.280   4.252   3.936 -0.0592 -0.2571  0.3048
 6433SOL     OW20431   2.690   0.988   8.131 -0.0134 -0.3416 -0.0863
 6433SOL    HW120432   2.767   0.950   8.088 -1.3417 -1.6945 -1.3836
 6433SOL    HW220433   2.673   1.069   8.082  1.8002  1.1882  1.6004
 6434SOL     OW20434   3.720   3.540   0.107  0.5295  0.0125 -0.2275
 6434SOL    HW120435   3.779   3.605   0.068  0.4152 -0.4304 -1.1537
 6434SOL    HW220436   3.723   3.559   0.201 -0.2135  1.9447 -0.5462
 6435SOL     OW20437   0.965   7.765   6.813 -0.0473 -0.3292  0.1883
 6435SOL    HW120438   0.900   7.729   6.753 -0.7254  1.1715 -0.0168
 6435SOL    HW220439   1.020   7.821   6.758 -0.4369  0.7629  0.8802
 6436SOL     OW20440   4.191   8.763   4.448  0.0759 -0.2672  0.6237
 6436SOL    HW120441   4.259   8.749   4.514  1.6192 -2.3296 -1.2578
 6436SOL    HW220442   4.240   8.780   4.367 -1.7213  0.7779 -0.3015
 6437SOL     OW20443   9.037   2.379   7.432 -0.0492 -0.3404  0.2609
 6437SOL    HW120444   9.045   2.464   7.389 -1.5813  0.1252  0.8015
 6437SOL    HW220445   8.948   2.379   7.468  0.7440 -1.1740  2.3832
 6438SOL     OW20446   7.080   0.479   4.675 -0.4355  0.0274 -0.0538
 6438SOL    HW120447   7.070   0.397   4.626 -0.3594 -0.4678  0.7465
 6438SOL    HW220448   7.106   0.543   4.609 -0.4605 -0.5972 -0.6839
 6439SOL     OW20449   8.827   7.081   3.097 -0.1734  0.3067 -0.2537
 6439SOL    HW120450   8.778   7.044   3.171  0.4893  1.7119  0.9220
 6439SOL    HW220451   8.760   7.124   3.044 -0.8597 -1.8380 -1.2691
 6440SOL     OW20452   7.103   7.002   3.604 -0.0856  0.0127  0.2848
 6440SOL    HW120453   7.104   6.954   3.687  0.8326 -0.9372 -0.2461
 6440SOL    HW220454   7.163   6.953   3.548  1.5313  2.2193 -0.0346
 6441SOL     OW20455   6.498   5.517   3.314  0.5102 -0.2722  0.3164
 6441SOL    HW120456   6.519   5.606   3.341  1.0852 -0.2835 -0.0770
 6441SOL    HW220457   6.581   5.480   3.286 -0.0847 -0.0873 -1.9764
 6442SOL     OW20458   4.572   1.116   2.490  0.5452 -0.3688 -0.8074
 6442SOL    HW120459   4.500   1.141   2.431  0.1421 -0.5146 -0.3834
 6442SOL    HW220460   4.642   1.177   2.469 -0.3336  0.9943  0.0566
 6443SOL     OW20461   4.817   8.390   6.338 -0.4294 -0.2098  0.2486
 6443SOL    HW120462   4.854   8.445   6.269  1.0685 -0.4989  0.7739
 6443SOL    HW220463   4.738   8.435   6.366  0.3300  1.2555  0.1084
 6444SOL     OW20464   1.161   0.539   2.137 -0.8460 -0.3001 -0.5930
 6444SOL    HW120465   1.115   0.620   2.112 -0.4544  0.7817  1.8954
 6444SOL    HW220466   1.246   0.546   2.094 -1.0015  0.3766 -0.8137
 6445SOL     OW20467   0.390   7.273   4.858 -0.2606  0.0834 -0.0869
 6445SOL    HW120468   0.412   7.332   4.930  1.2924  1.4473 -1.5834
 6445SOL    HW220469   0.303   7.240   4.880 -1.7319  3.7727  0.3583
 6446SOL     OW20470   8.312   7.372   1.077 -0.3280 -0.3605  0.3022
 6446SOL    HW120471   8.386   7.336   1.028  0.6157  0.4002  1.1308
 6446SOL    HW220472   8.239   7.313   1.057  0.2492 -0.5837 -1.2765
 6447SOL     OW20473   4.058   3.622   6.397  0.5515  0.1041  0.0580
 6447SOL    HW120474   3.973   3.618   6.352  1.3590 -0.6867 -1.4934
 6447SOL    HW220475   4.094   3.534   6.387  1.8592  0.6215  0.0418
 6448SOL     OW20476   7.842   6.490   3.045 -0.4785  0.6241  0.1490
 6448SOL    HW120477   7.903   6.563   3.058 -2.3204  1.9864  1.6475
 6448SOL    HW220478   7.789   6.516   2.970  1.7544 -1.3535 -2.3063
 6449SOL     OW20479   6.050   4.773   1.322  0.5243  0.1272 -0.0951
 6449SOL    HW120480   6.001   4.770   1.404 -0.7414  0.5908 -0.8143
 6449SOL    HW220481   6.134   4.813   1.346 -0.1375  1.0131  0.8295
 6450SOL     OW20482   8.035   8.415   3.259  0.5795  0.5877  0.4396
 6450SOL    HW120483   8.023   8.506   3.230  1.0170  0.7282  0.6813
 6450SOL    HW220484   8.021   8.419   3.354 -1.3113  0.0498  0.2170
 6451SOL     OW20485   8.307   5.578   5.373  0.0674  0.4161 -0.6976
 6451SOL    HW120486   8.341   5.667   5.365  0.5250  0.4190  0.8158
 6451SOL    HW220487   8.307   5.543   5.284  5.2519 -0.0129 -0.8668
 6452SOL     OW20488   2.590   3.507   6.093  0.6089 -0.1366  0.1016
 6452SOL    HW120489   2.665   3.565   6.081 -0.6399  1.2938 -1.2338
 6452SOL    HW220490   2.604   3.437   6.028  0.2503  0.7518 -0.9722
 6453SOL     OW20491   8.031   7.567   1.700 -0.4660 -0.1372  0.0766
 6453SOL    HW120492   8.091   7.604   1.636 -1.5993 -0.7556 -1.4026
 6453SOL    HW220493   8.062   7.477   1.714 -0.1865  0.0158  0.4296
 6454SOL     OW20494   7.307   3.704   8.869 -0.6670  0.7849  0.5876
 6454SOL    HW120495   7.283   3.703   8.776  0.0444  1.2985  0.3924
 6454SOL    HW220496   7.388   3.654   8.874 -1.9291 -1.3147  1.3147
 6455SOL     OW20497   1.197   7.738   6.286 -0.3741  0.8808 -0.1794
 6455SOL    HW120498   1.218   7.648   6.264  0.7239  1.4878 -1.7071
 6455SOL    HW220499   1.228   7.749   6.376 -1.8843 -0.6539  0.5938
 6456SOL     OW20500   9.022   7.376   0.193  0.2292 -0.3401  0.4746
 6456SOL    HW120501   9.090   7.346   0.253 -0.7395  0.7868  2.2421
 6456SOL    HW220502   9.056   7.459   0.159 -0.4994  0.6404  1.9790
 6457SOL     OW20503   3.543   7.781   2.795 -0.2577  0.2504  0.0764
 6457SOL    HW120504   3.535   7.752   2.885  1.4518  1.2756  0.6216
 6457SOL    HW220505   3.621   7.735   2.762 -1.3997 -0.8517 -1.2239
 6458SOL     OW20506   2.598   2.164   3.115  0.0762  0.0261  0.1060
 6458SOL    HW120507   2.567   2.237   3.061  1.8901  1.0965  0.4484
 6458SOL    HW220508   2.601   2.089   3.055 -0.8697  0.4504 -0.4947
 6459SOL     OW20509   6.207   6.369   6.106 -0.2909  0.1737 -0.2480
 6459SOL    HW120510   6.227   6.342   6.017  2.1200 -0.3975  0.3999
 6459SOL    HW220511   6.144   6.305   6.138 -3.6159  2.0547 -2.4013
 6460SOL     OW20512   2.454   1.536   1.590  0.3877  0.1154  0.1385
 6460SOL    HW120513   2.376   1.483   1.576  0.8701 -0.5111 -0.2646
 6460SOL    HW220514   2.433   1.593   1.664 -0.3873 -0.1572  0.1296
 6461SOL     OW20515   5.093   5.343   2.884 -0.1208  0.1645 -0.0337
 6461SOL    HW120516   5.102   5.436   2.907 -0.6656  0.3172 -0.4260
 6461SOL    HW220517   5.132   5.296   2.958  1.2491  0.7227 -0.3711
 6462SOL     OW20518   0.635   0.321   0.915 -0.4939  0.1121 -0.1347
 6462SOL    HW120519   0.677   0.242   0.880  0.5541  0.5554  0.0793
 6462SOL    HW220520   0.684   0.393   0.875 -0.2844  0.6351  1.0426
 6463SOL     OW20521   5.817   4.663   5.852 -0.1920  0.2435 -0.1279
 6463SOL    HW120522   5.740   4.711   5.821  0.8930  2.9264  1.0904
 6463SOL    HW220523   5.866   4.726   5.903  2.2527 -1.7302  0.1433
 6464SOL     OW20524   0.573   7.487   1.893 -0.4846 -0.0238  0.3958
 6464SOL    HW120525   0.566   7.541   1.972 -1.7356 -0.0933  0.3562
 6464SOL    HW220526   0.645   7.526   1.843  0.6906 -0.3163  1.8113
 6465SOL     OW20527   8.248   0.100   0.710  0.1113  0.1915  0.6397
 6465SOL    HW120528   8.241   0.158   0.786 -1.9877 -0.2050  0.8152
 6465SOL    HW220529   8.272   0.015   0.746 -1.7144 -0.2063  1.0240
 6466SOL     OW20530   1.186   7.086   8.123  0.1762 -0.0348  0.9161
 6466SOL    HW120531   1.179   7.001   8.165  2.6770 -0.7921  0.0035
 6466SOL    HW220532   1.280   7.101   8.114 -0.1876  2.5021  0.3622
 6467SOL     OW20533   4.173   2.309   3.986  0.2715 -0.6479  0.2469
 6467SOL    HW120534   4.089   2.270   3.964 -0.3847 -0.3827  2.0882
 6467SOL    HW220535   4.186   2.378   3.921 -0.8302 -0.8482 -0.1956
 6468SOL     OW20536   1.129   7.418   6.876 -0.1926 -1.0142 -0.4695
 6468SOL    HW120537   1.085   7.491   6.919 -0.3864 -0.4993 -1.5033
 6468SOL    HW220538   1.111   7.343   6.931  0.7275 -0.1419  1.0922
 6469SOL     OW20539   0.541   0.139   4.464  0.2229 -0.2788 -0.7486
 6469SOL    HW120540   0.534   0.051   4.427  0.9816  0.8682 -3.9791
 6469SOL    HW220541   0.458   0.181   4.444 -0.2079 -0.2486  0.9423
 6470SOL     OW20542   4.743   8.786   4.845  0.0075 -0.4291 -0.1922
 6470SOL    HW120543   4.720   8.797   4.938 -0.5843  0.1110 -0.3961
 6470SOL    HW220544   4.821   8.841   4.833  0.9396 -1.5977  0.3009
 6471SOL     OW20545   1.102   4.623   2.345 -0.2334 -0.4561 -0.3399
 6471SOL    HW120546   1.191   4.595   2.326  0.3786  0.9850  0.2883
 6471SOL    HW220547   1.048   4.578   2.279  0.8974 -1.5779 -0.5357
 6472SOL     OW20548   5.114   5.472   2.286 -0.2665 -0.1330 -0.2275
 6472SOL    HW120549   5.192   5.420   2.309 -1.1868 -0.2893  3.0658
 6472SOL    HW220550   5.139   5.562   2.305 -0.6501 -0.1112  0.1907
 6473SOL     OW20551   0.528   6.835   0.102  0.2186 -0.0546  0.3723
 6473SOL    HW120552   0.538   6.836   0.007  1.3051  1.5564  0.4582
 6473SOL    HW220553   0.503   6.925   0.125 -1.1359 -0.6795  1.5361
 6474SOL     OW20554   1.685   1.926   0.864 -0.1476  0.7758  0.2564
 6474SOL    HW120555   1.765   1.928   0.916 -0.5214  0.9176  0.8248
 6474SOL    HW220556   1.687   1.841   0.820 -0.2930  0.2669  1.2166
 6475SOL     OW20557   9.071   5.469   3.920 -0.0362 -0.6347 -0.1464
 6475SOL    HW120558   9.103   5.552   3.884 -1.5768 -0.5977 -1.5552
 6475SOL    HW220559   9.079   5.407   3.848  1.8080 -1.9585  1.1106
 6476SOL     OW20560   7.936   5.338   5.916 -0.3037  0.6060  0.6781
 6476SOL    HW120561   8.024   5.322   5.882 -1.2664  1.0253 -2.3220
 6476SOL    HW220562   7.940   5.426   5.954  0.1549  1.5695 -1.4209
 6477SOL     OW20563   1.121   4.603   5.771  0.2078 -0.1766  0.1739
 6477SOL    HW120564   1.140   4.562   5.687  0.6841 -0.8102  0.5834
 6477SOL    HW220565   1.145   4.695   5.758  0.1851 -0.2497 -0.4101
 6478SOL     OW20566   1.856   3.506   5.084 -0.4251 -0.0661 -0.2113
 6478SOL    HW120567   1.810   3.451   5.147  0.4718 -1.5309 -0.7756
 6478SOL    HW220568   1.908   3.565   5.137 -1.8518  0.6530  0.4150
 6479SOL     OW20569   4.182   7.653   0.347  0.4724  0.3238  0.4919
 6479SOL    HW120570   4.270   7.689   0.330  0.9119 -1.0627 -0.3284
 6479SOL    HW220571   4.192   7.602   0.427  0.2079  0.8417  0.8554
 6480SOL     OW20572   5.907   6.768   8.466 -0.7906  0.2611 -0.2217
 6480SOL    HW120573   5.928   6.835   8.401 -2.3143  1.7476  0.7336
 6480SOL    HW220574   5.920   6.811   8.550 -1.0290 -0.9086  0.4349
 6481SOL     OW20575   5.787   5.716   7.208  0.0421 -0.1791 -0.0593
 6481SOL    HW120576   5.880   5.699   7.218 -0.1629 -1.5053 -0.1755
 6481SOL    HW220577   5.781   5.808   7.183  1.2148  0.3451  1.4386
 6482SOL     OW20578   6.830   3.588   3.161  0.3477  0.1528  0.4124
 6482SOL    HW120579   6.801   3.561   3.073  1.3346  1.3154 -0.2904
 6482SOL    HW220580   6.761   3.557   3.219 -0.4184 -0.4792 -0.7959
 6483SOL     OW20581   8.885   7.981   1.299 -0.2374  0.0757 -0.4034
 6483SOL    HW120582   8.845   8.056   1.341 -2.8735 -1.0284 -0.7136
 6483SOL    HW220583   8.817   7.914   1.299  1.6532 -1.9980 -1.0335
 6484SOL     OW20584   1.538   1.936   3.801  0.1713  0.0795 -0.2206
 6484SOL    HW120585   1.505   1.943   3.712 -0.7210  2.3308  0.2183
 6484SOL    HW220586   1.633   1.949   3.792  0.1445 -0.1542 -0.8838
 6485SOL     OW20587   0.219   2.814   4.423 -0.6648  0.1937 -0.0919
 6485SOL    HW120588   0.154   2.884   4.435 -0.1182  1.0117 -1.6560
 6485SOL    HW220589   0.182   2.757   4.356 -0.6737 -0.4967  0.4920
 6486SOL     OW20590   7.979   8.408   4.883  0.5947  0.6175  0.1981
 6486SOL    HW120591   7.973   8.321   4.843 -1.2712  0.1002  1.4485
 6486SOL    HW220592   7.899   8.415   4.936  0.6083  3.1920 -0.0245
 6487SOL     OW20593   5.106   5.639   0.562 -0.0181  0.3989  0.0364
 6487SOL    HW120594   5.106   5.705   0.631  0.7454  0.9525 -0.4851
 6487SOL    HW220595   5.199   5.623   0.544 -0.0725 -2.4027  1.6384
 6488SOL     OW20596   5.824   6.094   3.973 -0.2792 -0.4177  0.7606
 6488SOL    HW120597   5.805   6.065   4.063 -2.0339  0.3821  0.6782
 6488SOL    HW220598   5.871   6.020   3.934 -0.3023 -1.1458  2.0481
 6489SOL     OW20599   6.191   2.019   7.498  0.3491  0.6059 -0.0149
 6489SOL    HW120600   6.220   2.045   7.410 -0.5089 -1.2054 -0.8747
 6489SOL    HW220601   6.100   1.991   7.486  1.0073 -2.2485  0.8597
 6490SOL     OW20602   1.657   3.058   5.838 -0.1006  0.1366 -0.0250
 6490SOL    HW120603   1.683   3.134   5.889 -0.5239 -0.3847  0.9996
 6490SOL    HW220604   1.632   3.094   5.752  0.6501  1.0206  0.1095
 6491SOL     OW20605   7.158   6.981   2.986  0.0596  0.8141 -0.7324
 6491SOL    HW120606   7.126   7.071   2.993 -2.2655 -0.0429  2.1261
 6491SOL    HW220607   7.122   6.949   2.903 -2.1052  1.5422 -0.1401
 6492SOL     OW20608   7.335   6.487   1.898 -0.5429  0.2608 -0.4607
 6492SOL    HW120609   7.402   6.549   1.869  0.0290  0.7000  1.6003
 6492SOL    HW220610   7.272   6.541   1.945 -1.3041 -0.4183 -0.6841
 6493SOL     OW20611   4.811   0.978   6.212  0.6124  0.0219  0.1392
 6493SOL    HW120612   4.816   0.985   6.117  0.7761  0.6798  0.1905
 6493SOL    HW220613   4.740   1.038   6.237  1.9774  1.5263  0.5922
 6494SOL     OW20614   5.425   5.942   9.028 -0.5456 -0.0388  0.0183
 6494SOL    HW120615   5.329   5.948   9.025 -0.6208  0.8961  2.2754
 6494SOL    HW220616   5.455   6.011   8.969 -1.3068  1.0288  0.8414
 6495SOL     OW20617   5.627   6.065   7.288 -0.0152  0.2375  0.2743
 6495SOL    HW120618   5.709   6.018   7.272 -0.4744  0.1699 -2.2176
 6495SOL    HW220619   5.649   6.156   7.272 -0.1341  0.3834  0.9211
 6496SOL     OW20620   2.272   3.480   5.350 -0.0741 -0.0563 -0.1338
 6496SOL    HW120621   2.206   3.414   5.371 -1.4057  0.9143 -1.1138
 6496SOL    HW220622   2.230   3.563   5.369  1.1127  0.5803 -0.1732
 6497SOL     OW20623   0.465   8.901   5.807  0.3195  0.2898 -0.3512
 6497SOL    HW120624   0.479   8.856   5.724 -0.0000  1.2029 -0.9070
 6497SOL    HW220625   0.370   8.898   5.820  0.5054 -1.5992  0.9914
 6498SOL     OW20626   8.565   6.312   3.622  0.3857 -0.0361  0.1674
 6498SOL    HW120627   8.495   6.344   3.565  0.6705 -1.8930 -1.3330
 6498SOL    HW220628   8.523   6.300   3.707 -0.6402  0.6153 -0.2221
 6499SOL     OW20629   4.199   8.094   0.266  0.1602 -0.2757 -0.0621
 6499SOL    HW120630   4.200   8.116   0.359  0.7842 -0.4930 -0.0135
 6499SOL    HW220631   4.289   8.108   0.237 -0.1048  0.1196 -0.7133
 6500SOL     OW20632   6.425   4.854   3.072  0.4532 -0.3343  0.3005
 6500SOL    HW120633   6.388   4.880   2.988 -1.5150 -1.9128  0.5908
 6500SOL    HW220634   6.423   4.933   3.125  0.5240  0.3793 -0.7204
 6501SOL     OW20635   2.151   5.168   1.775 -0.1954 -0.2504 -0.2639
 6501SOL    HW120636   2.231   5.218   1.763 -0.2069 -0.5107 -1.6497
 6501SOL    HW220637   2.086   5.213   1.720 -0.1191 -1.9071 -1.8218
 6502SOL     OW20638   3.827   8.391   5.839 -0.5332 -0.1605  0.7648
 6502SOL    HW120639   3.817   8.296   5.850 -0.1876 -0.1745  0.9748
 6502SOL    HW220640   3.739   8.426   5.849 -0.7123 -0.4883  0.3817
 6503SOL     OW20641   8.211   0.155   1.864 -0.1121 -0.0762 -0.4305
 6503SOL    HW120642   8.193   0.212   1.939 -1.9496 -0.1967 -0.7353
 6503SOL    HW220643   8.183   0.068   1.893 -0.1665 -0.2529 -0.9979
 6504SOL     OW20644   0.097   3.683   3.319 -0.1042  0.4623  0.3105
 6504SOL    HW120645   0.092   3.668   3.225 -1.2130  0.5755  0.3301
 6504SOL    HW220646   0.186   3.659   3.343 -0.8199 -3.3133 -0.1451
 6505SOL     OW20647   1.785   5.854   4.653 -0.2051 -0.5480 -0.4383
 6505SOL    HW120648   1.862   5.819   4.697 -0.2078  0.2100  0.2018
 6505SOL    HW220649   1.724   5.780   4.648 -0.1358 -0.7064  0.7027
 6506SOL     OW20650   7.484   6.138   7.939 -0.2220  0.4123  0.4332
 6506SOL    HW120651   7.543   6.062   7.936 -0.1750  0.4641  0.0481
 6506SOL    HW220652   7.540   6.210   7.969  0.9356  1.3841 -3.5424
 6507SOL     OW20653   1.689   8.819   7.096  1.0653 -0.4517 -0.1570
 6507SOL    HW120654   1.722   8.730   7.088 -2.3640 -1.9414  0.7549
 6507SOL    HW220655   1.638   8.819   7.177  1.3141  2.4923  0.1058
 6508SOL     OW20656   8.025   0.971   4.405 -0.1354  0.2754  0.3683
 6508SOL    HW120657   8.042   0.913   4.479 -0.9737  0.4811  0.7421
 6508SOL    HW220658   7.973   0.918   4.345  0.2088  0.2302  0.1147
 6509SOL     OW20659   8.040   8.563   2.201  0.2325 -0.3467  0.2249
 6509SOL    HW120660   8.037   8.474   2.237 -2.3736 -0.3941  0.0780
 6509SOL    HW220661   8.054   8.550   2.107  1.7935 -0.4607  0.4423
 6510SOL     OW20662   4.557   0.955   4.359 -0.9148 -0.1355  0.3275
 6510SOL    HW120663   4.650   0.934   4.348 -0.6725  1.5587 -1.4302
 6510SOL    HW220664   4.548   0.969   4.453  0.5240 -0.6692  0.5833
 6511SOL     OW20665   2.752   3.093   2.385  0.1845 -0.1069 -0.0120
 6511SOL    HW120666   2.831   3.137   2.356 -0.2742  0.9735  0.3330
 6511SOL    HW220667   2.686   3.116   2.320 -0.0963 -0.1494  0.2543
 6512SOL     OW20668   5.649   1.249   8.306 -0.0835  0.6457 -0.0666
 6512SOL    HW120669   5.666   1.287   8.220  0.0714 -0.2461 -0.4468
 6512SOL    HW220670   5.659   1.322   8.367  0.7685  1.0912 -0.7135
 6513SOL     OW20671   3.120   6.979   1.953 -0.2744  0.9796 -0.7837
 6513SOL    HW120672   3.102   6.949   2.042 -1.4369  1.5214 -0.8236
 6513SOL    HW220673   3.199   6.932   1.928 -0.6578 -0.1773  0.0665
 6514SOL     OW20674   3.326   2.347   7.230 -0.4519 -0.0230 -0.2842
 6514SOL    HW120675   3.250   2.289   7.230 -0.3521 -0.1556  0.0486
 6514SOL    HW220676   3.288   2.435   7.223 -0.7719  0.0572  1.7989
 6515SOL     OW20677   0.780   4.457   4.024 -0.1993  0.5020  0.3722
 6515SOL    HW120678   0.721   4.510   3.970 -0.9031  0.8706  1.4852
 6515SOL    HW220679   0.740   4.371   4.026 -1.3661  1.0266  2.0501
 6516SOL     OW20680   4.900   0.897   1.120 -0.2746  0.2133  0.0162
 6516SOL    HW120681   4.910   0.992   1.132 -0.1744  0.3214 -0.8430
 6516SOL    HW220682   4.973   0.859   1.169  0.7120  0.6724 -1.0588
 6517SOL     OW20683   0.382   0.587   3.539  0.2592  0.3232 -0.3574
 6517SOL    HW120684   0.363   0.663   3.595 -3.0415 -0.4049 -0.3368
 6517SOL    HW220685   0.365   0.618   3.450  0.2017 -0.0355 -0.4721
 6518SOL     OW20686   3.379   6.742   5.648 -0.7586 -0.1309  0.0316
 6518SOL    HW120687   3.473   6.735   5.665 -0.1019  1.6711 -2.3742
 6518SOL    HW220688   3.365   6.692   5.568 -1.6100  0.6076 -0.3018
 6519SOL     OW20689   7.541   4.821   3.860 -0.1001  0.3240  0.4819
 6519SOL    HW120690   7.632   4.846   3.842 -0.4467  1.5488  0.2897
 6519SOL    HW220691   7.539   4.808   3.955  0.1640  0.8497  0.5689
 6520SOL     OW20692   8.345   2.228   1.754 -0.1324 -0.0827  0.0003
 6520SOL    HW120693   8.357   2.305   1.810  1.2994  0.0461 -0.4508
 6520SOL    HW220694   8.421   2.228   1.696  0.3125 -2.2511  0.4857
 6521SOL     OW20695   0.423   4.566   0.495 -0.0105  0.0020  0.0933
 6521SOL    HW120696   0.421   4.569   0.590  0.6481  0.1256  0.1082
 6521SOL    HW220697   0.362   4.496   0.471  1.0839 -1.1812  0.6777
 6522SOL     OW20698   6.162   4.203   0.384 -0.5887 -0.0831  0.3211
 6522SOL    HW120699   6.232   4.243   0.435  1.4663 -3.2622  0.3311
 6522SOL    HW220700   6.092   4.187   0.447  0.4634 -0.6828  1.3809
 6523SOL     OW20701   7.384   1.177   1.034 -0.0864  0.0677  0.3384
 6523SOL    HW120702   7.292   1.161   1.057 -0.9261  1.5739 -1.6590
 6523SOL    HW220703   7.422   1.217   1.112 -0.5888 -2.1775  1.8225
 6524SOL     OW20704   1.319   1.243   6.741  0.8784 -0.2097  0.3205
 6524SOL    HW120705   1.386   1.177   6.723  1.7870  1.1801 -1.7330
 6524SOL    HW220706   1.368   1.326   6.744 -0.3136  0.5000  2.2151
 6525SOL     OW20707   5.840   2.731   7.277 -0.0108 -0.2259  0.1344
 6525SOL    HW120708   5.757   2.689   7.299  0.7500 -1.0911  1.4875
 6525SOL    HW220709   5.826   2.824   7.295 -0.9613 -0.2386 -0.5245
 6526SOL     OW20710   6.781   2.207   8.474 -0.1402  0.4055 -0.1187
 6526SOL    HW120711   6.729   2.216   8.394 -2.4065 -0.8511  1.0930
 6526SOL    HW220712   6.845   2.139   8.453 -1.0486 -0.2950 -0.7644
 6527SOL     OW20713   1.005   4.087   4.849  0.3586  0.2397  0.1240
 6527SOL    HW120714   0.987   4.180   4.836  1.8844  0.6200  0.5375
 6527SOL    HW220715   0.934   4.042   4.803  0.1481  1.5989 -0.9379
 6528SOL     OW20716   0.181   2.676   6.484  0.1194  0.3416  0.2448
 6528SOL    HW120717   0.128   2.683   6.564 -0.7646 -0.2984 -0.2563
 6528SOL    HW220718   0.147   2.745   6.427 -1.0993 -0.8348 -0.5519
 6529SOL     OW20719   5.336   5.715   4.741 -0.2165 -0.5802 -0.2699
 6529SOL    HW120720   5.417   5.685   4.783  0.7757  1.2135 -0.7744
 6529SOL    HW220721   5.283   5.636   4.733  0.4795 -1.4160  2.2282
 6530SOL     OW20722   5.790   8.462   4.376 -0.0778 -0.3049  0.3237
 6530SOL    HW120723   5.699   8.450   4.401 -0.3758 -0.6527 -0.8360
 6530SOL    HW220724   5.792   8.545   4.327  0.0267 -0.7641 -0.4777
 6531SOL     OW20725   7.402   0.800   2.069 -0.7065 -0.6379 -0.5453
 6531SOL    HW120726   7.451   0.718   2.067  0.1605 -0.1442 -0.0351
 6531SOL    HW220727   7.338   0.788   2.140 -0.9386 -1.0653 -0.8243
 6532SOL     OW20728   4.469   1.334   4.807 -0.6692 -0.7998 -0.0360
 6532SOL    HW120729   4.495   1.401   4.743 -0.6065 -2.7730 -2.2175
 6532SOL    HW220730   4.549   1.314   4.855 -0.0842 -1.0492 -1.0870
 6533SOL     OW20731   6.639   5.620   6.662  0.1893 -0.8211 -0.1904
 6533SOL    HW120732   6.550   5.652   6.643  0.5703  0.3121 -0.1437
 6533SOL    HW220733   6.625   5.536   6.704 -0.8829 -0.4863  0.1696
 6534SOL     OW20734   1.432   3.119   5.384  0.0073 -0.1888  0.0061
 6534SOL    HW120735   1.419   3.196   5.327 -0.4543 -0.3988 -0.1717
 6534SOL    HW220736   1.486   3.152   5.456 -0.3360  0.3472  0.0226
 6535SOL     OW20737   4.362   4.885   5.219 -0.2546  0.2604  0.0341
 6535SOL    HW120738   4.282   4.935   5.204 -1.4654 -1.7169 -0.4383
 6535SOL    HW220739   4.357   4.859   5.311 -0.9272 -1.1096 -0.3742
 6536SOL     OW20740   0.220   7.037   7.121  0.3637 -0.6906  0.3146
 6536SOL    HW120741   0.304   6.991   7.123 -0.9058 -3.2154 -0.7674
 6536SOL    HW220742   0.193   7.033   7.030 -0.1721  1.6714  0.3049
 6537SOL     OW20743   6.997   0.305   3.839 -0.2860  0.5591  0.7194
 6537SOL    HW120744   7.065   0.338   3.898 -1.3836  1.3876  1.5617
 6537SOL    HW220745   6.957   0.383   3.802  1.9848  0.1488 -3.1939
 6538SOL     OW20746   2.817   1.802   8.295 -0.4086 -0.4476 -0.0907
 6538SOL    HW120747   2.777   1.758   8.220  0.6000 -0.8676 -0.4004
 6538SOL    HW220748   2.903   1.829   8.264 -0.8377  1.4152  0.2283
 6539SOL     OW20749   4.283   3.503   4.670 -0.2062  0.1130  0.3678
 6539SOL    HW120750   4.305   3.411   4.682  0.9754  0.3076 -0.2163
 6539SOL    HW220751   4.353   3.538   4.615 -0.8894  1.2544  0.1891
 6540SOL     OW20752   8.499   6.078   3.329  0.1041 -0.1779  0.1540
 6540SOL    HW120753   8.523   6.007   3.270  1.5026  1.0915 -0.8703
 6540SOL    HW220754   8.548   6.154   3.297 -0.8678  1.1112  1.5781
 6541SOL     OW20755   5.403   1.299   3.032  0.1698 -0.3388  0.1303
 6541SOL    HW120756   5.341   1.264   2.968 -2.0114  0.7327  1.5129
 6541SOL    HW220757   5.446   1.371   2.987 -0.4034 -0.4038 -0.5342
 6542SOL     OW20758   5.078   1.611   0.893 -0.2656 -0.2768  0.2540
 6542SOL    HW120759   5.148   1.676   0.899 -0.4723 -0.0439  0.1129
 6542SOL    HW220760   5.113   1.535   0.940  0.3993 -0.4379 -0.4944
 6543SOL     OW20761   3.710   6.026   4.513 -0.5256 -0.6253  0.0746
 6543SOL    HW120762   3.758   6.065   4.587 -1.0063  1.6857 -0.7505
 6543SOL    HW220763   3.653   5.961   4.553  2.0057 -2.2652  1.2811
 6544SOL     OW20764   4.563   5.464   4.959  0.0852 -0.1016 -0.2381
 6544SOL    HW120765   4.646   5.510   4.970  0.2388 -0.6323  0.9448
 6544SOL    HW220766   4.503   5.531   4.926  0.7081  0.5531 -0.0604
 6545SOL     OW20767   3.086   9.017   0.046 -0.4646  0.1301  0.0594
 6545SOL    HW120768   3.117   8.946   0.102 -2.6980 -0.8355  0.1404
 6545SOL    HW220769   3.113   8.991  -0.043 -0.6626 -0.4720  0.1721
 6546SOL     OW20770   0.653   6.298   5.334  0.4095 -0.3057 -0.3666
 6546SOL    HW120771   0.616   6.257   5.256 -1.7484  0.5990  0.1073
 6546SOL    HW220772   0.614   6.250   5.408  0.9077  0.0810  0.1584
 6547SOL     OW20773   7.465   6.837   2.917 -0.6327  0.2752 -0.0518
 6547SOL    HW120774   7.527   6.825   2.845  0.5951 -1.1644  1.1767
 6547SOL    HW220775   7.442   6.930   2.914 -0.8246  0.1950 -2.4348
 6548SOL     OW20776   5.275   7.946   2.796  0.1293 -0.3400  0.3444
 6548SOL    HW120777   5.327   7.984   2.867 -1.6598 -0.2511  1.6973
 6548SOL    HW220778   5.303   7.993   2.718  1.2853  0.4487  1.1865
 6549SOL     OW20779   7.085   0.649   5.436 -0.5031  0.5042  0.0168
 6549SOL    HW120780   7.088   0.578   5.371  0.3532  1.1564 -0.6769
 6549SOL    HW220781   7.015   0.623   5.496 -0.5723 -0.6627 -0.5322
 6550SOL     OW20782   0.762   0.728   7.968  0.2013  0.0262 -0.5235
 6550SOL    HW120783   0.706   0.652   7.983 -1.0475  0.6679 -1.6381
 6550SOL    HW220784   0.735   0.791   8.036  0.5059 -0.1306 -0.2517
 6551SOL     OW20785   4.695   7.928   2.445  0.2339 -0.1552 -0.0416
 6551SOL    HW120786   4.732   8.010   2.412 -1.5353  1.4015  1.5727
 6551SOL    HW220787   4.732   7.919   2.533 -1.3536  0.2296  0.7087
 6552SOL     OW20788   7.539   8.599   4.629  1.0200  0.1343 -0.0062
 6552SOL    HW120789   7.614   8.657   4.639 -0.4087  1.7558  2.1089
 6552SOL    HW220790   7.467   8.657   4.603 -0.3471 -0.7013  1.7258
 6553SOL     OW20791   0.233   5.008   7.667  0.3363 -0.2225 -0.0558
 6553SOL    HW120792   0.276   5.018   7.751 -0.5284  1.7291  0.2124
 6553SOL    HW220793   0.301   5.028   7.602  0.2425  1.5082  0.3194
 6554SOL     OW20794   3.215   8.636   4.003 -0.6825  0.3861 -0.0626
 6554SOL    HW120795   3.155   8.583   3.950 -0.2259  1.2308 -1.4685
 6554SOL    HW220796   3.269   8.571   4.049 -1.4981 -0.3746 -0.1553
 6555SOL     OW20797   3.576   6.474   4.996 -0.1611  0.4019  0.4766
 6555SOL    HW120798   3.564   6.560   5.036  1.2684  0.2401  1.3084
 6555SOL    HW220799   3.517   6.417   5.045  0.8814  0.3944  1.7742
 6556SOL     OW20800   0.883   3.554   3.836  0.2186  0.5487 -0.4859
 6556SOL    HW120801   0.805   3.586   3.791  0.2328  0.8252 -0.3116
 6556SOL    HW220802   0.858   3.467   3.869 -0.4885  1.2211  0.8182
 6557SOL     OW20803   2.063   6.354   5.766  0.2737 -0.3679 -0.0462
 6557SOL    HW120804   2.014   6.401   5.697 -2.6954 -3.6284 -0.4229
 6557SOL    HW220805   2.067   6.417   5.838 -1.4443  1.2864 -1.2675
 6558SOL     OW20806   2.820   5.365   0.942  0.0776 -0.7712  0.0213
 6558SOL    HW120807   2.809   5.451   0.902  1.0153 -0.5301  0.2635
 6558SOL    HW220808   2.767   5.307   0.888 -0.4523 -0.0671 -0.2283
 6559SOL     OW20809   5.727   4.578   1.527  0.0260 -0.5046 -0.3934
 6559SOL    HW120810   5.813   4.553   1.561 -0.4563  0.4089  1.6096
 6559SOL    HW220811   5.741   4.588   1.433  1.6624 -2.1540 -0.3885
 6560SOL     OW20812   6.004   6.044   0.813  0.1370  0.7603  0.2214
 6560SOL    HW120813   6.022   6.121   0.867  0.2649  1.6636 -1.0618
 6560SOL    HW220814   5.914   6.056   0.782  0.0856  0.2864  0.1709
 6561SOL     OW20815   0.603   9.056   4.107 -0.3200  0.7521 -0.3729
 6561SOL    HW120816   0.642   9.031   4.024 -0.0692 -2.2885  0.5184
 6561SOL    HW220817   0.517   9.092   4.084 -0.9037 -1.4281 -1.9555
 6562SOL     OW20818   4.635   4.067   1.574 -0.1247 -0.1151  0.3133
 6562SOL    HW120819   4.680   3.982   1.578 -0.7225 -0.5146 -0.9764
 6562SOL    HW220820   4.679   4.121   1.640  1.8522 -0.6685 -0.5143
 6563SOL     OW20821   7.002   1.031   3.546  0.6709 -0.0067  0.5135
 6563SOL    HW120822   7.071   1.023   3.612  0.6089  0.6669  0.6684
 6563SOL    HW220823   6.938   1.091   3.585  0.9650  0.9452 -0.4259
 6564SOL     OW20824   8.126   7.344   7.260 -0.0184 -0.1371  0.0407
 6564SOL    HW120825   8.145   7.437   7.250 -2.6513  0.5485  0.7121
 6564SOL    HW220826   8.203   7.300   7.222 -0.0546  2.2567 -3.2842
 6565SOL     OW20827   3.151   4.401   3.942 -0.4261 -0.4543  0.0127
 6565SOL    HW120828   3.212   4.469   3.912 -1.6566 -0.4551 -2.7566
 6565SOL    HW220829   3.208   4.332   3.977  0.9500  0.9236  0.6347
 6566SOL     OW20830   1.223   2.583   9.105 -0.3990 -0.1024 -0.9531
 6566SOL    HW120831   1.295   2.525   9.130  0.0646  0.8633  0.0419
 6566SOL    HW220832   1.255   2.671   9.127 -2.3710  0.2479  0.7123
 6567SOL     OW20833   2.040   7.783   8.721  0.2349 -0.6298 -0.2461
 6567SOL    HW120834   1.978   7.718   8.753  0.6375 -0.7869  0.2195
 6567SOL    HW220835   2.093   7.737   8.656 -0.8651 -0.1977 -1.4903
 6568SOL     OW20836   4.548   5.602   2.217 -0.0972 -0.0500 -0.1065
 6568SOL    HW120837   4.464   5.632   2.251 -0.7878 -3.0112  1.1029
 6568SOL    HW220838   4.613   5.635   2.279 -0.5176  0.9867 -0.2110
 6569SOL     OW20839   8.508   3.732   1.992 -0.1748 -0.0910  0.4861
 6569SOL    HW120840   8.568   3.740   2.066  2.0809  2.2795 -1.4065
 6569SOL    HW220841   8.545   3.662   1.939  1.0166  1.3382 -0.6568
 6570SOL     OW20842   8.666   1.327   5.874  0.0681  0.4853 -1.0188
 6570SOL    HW120843   8.750   1.363   5.902 -0.1903 -1.0604  2.2741
 6570SOL    HW220844   8.604   1.400   5.884  0.1625  0.2958  2.0440
 6571SOL     OW20845   0.735   2.406   4.078 -0.1987  0.1227 -0.0544
 6571SOL    HW120846   0.755   2.487   4.125 -1.7725  1.3084 -1.2983
 6571SOL    HW220847   0.681   2.356   4.140  0.2621  0.2861  0.4910
 6572SOL     OW20848   4.183   2.320   4.457 -0.0149  0.9009  0.2168
 6572SOL    HW120849   4.093   2.296   4.437 -0.3916 -0.1067  2.7154
 6572SOL    HW220850   4.236   2.263   4.401 -0.9181  0.6626 -0.4145
 6573SOL     OW20851   0.506   6.328   6.609 -0.2880  0.0959  0.1252
 6573SOL    HW120852   0.492   6.405   6.664  0.6105  0.6191 -0.3450
 6573SOL    HW220853   0.433   6.327   6.549 -0.3032  0.5904  0.1324
 6574SOL     OW20854   0.396   1.082   0.483 -0.4412 -0.0675  0.3535
 6574SOL    HW120855   0.394   1.113   0.573  0.0478  0.6109  0.1310
 6574SOL    HW220856   0.489   1.072   0.462 -0.5649 -1.2638  0.2675
 6575SOL     OW20857   2.724   3.901   7.327  0.2326  0.5723  0.3769
 6575SOL    HW120858   2.811   3.870   7.353 -0.5887 -0.9036  1.4867
 6575SOL    HW220859   2.730   3.913   7.232  1.5464  0.1892  0.3929
 6576SOL     OW20860   7.450   6.355   1.475  0.3054  0.4900  1.2522
 6576SOL    HW120861   7.381   6.344   1.540 -1.5967  2.3063 -0.3067
 6576SOL    HW220862   7.404   6.354   1.391  2.1861  1.5719  0.1313
 6577SOL     OW20863   0.464   2.709   3.916  0.3631 -0.1304 -0.2840
 6577SOL    HW120864   0.520   2.709   3.838  1.7887  2.7900  0.6343
 6577SOL    HW220865   0.375   2.706   3.881  0.9683  1.0338 -2.0528
 6578SOL     OW20866   1.452   5.019   2.845  0.5413  0.4272  0.3934
 6578SOL    HW120867   1.498   5.091   2.801  0.3496  0.4518  0.2295
 6578SOL    HW220868   1.504   4.941   2.825 -0.3121  0.2075 -1.0777
 6579SOL     OW20869   2.949   0.467   6.677  0.2562  0.3291  0.1198
 6579SOL    HW120870   3.012   0.534   6.707  0.0315  1.4721 -1.7778
 6579SOL    HW220871   2.999   0.385   6.680  0.3510  0.3914  3.1078
 6580SOL     OW20872   8.555   8.298   8.453 -0.1853 -0.0406 -0.2002
 6580SOL    HW120873   8.522   8.273   8.367 -1.0815  0.5663 -0.0370
 6580SOL    HW220874   8.486   8.272   8.514  0.3677 -0.3115  0.3260
 6581SOL     OW20875   4.682   4.247   2.610 -0.1972  0.0746 -0.3252
 6581SOL    HW120876   4.608   4.210   2.657 -1.1291  2.3111  0.1226
 6581SOL    HW220877   4.653   4.250   2.519  0.4941 -1.6622 -0.6217
 6582SOL     OW20878   8.725   7.677   1.162 -0.1355 -0.2150 -0.4217
 6582SOL    HW120879   8.684   7.745   1.215  0.3022  0.1755 -0.5802
 6582SOL    HW220880   8.676   7.597   1.183  0.5651 -0.2538  1.2326
 6583SOL     OW20881   8.148   6.885   7.121  0.4144  0.1064  0.0053
 6583SOL    HW120882   8.199   6.825   7.176 -0.3827 -0.2018  0.4351
 6583SOL    HW220883   8.139   6.839   7.038  0.8422  0.1736 -0.0836
 6584SOL     OW20884   8.337   0.734   6.193  0.1005 -0.8910  0.6871
 6584SOL    HW120885   8.267   0.797   6.176  2.0253  1.3230  0.2930
 6584SOL    HW220886   8.358   0.698   6.106  2.2437  1.7641 -0.0461
 6585SOL     OW20887   3.110   1.290   2.927  0.0459  0.0412  0.0423
 6585SOL    HW120888   3.120   1.336   3.011 -3.3668  0.0416  0.6089
 6585SOL    HW220889   3.122   1.198   2.948  0.7750  0.1613  0.1801
 6586SOL     OW20890   5.752   0.793   3.214 -0.3994 -0.2467  0.7138
 6586SOL    HW120891   5.675   0.740   3.234 -1.8193  0.5632 -2.1326
 6586SOL    HW220892   5.720   0.862   3.156  2.3436  0.6523  0.0986
 6587SOL     OW20893   5.643   0.752   1.945  0.0513  0.2102 -0.1734
 6587SOL    HW120894   5.664   0.833   1.897 -0.1475 -1.1300 -2.6943
 6587SOL    HW220895   5.684   0.682   1.893 -2.3966 -1.5966  0.1630
 6588SOL     OW20896   4.585   8.327   8.286  0.2732  0.3259  0.3409
 6588SOL    HW120897   4.680   8.339   8.288  0.1250  1.5299  2.0927
 6588SOL    HW220898   4.550   8.414   8.267 -0.5099 -0.1297 -0.3872
 6589SOL     OW20899   1.507   2.139   4.002  0.2088 -0.1415 -0.1117
 6589SOL    HW120900   1.549   2.078   3.941  1.1646 -1.2241  1.5688
 6589SOL    HW220901   1.521   2.101   4.088 -1.9347  0.8638  0.7588
 6590SOL     OW20902   1.202   4.838   8.481  0.6303  0.0925  0.0773
 6590SOL    HW120903   1.294   4.828   8.456  0.2725 -1.2535 -0.8728
 6590SOL    HW220904   1.166   4.898   8.416  1.2082  2.1606  1.5666
 6591SOL     OW20905   6.273   9.057   8.980 -0.2429 -0.0926 -0.5279
 6591SOL    HW120906   6.205   9.004   8.939  0.0967 -0.1780 -0.9992
 6591SOL    HW220907   6.255   9.146   8.950 -1.4666  0.2723  1.1371
 6592SOL     OW20908   3.368   0.397   7.179 -0.6237 -0.5666  0.1129
 6592SOL    HW120909   3.380   0.304   7.160 -0.5637 -0.7256  0.8893
 6592SOL    HW220910   3.292   0.423   7.128  0.4359 -0.5846 -1.5631
 6593SOL     OW20911   0.608   6.076   3.941  0.2457  0.1701 -0.3916
 6593SOL    HW120912   0.670   6.145   3.967 -1.2735  1.5385 -0.2311
 6593SOL    HW220913   0.630   6.058   3.849  1.7021 -0.2977  0.0360
 6594SOL     OW20914   3.717   8.706   3.210 -0.3368 -0.1863  0.4396
 6594SOL    HW120915   3.646   8.766   3.192  0.0881  0.0107 -0.6153
 6594SOL    HW220916   3.719   8.699   3.306 -0.9700  0.7608  0.5299
 6595SOL     OW20917   3.942   6.940   8.552  0.0470  0.0542  0.0645
 6595SOL    HW120918   4.006   6.990   8.501  0.5181  1.7539  2.1590
 6595SOL    HW220919   3.986   6.925   8.636 -1.7621 -0.0448  1.0298
 6596SOL     OW20920   4.435   4.369   7.222  0.7221  0.0274 -0.2897
 6596SOL    HW120921   4.492   4.337   7.291 -0.4828  0.8338  1.1375
 6596SOL    HW220922   4.494   4.406   7.157  1.8792 -0.7046  0.3196
 6597SOL     OW20923   5.541   1.346   7.659 -0.2100 -0.1461 -0.1630
 6597SOL    HW120924   5.538   1.259   7.620  2.5653  0.1610 -1.2704
 6597SOL    HW220925   5.517   1.406   7.588  0.4789  0.1345 -0.1686
 6598SOL     OW20926   6.148   3.536   5.789 -0.6888 -0.1592  0.2380
 6598SOL    HW120927   6.053   3.525   5.798 -0.8295  0.9947  0.3264
 6598SOL    HW220928   6.185   3.460   5.833 -1.5494  0.8717  2.9848
 6599SOL     OW20929   0.965   2.632   1.451  0.1452 -0.5408 -0.0188
 6599SOL    HW120930   0.980   2.724   1.433  2.0823 -0.8343 -0.1277
 6599SOL    HW220931   0.928   2.630   1.540  2.5683  0.2321  1.0851
 6600SOL     OW20932   8.595   8.049   1.167 -0.7551 -0.3259 -0.1264
 6600SOL    HW120933   8.594   8.144   1.156 -1.5430 -0.3075  0.0418
 6600SOL    HW220934   8.595   8.035   1.262 -0.8605 -0.4899 -0.1493
 6601SOL     OW20935   6.338   2.220   8.682 -0.1356  0.4932 -0.0573
 6601SOL    HW120936   6.287   2.146   8.648 -0.3327 -0.5014  2.1836
 6601SOL    HW220937   6.428   2.201   8.656 -0.3277 -0.0116 -0.3684
 6602SOL     OW20938   7.792   0.084   5.730 -0.2791  0.2198 -0.0408
 6602SOL    HW120939   7.732   0.053   5.663 -0.6788 -0.9030  0.8056
 6602SOL    HW220940   7.745   0.155   5.774 -1.6338 -1.5839  1.5556
 6603SOL     OW20941   2.645   2.475   4.562 -0.0484 -0.0187 -0.0729
 6603SOL    HW120942   2.632   2.549   4.502 -0.2923  0.7247  0.8728
 6603SOL    HW220943   2.732   2.490   4.599  0.8595 -1.4390 -1.5269
 6604SOL     OW20944   0.062   6.614   8.122  0.3748  0.0076 -0.9973
 6604SOL    HW120945   0.103   6.701   8.129  0.7607 -0.1884 -0.8053
 6604SOL    HW220946   0.134   6.555   8.102 -0.0764 -0.0718 -2.5961
 6605SOL     OW20947   7.368   6.626   5.611  0.7326  0.1887  0.0814
 6605SOL    HW120948   7.272   6.635   5.613  0.4691 -2.0638  0.4006
 6605SOL    HW220949   7.398   6.673   5.688 -0.3441 -0.7897  1.1446
 6606SOL     OW20950   6.559   4.349   0.272 -0.0411 -0.7124  0.4174
 6606SOL    HW120951   6.526   4.437   0.290  1.2824  0.2135 -1.3556
 6606SOL    HW220952   6.616   4.328   0.346 -0.1251  0.0331  0.6969
 6607SOL     OW20953   2.103   3.464   7.920 -0.2444 -0.1310  0.4162
 6607SOL    HW120954   2.158   3.387   7.905  0.6459  0.5825 -0.0580
 6607SOL    HW220955   2.082   3.461   8.013 -1.3193 -1.6557  0.1529
 6608SOL     OW20956   5.312   2.927   5.564 -0.2544 -0.4567  0.0692
 6608SOL    HW120957   5.265   2.848   5.591  0.7812 -0.4603  1.9984
 6608SOL    HW220958   5.385   2.934   5.625  2.0502 -0.1848 -2.5289
 6609SOL     OW20959   5.367   8.083   1.167  0.1892  0.2415 -0.1557
 6609SOL    HW120960   5.370   8.173   1.200 -2.7499  0.3854 -0.0042
 6609SOL    HW220961   5.381   8.092   1.073  1.0254  0.7089 -0.0002
 6610SOL     OW20962   3.464   8.817   3.587  0.3306 -1.0119  0.1132
 6610SOL    HW120963   3.547   8.780   3.557  1.5187  3.0523 -2.3174
 6610SOL    HW220964   3.397   8.764   3.544  1.8732 -0.9901 -2.4975
 6611SOL     OW20965   3.032   1.390   5.892  0.6291  0.0445 -0.3081
 6611SOL    HW120966   2.960   1.419   5.837  0.8113  0.1857 -0.4734
 6611SOL    HW220967   2.990   1.351   5.968  0.3790  0.5843 -0.1626
 6612SOL     OW20968   5.229   7.050   3.661 -0.9746 -0.1892  0.3303
 6612SOL    HW120969   5.259   7.058   3.571 -3.8328 -0.6210 -0.7830
 6612SOL    HW220970   5.220   7.141   3.692  0.6243 -0.0518  0.4479
 6613SOL     OW20971   0.185   5.269   7.148  0.3515 -0.2064  0.7089
 6613SOL    HW120972   0.164   5.186   7.191 -2.0904 -1.2884 -2.2718
 6613SOL    HW220973   0.244   5.245   7.077  0.9909  0.9113  0.8402
 6614SOL     OW20974   1.823   6.155   6.054  0.1769 -0.0243  0.4684
 6614SOL    HW120975   1.851   6.119   5.970 -0.8405 -2.4216  1.0870
 6614SOL    HW220976   1.904   6.159   6.106  0.7449  1.1217 -0.4409
 6615SOL     OW20977   7.811   3.306   3.838 -0.4113  0.4486  0.6116
 6615SOL    HW120978   7.758   3.323   3.760 -0.4909 -0.6941  0.4063
 6615SOL    HW220979   7.873   3.379   3.841  0.8018 -0.4179 -1.5660
 6616SOL     OW20980   4.831   5.967   5.787 -0.0226 -0.4100  0.6121
 6616SOL    HW120981   4.810   6.055   5.755 -2.1913 -0.5667  1.4261
 6616SOL    HW220982   4.843   5.978   5.881  1.3672 -0.7470  0.4902
 6617SOL     OW20983   0.863   4.230   1.410  0.0202 -0.0602  0.2727
 6617SOL    HW120984   0.781   4.229   1.361  0.3466  1.0674 -0.3328
 6617SOL    HW220985   0.926   4.273   1.351  0.9662 -0.6004  0.8533
 6618SOL     OW20986   6.585   2.092   5.916  0.6692 -0.4408 -0.3166
 6618SOL    HW120987   6.558   2.143   5.992 -0.3734 -0.5310 -0.6054
 6618SOL    HW220988   6.547   2.138   5.841  1.2063 -0.6606 -0.7344
 6619SOL     OW20989   0.932   0.147   0.606  0.1538 -0.0422  0.0786
 6619SOL    HW120990   0.974   0.223   0.565 -1.8433  0.1746 -1.7070
 6619SOL    HW220991   1.002   0.108   0.659  2.0148  1.4529 -1.1063
 6620SOL     OW20992   3.161   8.950   3.895  0.1839  0.1968  0.2057
 6620SOL    HW120993   3.122   8.882   3.841  1.6254 -1.7454  1.4719
 6620SOL    HW220994   3.205   9.008   3.832 -0.0088 -0.7484 -0.8300
 6621SOL     OW20995   5.706   7.080   7.581 -0.4804 -0.6044 -0.4628
 6621SOL    HW120996   5.616   7.078   7.547 -0.0735 -2.8833 -1.6193
 6621SOL    HW220997   5.701   7.035   7.665 -0.6519  0.7165  0.2642
 6622SOL     OW20998   7.197   1.129   3.718  0.2030  0.4312 -0.3584
 6622SOL    HW120999   7.270   1.155   3.661  1.7333 -0.0420  1.3063
 6622SOL    HW221000   7.230   1.054   3.767 -0.8506  1.1393  1.5299
 6623SOL     OW21001   6.503   1.471   7.878 -0.1602  0.0310 -0.6615
 6623SOL    HW121002   6.485   1.534   7.808 -1.9129 -0.2408 -0.5009
 6623SOL    HW221003   6.509   1.525   7.957 -2.6922 -0.0272 -0.3609
 6624SOL     OW21004   1.345   0.462   0.467 -0.0053 -0.4778  0.1143
 6624SOL    HW121005   1.369   0.456   0.375  0.5144 -0.8317  0.2709
 6624SOL    HW221006   1.416   0.419   0.514 -0.4256 -0.5966  0.6588
 6625SOL     OW21007   7.159   8.537   3.870 -0.2085 -0.1184 -0.3846
 6625SOL    HW121008   7.139   8.487   3.950  0.4925  0.7580  0.3742
 6625SOL    HW221009   7.240   8.583   3.891  0.2489 -0.2369 -1.7956
 6626SOL     OW21010   4.980   8.574   7.927 -0.4245 -0.2822 -0.1529
 6626SOL    HW121011   5.039   8.517   7.977 -0.9587 -0.5174  0.2211
 6626SOL    HW221012   5.005   8.560   7.836 -0.8242 -1.4417 -0.0994
 6627SOL     OW21013   1.178   3.028   5.251  0.3064  0.0888  0.6039
 6627SOL    HW121014   1.237   3.036   5.326 -0.3779 -1.0936  1.3063
 6627SOL    HW221015   1.177   2.934   5.232 -0.1957  0.2756 -0.3587
 6628SOL     OW21016   5.883   3.604   3.542 -1.0095  0.0529  0.4521
 6628SOL    HW121017   5.961   3.581   3.592 -0.1138  0.3137 -0.7939
 6628SOL    HW221018   5.893   3.698   3.525 -2.5859  0.5499  1.9579
 6629SOL     OW21019   8.066   7.750   7.892  0.4251 -0.4398 -0.0598
 6629SOL    HW121020   8.078   7.700   7.811  0.1308 -1.1526  0.3226
 6629SOL    HW221021   7.983   7.718   7.927  0.5766 -0.1703  0.5520
 6630SOL     OW21022   4.228   1.930   5.773  0.2806  0.2601 -0.7143
 6630SOL    HW121023   4.296   1.867   5.797 -0.2135 -0.0691 -0.1258
 6630SOL    HW221024   4.265   1.979   5.700  0.8480 -0.4227 -0.8977
 6631SOL     OW21025   5.499   6.479   6.400  0.3554 -0.1315  0.3166
 6631SOL    HW121026   5.544   6.555   6.362  0.0045  1.0189  2.0789
 6631SOL    HW221027   5.418   6.472   6.349 -0.1141  1.3823  0.7859
 6632SOL     OW21028   4.808   0.376   0.601 -0.2762 -0.8757  0.2409
 6632SOL    HW121029   4.849   0.297   0.567  0.4147 -0.2555 -0.3890
 6632SOL    HW221030   4.835   0.446   0.541  0.7460  0.1966  1.8735
 6633SOL     OW21031   7.105   5.683   1.629 -0.1170  0.7693  0.3419
 6633SOL    HW121032   7.063   5.658   1.710  0.0176 -0.5877  0.0220
 6633SOL    HW221033   7.181   5.625   1.622  0.1065  1.1402 -0.5534
 6634SOL     OW21034   4.522   6.529   6.776  0.1386 -0.0765  0.6652
 6634SOL    HW121035   4.470   6.462   6.731  1.7748 -1.6848  1.0573
 6634SOL    HW221036   4.479   6.612   6.754 -2.1659 -1.2493  0.4359
 6635SOL     OW21037   4.816   5.998   8.876  0.2456 -0.2533  1.0582
 6635SOL    HW121038   4.723   5.977   8.870  0.1388  0.3768  0.3564
 6635SOL    HW221039   4.848   5.945   8.949  0.0114 -2.8910 -0.6483
 6636SOL     OW21040   3.560   6.556   7.727 -0.0869  0.1583  0.7787
 6636SOL    HW121041   3.491   6.616   7.754 -1.5246 -1.3543  0.6415
 6636SOL    HW221042   3.641   6.595   7.760 -1.1493  1.3209  2.1055
 6637SOL     OW21043   3.844   7.877   7.140 -0.3134  0.0182 -0.2023
 6637SOL    HW121044   3.827   7.836   7.055 -0.9929 -0.0208 -0.0549
 6637SOL    HW221045   3.847   7.804   7.202  3.0105 -0.2964 -0.5342
 6638SOL     OW21046   5.230   5.416   0.201 -0.0738 -0.1712 -0.1713
 6638SOL    HW121047   5.260   5.492   0.152  0.3158  1.9428  3.0876
 6638SOL    HW221048   5.283   5.344   0.167  1.5864  1.5479 -1.4320
 6639SOL     OW21049   8.901   8.520   8.676  0.2851  0.2191 -0.2027
 6639SOL    HW121050   8.828   8.469   8.641 -0.0522 -0.4103  1.3044
 6639SOL    HW221051   8.901   8.499   8.770  1.4217  1.4384  0.0957
 6640SOL     OW21052   8.538   5.906   4.076  0.4666 -0.1245 -0.4583
 6640SOL    HW121053   8.484   5.977   4.111 -0.9257 -1.4564  0.2482
 6640SOL    HW221054   8.564   5.936   3.989 -0.7272  0.9361 -0.4860
 6641SOL     OW21055   1.127   2.539   0.870 -0.3265  0.1699 -0.3724
 6641SOL    HW121056   1.208   2.516   0.825 -0.6107 -0.6270 -0.4942
 6641SOL    HW221057   1.072   2.577   0.802 -0.4288 -0.2227 -0.5112
 6642SOL     OW21058   4.096   7.048   5.052 -0.7312 -0.3990 -0.3252
 6642SOL    HW121059   4.082   7.072   5.143 -0.2020 -1.8819  0.1837
 6642SOL    HW221060   4.180   7.002   5.052  0.1308  1.0860 -1.8645
 6643SOL     OW21061   5.260   3.865   7.348  0.2645  0.0474  0.2825
 6643SOL    HW121062   5.238   3.927   7.278  1.2071 -0.1557 -0.2138
 6643SOL    HW221063   5.196   3.794   7.337  1.5268 -0.8818 -1.5916
 6644SOL     OW21064   5.609   4.020   4.006  0.0662 -0.8960 -0.1391
 6644SOL    HW121065   5.569   3.947   4.054  1.0986 -2.0127 -0.9160
 6644SOL    HW221066   5.568   4.016   3.919 -0.0362 -0.4025 -0.1129
 6645SOL     OW21067   7.980   0.939   0.079 -0.4170 -0.3588  0.7727
 6645SOL    HW121068   8.033   0.906   0.007 -0.6446  0.1407  0.3701
 6645SOL    HW221069   7.914   0.872   0.093 -1.9476  0.6131 -1.1802
 6646SOL     OW21070   7.877   2.049   1.293  0.1184  0.0580  0.5230
 6646SOL    HW121071   7.938   2.057   1.220  1.0013 -0.5109  1.1897
 6646SOL    HW221072   7.896   2.125   1.348  0.4877 -0.3158  0.9172
 6647SOL     OW21073   5.549   2.237   8.601 -0.3718  0.2461 -0.6054
 6647SOL    HW121074   5.544   2.207   8.511 -1.4230 -0.1272 -0.4355
 6647SOL    HW221075   5.628   2.195   8.636 -0.3594 -0.1890 -1.1456
 6648SOL     OW21076   6.552   0.918   5.258 -0.1261 -0.0320 -0.3928
 6648SOL    HW121077   6.518   1.003   5.230 -1.0499 -0.0384  0.6174
 6648SOL    HW221078   6.484   0.856   5.235 -1.9748  0.2199  3.5589
 6649SOL     OW21079   4.513   0.516   5.599 -0.4958  0.4368  0.3520
 6649SOL    HW121080   4.590   0.501   5.654 -0.1083  1.6061  0.1559
 6649SOL    HW221081   4.454   0.443   5.620  0.3286 -0.0410  1.0870
 6650SOL     OW21082   7.918   3.771   8.125 -0.1744 -0.3285  0.2675
 6650SOL    HW121083   7.918   3.772   8.030  2.2885  0.4494  0.1804
 6650SOL    HW221084   7.847   3.829   8.150  0.2217  0.8448 -1.1731
 6651SOL     OW21085   8.885   0.250   5.199 -0.3540 -0.2083 -0.1429
 6651SOL    HW121086   8.955   0.286   5.145 -0.5020 -0.1082 -0.2689
 6651SOL    HW221087   8.838   0.326   5.231 -0.6978 -0.2864 -0.4494
 6652SOL     OW21088   2.981   4.557   7.674  0.3521 -0.2622 -0.3090
 6652SOL    HW121089   2.916   4.597   7.732  1.4989 -0.2330  0.9976
 6652SOL    HW221090   2.942   4.564   7.586 -0.8565  0.8491  0.2790
 6653SOL     OW21091   6.111   4.037   7.834 -0.1105  0.2078  0.4494
 6653SOL    HW121092   6.188   4.025   7.891  0.4170  0.9481 -0.0924
 6653SOL    HW221093   6.140   4.099   7.767  0.3342 -2.9258 -2.5233
 6654SOL     OW21094   7.220   4.545   1.591 -0.1458 -0.2314 -0.0987
 6654SOL    HW121095   7.201   4.453   1.570 -0.4680 -0.8382  2.4041
 6654SOL    HW221096   7.208   4.592   1.509 -1.0792 -2.2692 -1.2130
 6655SOL     OW21097   0.974   3.239   8.707  0.4126  0.1018 -0.2420
 6655SOL    HW121098   0.925   3.223   8.626  0.9455  0.2619 -0.5931
 6655SOL    HW221099   0.915   3.206   8.776  0.4189 -1.0684 -0.7622
 6656SOL     OW21100   5.430   6.204   3.213 -0.0359 -0.1611  0.4082
 6656SOL    HW121101   5.509   6.150   3.223  0.8533  0.8549 -0.6986
 6656SOL    HW221102   5.458   6.291   3.240 -1.7479 -0.3793  3.2477
 6657SOL     OW21103   5.321   3.702   6.514  0.2920 -0.4378  0.1295
 6657SOL    HW121104   5.282   3.619   6.541  0.3376 -0.4172  0.2595
 6657SOL    HW221105   5.342   3.747   6.596  2.1276 -1.1421  0.0859
 6658SOL     OW21106   5.481   7.997   9.007  0.1611  0.3350  0.4797
 6658SOL    HW121107   5.562   8.018   8.961 -0.3878 -1.0954 -1.2614
 6658SOL    HW221108   5.416   8.056   8.972 -0.1697 -0.4879 -0.3358
 6659SOL     OW21109   1.271   1.330   0.965 -0.7285 -0.1145  0.4294
 6659SOL    HW121110   1.219   1.284   0.900  0.2087 -1.4489  0.5922
 6659SOL    HW221111   1.282   1.267   1.036  0.3474  0.4509  0.7906
 6660SOL     OW21112   7.983   3.081   6.889  0.5207 -0.0446 -0.4837
 6660SOL    HW121113   7.992   2.987   6.903 -0.5398  0.2350  2.9853
 6660SOL    HW221114   7.911   3.089   6.826 -0.3302 -1.5514  0.2421
 6661SOL     OW21115   5.142   7.386   7.232 -0.4006  0.2432 -0.0997
 6661SOL    HW121116   5.063   7.423   7.272  0.9527  2.4552  0.7309
 6661SOL    HW221117   5.214   7.429   7.278  1.2756  0.8012 -3.0203
 6662SOL     OW21118   3.164   3.759   1.239 -0.1850 -0.2698  0.0957
 6662SOL    HW121119   3.086   3.813   1.249  0.3801  0.6226 -0.2107
 6662SOL    HW221120   3.163   3.730   1.148 -0.4564 -0.7515  0.2440
 6663SOL     OW21121   1.950   1.827   1.936 -1.0129  0.2388  0.4854
 6663SOL    HW121122   2.013   1.873   1.882  0.2877 -0.5987  1.2336
 6663SOL    HW221123   1.881   1.800   1.876 -0.1735  0.3283 -0.5384
 6664SOL     OW21124   1.646   0.850   1.309  0.0262  0.2038  0.0418
 6664SOL    HW121125   1.674   0.866   1.219 -0.2707 -0.6849 -0.2269
 6664SOL    HW221126   1.591   0.771   1.303 -0.9256  0.7864  0.8374
 6665SOL     OW21127   6.780   2.514   3.736 -0.3784  0.1752  1.0834
 6665SOL    HW121128   6.695   2.483   3.767 -0.4003 -0.3157  0.5703
 6665SOL    HW221129   6.814   2.440   3.685  0.3838  0.3442  1.3440
 6666SOL     OW21130   7.321   5.218   6.888  0.1138  0.3874 -0.3895
 6666SOL    HW121131   7.314   5.151   6.820 -0.4625  1.0999 -1.0362
 6666SOL    HW221132   7.249   5.278   6.871  0.2774  0.8663  0.5364
 6667SOL     OW21133   7.908   3.141   3.319  0.1723  0.6214  0.3969
 6667SOL    HW121134   7.951   3.111   3.399  1.0131 -0.8703 -0.5836
 6667SOL    HW221135   7.827   3.090   3.315  0.1315  0.6960  0.2842
 6668SOL     OW21136   3.775   2.533   2.356 -0.5695 -0.2210 -0.1251
 6668SOL    HW121137   3.830   2.456   2.342  1.2362  0.9483  0.1631
 6668SOL    HW221138   3.741   2.555   2.270 -1.0072 -1.2438 -0.2303
 6669SOL     OW21139   5.938   1.039   1.997 -0.2558 -0.2910  0.3445
 6669SOL    HW121140   6.029   1.024   2.023 -0.6768  0.0399  2.1568
 6669SOL    HW221141   5.888   1.031   2.078 -1.9771 -1.3543 -0.7448
 6670SOL     OW21142   3.530   8.404   4.340 -0.3504 -0.1656  0.4313
 6670SOL    HW121143   3.555   8.388   4.431  1.1417  0.2346  0.1221
 6670SOL    HW221144   3.604   8.371   4.289 -0.8902  0.1778 -0.6082
 6671SOL     OW21145   8.270   2.363   8.038  0.3928 -0.0259  0.6815
 6671SOL    HW121146   8.196   2.341   7.981  0.2389  0.1325  0.8219
 6671SOL    HW221147   8.247   2.327   8.123  0.4090  0.1582  0.7639
 6672SOL     OW21148   4.098   2.467   7.423  0.0602  0.1384 -0.4398
 6672SOL    HW121149   4.062   2.428   7.344 -0.2330  1.4603 -0.9843
 6672SOL    HW221150   4.036   2.536   7.447  0.7770  0.5768  0.2242
 6673SOL     OW21151   2.520   6.316   0.008 -0.7044 -0.3699  0.0881
 6673SOL    HW121152   2.522   6.339  -0.085  0.3181  1.9361  0.6261
 6673SOL    HW221153   2.589   6.250   0.018  0.3327  0.5941 -0.5209
 6674SOL     OW21154   8.297   2.632   1.601 -0.1926 -0.2483 -0.0558
 6674SOL    HW121155   8.359   2.661   1.534 -1.3584 -1.5636 -1.7997
 6674SOL    HW221156   8.350   2.586   1.665  0.8651  0.3617 -0.4771
 6675SOL     OW21157   3.926   2.589   5.605 -0.0875  0.1302  0.2216
 6675SOL    HW121158   3.965   2.502   5.603 -2.7125 -1.1979  1.3119
 6675SOL    HW221159   3.945   2.626   5.519  3.0740 -0.5048  0.5313
 6676SOL     OW21160   4.488   5.723   2.688  0.1774 -0.1589 -0.3893
 6676SOL    HW121161   4.490   5.644   2.633  1.9640 -0.2679 -0.2479
 6676SOL    HW221162   4.470   5.691   2.776 -0.1780 -0.2912 -0.5119
 6677SOL     OW21163   3.996   8.442   3.970 -0.4438  0.3724  0.3791
 6677SOL    HW121164   4.052   8.433   3.893  0.1252 -0.1297  0.8325
 6677SOL    HW221165   4.047   8.497   4.030 -0.3414 -0.2284  0.8644
 6678SOL     OW21166   5.350   2.752   0.486  0.5394  0.0606 -0.3211
 6678SOL    HW121167   5.369   2.733   0.394 -0.0377 -3.2760  0.1471
 6678SOL    HW221168   5.427   2.721   0.534  1.2636  2.6338  0.3683
 6679SOL     OW21169   2.931   8.960   6.714 -0.6487  0.4058  0.2096
 6679SOL    HW121170   2.855   8.902   6.716 -1.2959  1.2530  0.3197
 6679SOL    HW221171   2.985   8.930   6.788 -0.8275 -0.2478  0.0834
 6680SOL     OW21172   5.698   3.318   1.938 -0.2410  0.1800 -0.2902
 6680SOL    HW121173   5.668   3.233   1.906 -0.8521  0.5541 -0.7160
 6680SOL    HW221174   5.779   3.298   1.986 -0.6735 -0.7136  0.0894
 6681SOL     OW21175   7.631   7.464   4.969 -0.0045 -0.2115  0.1781
 6681SOL    HW121176   7.621   7.498   5.058 -1.1968  0.5000 -0.2101
 6681SOL    HW221177   7.541   7.448   4.939  0.4198 -1.3878 -0.5509
 6682SOL     OW21178   6.073   5.612   4.159 -0.1723 -0.9280  0.1282
 6682SOL    HW121179   6.051   5.595   4.251  1.6348 -0.4863  0.6759
 6682SOL    HW221180   6.108   5.529   4.127  1.3750 -0.4604  0.5420
 6683SOL     OW21181   0.398   7.274   5.367 -0.3272  0.1061 -0.0620
 6683SOL    HW121182   0.308   7.273   5.333  0.3108 -0.3951 -1.8865
 6683SOL    HW221183   0.419   7.366   5.379 -0.9300  0.2469 -0.0749
 6684SOL     OW21184   6.932   9.052   5.672 -0.7472 -0.3508 -0.6075
 6684SOL    HW121185   6.984   8.973   5.686  1.2777  1.3363  2.4247
 6684SOL    HW221186   6.934   9.098   5.756 -1.7233  2.9997 -2.2311
 6685SOL     OW21187   4.234   7.237   2.047  0.6039  0.1580 -0.2041
 6685SOL    HW121188   4.290   7.205   1.976  0.8840 -1.4682  0.7168
 6685SOL    HW221189   4.163   7.284   2.002  1.9116  1.0462 -1.4443
 6686SOL     OW21190   2.064   0.088   0.429  0.1357  0.2388  0.3010
 6686SOL    HW121191   2.065   0.149   0.355  0.0724  0.4605  0.4811
 6686SOL    HW221192   1.972   0.063   0.439  0.1532  0.1612  0.2646
 6687SOL     OW21193   6.823   0.641   6.402  0.1847 -0.0062  0.0728
 6687SOL    HW121194   6.878   0.565   6.422  0.0406 -0.4233 -1.0187
 6687SOL    HW221195   6.733   0.608   6.410  0.1186  0.1401 -0.0618
 6688SOL     OW21196   1.345   4.111   1.078  0.0876 -0.1371  0.0202
 6688SOL    HW121197   1.269   4.144   1.031 -1.0404 -0.7060  1.3631
 6688SOL    HW221198   1.408   4.089   1.010 -1.4905 -0.9673 -1.2465
 6689SOL     OW21199   6.589   4.839   5.527 -0.2351  0.3424  0.6485
 6689SOL    HW121200   6.514   4.782   5.512  0.0757 -0.5028  2.0368
 6689SOL    HW221201   6.554   4.928   5.519 -1.4179 -0.0290  1.3520
 6690SOL     OW21202   4.409   7.428   3.223  0.6063  0.5408  0.2926
 6690SOL    HW121203   4.384   7.352   3.276 -2.3363  1.0828 -0.1666
 6690SOL    HW221204   4.367   7.412   3.138  0.9486  2.1084 -0.1903
 6691SOL     OW21205   4.689   5.529   7.546 -0.3520  0.2459  0.2308
 6691SOL    HW121206   4.635   5.567   7.615 -1.5610  0.3653 -0.7359
 6691SOL    HW221207   4.748   5.470   7.591 -1.5802 -0.1994  1.3079
 6692SOL     OW21208   6.555   2.684   6.492 -0.5840 -0.3979 -0.2164
 6692SOL    HW121209   6.463   2.697   6.516 -0.4868  0.7784 -0.3998
 6692SOL    HW221210   6.553   2.625   6.417 -1.0306 -2.2321  1.1551
 6693SOL     OW21211   0.647   8.270   2.045  0.5392  0.4867 -0.0969
 6693SOL    HW121212   0.620   8.361   2.034 -1.7269 -0.1567 -0.5718
 6693SOL    HW221213   0.640   8.233   1.956  0.0186 -0.4702  0.3286
 6694SOL     OW21214   4.269   7.480   2.168 -0.0822  0.6183 -0.6395
 6694SOL    HW121215   4.237   7.391   2.153 -0.9861  0.5517  1.3656
 6694SOL    HW221216   4.240   7.529   2.091 -0.5079 -0.5817 -1.2702
 6695SOL     OW21217   4.427   8.695   6.611 -0.5944 -0.4678  0.0252
 6695SOL    HW121218   4.480   8.736   6.679 -1.5472  0.1118  0.4402
 6695SOL    HW221219   4.412   8.606   6.642 -1.1756 -0.1494  0.6679
 6696SOL     OW21220   5.362   3.128   8.452 -0.7376 -0.5374  0.0942
 6696SOL    HW121221   5.309   3.071   8.397  0.2527 -0.4614 -0.9781
 6696SOL    HW221222   5.452   3.113   8.423 -0.2145 -0.2147  1.4493
 6697SOL     OW21223   4.514   2.861   2.696 -0.2318 -0.0805  0.1617
 6697SOL    HW121224   4.496   2.824   2.782 -0.3560 -1.1143 -0.2915
 6697SOL    HW221225   4.491   2.791   2.635 -0.7350  0.8476 -0.7436
 6698SOL     OW21226   5.739   4.588   8.763 -0.3475  0.4708  0.4041
 6698SOL    HW121227   5.691   4.515   8.801 -1.1387 -0.4544 -2.2025
 6698SOL    HW221228   5.775   4.554   8.681  1.8301  2.1567  0.5607
 6699SOL     OW21229   3.659   1.999   8.383  0.0469 -0.0819  0.1878
 6699SOL    HW121230   3.641   1.945   8.306 -0.7803  0.3801  0.0426
 6699SOL    HW221231   3.720   2.066   8.352 -0.6913  0.4213 -0.2162
 6700SOL     OW21232   4.151   8.190   0.533  0.0760  0.0717  0.4612
 6700SOL    HW121233   4.066   8.169   0.571 -0.1660  1.2294  0.5711
 6700SOL    HW221234   4.214   8.148   0.593 -0.3866 -0.2845  0.7064
 6701SOL     OW21235   8.574   7.323   7.880  0.3329 -0.2050  0.1405
 6701SOL    HW121236   8.661   7.286   7.868 -0.3520 -1.8102 -0.2301
 6701SOL    HW221237   8.525   7.296   7.802 -0.2796  1.3752 -0.0637
 6702SOL     OW21238   4.903   4.063   0.553 -0.7164 -0.3410  0.0939
 6702SOL    HW121239   4.825   4.057   0.608  1.0868 -0.2256  2.9210
 6702SOL    HW221240   4.924   4.156   0.552  0.4924 -0.5603  1.2089
 6703SOL     OW21241   7.871   7.695   3.564  0.4160 -0.3539 -0.1479
 6703SOL    HW121242   7.858   7.604   3.538  0.5875 -0.4251  0.0167
 6703SOL    HW221243   7.877   7.743   3.481  2.6511 -0.8049 -0.3106
 6704SOL     OW21244   0.737   7.418   2.839 -0.3282  0.1341  0.2440
 6704SOL    HW121245   0.775   7.468   2.912  1.8930  0.6817 -1.2012
 6704SOL    HW221246   0.659   7.468   2.815  0.2391  1.3190  0.7366
 6705SOL     OW21247   8.336   7.127   7.552 -0.5266  0.2531  0.0060
 6705SOL    HW121248   8.304   7.067   7.620  1.2746  0.6273  1.2557
 6705SOL    HW221249   8.299   7.093   7.471 -3.6966  0.4212  1.2262
 6706SOL     OW21250   3.980   8.571   1.805  0.5984  0.4501  0.6129
 6706SOL    HW121251   3.916   8.641   1.792  0.3591  0.2615  0.7657
 6706SOL    HW221252   4.065   8.614   1.795  0.4512  0.7422  0.6044
 6707SOL     OW21253   0.633   5.143   7.176  0.4108  0.3681 -0.6160
 6707SOL    HW121254   0.661   5.232   7.195 -0.4581  0.7666 -1.1259
 6707SOL    HW221255   0.664   5.126   7.087 -1.4744  1.0837 -1.4816
 6708SOL     OW21256   6.307   8.556   8.302  0.0262  0.2842  0.6258
 6708SOL    HW121257   6.391   8.529   8.264  0.4528  1.3529  0.7729
 6708SOL    HW221258   6.260   8.596   8.229 -0.5379 -0.6856  0.4451
 6709SOL     OW21259   6.776   2.822   0.288  0.3614 -0.0002  0.3514
 6709SOL    HW121260   6.808   2.902   0.246 -0.4584 -0.6010 -1.5285
 6709SOL    HW221261   6.852   2.765   0.294  0.3376 -0.2268 -1.1780
 6710SOL     OW21262   8.293   6.252   6.231  0.0795 -0.3651 -0.2311
 6710SOL    HW121263   8.245   6.319   6.280  0.4344 -1.0190  1.0636
 6710SOL    HW221264   8.331   6.299   6.157  2.2135  1.4307  1.8389
 6711SOL     OW21265   7.177   0.812   0.186  0.6869 -0.1208  0.1811
 6711SOL    HW121266   7.137   0.725   0.189  1.7825 -0.6299  0.7493
 6711SOL    HW221267   7.143   0.851   0.105 -1.1538 -0.3868  0.7692
 6712SOL     OW21268   5.924   1.994   7.773  0.1039 -0.2884 -0.3857
 6712SOL    HW121269   6.001   2.038   7.811 -0.0477 -0.6736  0.3956
 6712SOL    HW221270   5.865   2.065   7.750 -0.6716 -0.0580  2.0166
 6713SOL     OW21271   1.180   1.690   6.081  0.3199 -0.0446  0.2823
 6713SOL    HW121272   1.216   1.777   6.064 -1.0752  0.3104 -1.1160
 6713SOL    HW221273   1.142   1.663   5.997 -2.5626 -0.4043  1.5904
 6714SOL     OW21274   6.564   7.498   4.650 -0.0647 -1.1041 -0.1860
 6714SOL    HW121275   6.641   7.488   4.595  0.3648 -0.8724  0.3670
 6714SOL    HW221276   6.561   7.418   4.702 -0.6029 -1.4280 -0.6940
 6715SOL     OW21277   8.926   4.348   4.868 -0.3931 -0.6536 -0.7212
 6715SOL    HW121278   8.871   4.393   4.804 -1.0167  0.3898  0.4899
 6715SOL    HW221279   8.942   4.262   4.830 -0.3667  0.0730 -2.4643
 6716SOL     OW21280   1.587   6.947   4.133 -0.2623 -0.4307  0.2499
 6716SOL    HW121281   1.564   6.895   4.056  1.7197  0.9993 -1.4413
 6716SOL    HW221282   1.664   6.903   4.169 -0.6140 -0.5457  0.8828
 6717SOL     OW21283   0.698   0.643   5.901 -0.0968  0.0466 -0.0890
 6717SOL    HW121284   0.605   0.632   5.919  0.0867 -1.4768  0.0498
 6717SOL    HW221285   0.741   0.615   5.982  0.4938  0.5414 -0.2228
 6718SOL     OW21286   7.390   6.221   8.875  0.4131  0.3958 -0.6029
 6718SOL    HW121287   7.405   6.240   8.782  1.0786 -1.9248 -1.0571
 6718SOL    HW221288   7.440   6.140   8.890 -0.3615  0.2709  1.5716
 6719SOL     OW21289   7.471   4.201   5.274 -0.2887  0.2181  0.6642
 6719SOL    HW121290   7.552   4.248   5.256 -0.7511  0.6466 -0.3398
 6719SOL    HW221291   7.497   4.131   5.334  0.7566  0.5545  0.6208
 6720SOL     OW21292   0.408   2.813   6.581 -0.4776  0.2250  0.2690
 6720SOL    HW121293   0.345   2.751   6.545 -0.5073  0.6428 -0.4188
 6720SOL    HW221294   0.435   2.774   6.664 -1.7863  0.1314  0.6692
 6721SOL     OW21295   1.877   0.730   4.857 -0.3564 -0.1710 -0.2279
 6721SOL    HW121296   1.881   0.643   4.816  1.5670 -0.5492  0.6090
 6721SOL    HW221297   1.866   0.712   4.950  2.1673  0.3099  0.2430
 6722SOL     OW21298   5.920   8.490   0.003 -0.4769  0.1639  0.4640
 6722SOL    HW121299   5.903   8.398   0.027  1.3550 -0.0283  1.1800
 6722SOL    HW221300   5.867   8.541   0.064  0.2341 -0.4151  1.6067
 6723SOL     OW21301   5.478   6.946   7.376  0.2926  0.5090  0.5897
 6723SOL    HW121302   5.411   7.007   7.408 -0.9494  0.3841 -1.5546
 6723SOL    HW221303   5.433   6.862   7.371  1.6581 -0.4038  2.3872
 6724SOL     OW21304   6.058   7.057   2.925  0.1466 -0.2747  0.2289
 6724SOL    HW121305   6.140   7.097   2.899 -0.7732  0.1069 -2.3573
 6724SOL    HW221306   6.056   6.974   2.877 -0.9910 -0.2465  0.2060
 6725SOL     OW21307   4.063   3.028   3.540 -0.4751 -0.4203  0.2497
 6725SOL    HW121308   3.980   3.072   3.527 -0.5031 -0.4801  0.2263
 6725SOL    HW221309   4.070   3.016   3.634 -0.0699  0.4038  0.3273
 6726SOL     OW21310   2.764   2.059   8.331  0.2914  0.0554 -0.2932
 6726SOL    HW121311   2.771   1.965   8.314 -1.2138  0.2008 -2.0819
 6726SOL    HW221312   2.852   2.093   8.318  0.7644 -1.0394 -0.0589
 6727SOL     OW21313   2.846   5.931   2.084 -0.5080 -0.3657  0.0493
 6727SOL    HW121314   2.779   5.996   2.063 -0.0666 -0.2722 -1.1284
 6727SOL    HW221315   2.832   5.861   2.020 -0.3328 -0.9643  0.6537
 6728SOL     OW21316   5.293   0.691   7.814 -0.1311 -0.4359  0.1235
 6728SOL    HW121317   5.260   0.607   7.847  0.4732 -0.8779 -0.3647
 6728SOL    HW221318   5.365   0.714   7.873  2.2744 -2.2042 -1.8620
 6729SOL     OW21319   1.477   5.713   3.965  1.0071  0.3993  0.0489
 6729SOL    HW121320   1.396   5.675   3.999  1.6677  0.4364  1.7691
 6729SOL    HW221321   1.450   5.761   3.887 -0.3849 -0.7562 -0.2217
 6730SOL     OW21322   5.186   8.303   2.044  0.2775 -0.4789  0.2835
 6730SOL    HW121323   5.228   8.221   2.067 -1.3153 -0.8947  2.0183
 6730SOL    HW221324   5.122   8.279   1.976  0.5664 -0.4699  0.0089
 6731SOL     OW21325   3.026   1.468   2.735  0.4145  0.0132  0.9746
 6731SOL    HW121326   3.073   1.408   2.793  0.7891 -0.9536 -0.2853
 6731SOL    HW221327   3.005   1.543   2.790 -1.0059 -1.6886  2.9430
 6732SOL     OW21328   2.542   3.320   5.392 -0.1827 -0.0041 -0.4395
 6732SOL    HW121329   2.480   3.298   5.323  1.3393 -0.0967 -1.8485
 6732SOL    HW221330   2.623   3.342   5.345  1.2803 -1.2466  1.3524
 6733SOL     OW21331   0.034   5.133   1.939  0.7298 -0.1006  0.6170
 6733SOL    HW121332   0.022   5.105   2.029  2.4188 -1.8814  0.3340
 6733SOL    HW221333   0.008   5.058   1.886  0.0570  0.8084 -0.3988
 6734SOL     OW21334   5.646   0.409   5.914  0.0415 -0.0976 -0.5417
 6734SOL    HW121335   5.720   0.467   5.896  1.4216 -1.3970  0.6846
 6734SOL    HW221336   5.652   0.390   6.007 -1.3980 -0.8547 -0.5714
 6735SOL     OW21337   4.589   6.989   6.125 -0.0258  0.9269 -0.3523
 6735SOL    HW121338   4.536   7.020   6.053 -0.1237  1.1974 -0.1648
 6735SOL    HW221339   4.539   7.010   6.204  0.4368  1.3486 -0.1643
 6736SOL     OW21340   2.001   3.962   7.563 -0.0762 -0.2217 -0.3369
 6736SOL    HW121341   2.091   3.976   7.593  0.7222 -2.9757 -1.1912
 6736SOL    HW221342   2.008   3.960   7.467 -0.9552 -0.9223 -0.3943
 6737SOL     OW21343   4.554   0.337   1.169 -0.1520  0.3226  0.3549
 6737SOL    HW121344   4.629   0.280   1.155  0.8938  1.9626 -1.2199
 6737SOL    HW221345   4.580   0.394   1.242 -1.1365 -1.0496  1.8311
 6738SOL     OW21346   5.608   6.072   6.561 -0.2030  0.4885 -0.4512
 6738SOL    HW121347   5.592   6.139   6.495 -0.4848  0.7238 -0.1494
 6738SOL    HW221348   5.565   5.994   6.526 -3.0720  1.3612  0.8136
 6739SOL     OW21349   2.396   7.206   8.432  0.0155 -0.3517  0.1168
 6739SOL    HW121350   2.385   7.261   8.355  1.5949 -0.5534 -0.2987
 6739SOL    HW221351   2.481   7.234   8.468 -0.3712 -0.7556  1.3669
 6740SOL     OW21352   8.609   1.392   4.932  0.3983 -0.8075  0.3414
 6740SOL    HW121353   8.575   1.416   4.846  0.7455 -1.9567 -0.1402
 6740SOL    HW221354   8.532   1.359   4.979  0.0571  0.5190  0.7645
 6741SOL     OW21355   3.668   8.485   4.002  0.0113  0.0299  0.1576
 6741SOL    HW121356   3.749   8.438   3.981  0.7145  0.8242  0.9790
 6741SOL    HW221357   3.698   8.570   4.033 -1.2405  1.6680 -2.7076
 6742SOL     OW21358   1.708   8.459   1.978 -0.3201 -0.8191 -0.1749
 6742SOL    HW121359   1.657   8.444   1.899 -2.7647  0.3565  1.0566
 6742SOL    HW221360   1.675   8.543   2.012  1.2323 -0.8793  1.6411
 6743SOL     OW21361   0.084   5.766   1.313  0.1376  0.2575  0.1988
 6743SOL    HW121362   0.176   5.744   1.327 -0.1510 -0.2337  1.5176
 6743SOL    HW221363   0.038   5.682   1.315 -0.2569  0.4026 -1.4108
 6744SOL     OW21364   8.183   8.625   6.990  0.4061 -0.1672  0.3262
 6744SOL    HW121365   8.154   8.539   6.959 -0.1540 -0.1355  0.7451
 6744SOL    HW221366   8.196   8.676   6.910 -0.2707 -0.3255  0.1110
 6745SOL     OW21367   2.760   4.837   3.061 -0.4129 -0.0598 -0.5238
 6745SOL    HW121368   2.666   4.823   3.071 -0.0715 -1.2593  1.8567
 6745SOL    HW221369   2.788   4.770   2.998 -1.2252  0.8258 -1.8715
 6746SOL     OW21370   2.785   4.984   7.950 -0.2159  0.1584  0.1051
 6746SOL    HW121371   2.751   4.955   7.865  0.5274  0.1007 -0.1885
 6746SOL    HW221372   2.730   5.059   7.974 -1.1381 -0.5052  0.1094
 6747SOL     OW21373   8.300   4.111   8.056  0.2064 -0.6017  0.2382
 6747SOL    HW121374   8.277   4.054   8.129 -0.0245 -0.2176  0.4706
 6747SOL    HW221375   8.346   4.184   8.097  1.7284 -1.2792 -0.1970
 6748SOL     OW21376   0.693   6.582   5.595  0.5052  0.0112 -0.1102
 6748SOL    HW121377   0.648   6.500   5.615 -1.1285  0.9861  0.4184
 6748SOL    HW221378   0.706   6.623   5.681  0.7663  0.5691 -0.4165
 6749SOL     OW21379   4.095   0.109   7.236  0.1709  0.1806 -0.1422
 6749SOL    HW121380   4.146   0.139   7.160  0.3005 -1.1318 -0.6014
 6749SOL    HW221381   4.105   0.014   7.235  0.7434  0.1714  1.9380
 6750SOL     OW21382   1.790   4.572   5.743 -0.2588  0.0024 -0.1474
 6750SOL    HW121383   1.884   4.573   5.764  0.3083  2.1395 -2.3225
 6750SOL    HW221384   1.774   4.484   5.710  1.9003  0.5210 -2.9839
 6751SOL     OW21385   8.686   0.468   1.417  0.1258 -0.1418 -0.4314
 6751SOL    HW121386   8.691   0.529   1.491 -1.6960 -1.7512  1.1592
 6751SOL    HW221387   8.618   0.504   1.360 -0.8435 -0.5299  0.4338
 6752SOL     OW21388   8.231   7.113   1.124 -0.7225  0.1292  0.1266
 6752SOL    HW121389   8.217   7.068   1.207 -0.1739 -0.3740 -0.0410
 6752SOL    HW221390   8.324   7.100   1.105 -0.2947  2.2336  0.5771
 6753SOL     OW21391   3.224   8.120   4.931 -0.2743  0.1118  0.1030
 6753SOL    HW121392   3.202   8.186   4.866 -0.3015 -1.7356 -1.8950
 6753SOL    HW221393   3.320   8.119   4.932 -0.2735  0.2756  0.2471
 6754SOL     OW21394   2.823   4.996   8.413 -0.2797 -0.2104  0.4366
 6754SOL    HW121395   2.841   4.944   8.335 -0.1828  0.0808  0.2666
 6754SOL    HW221396   2.884   4.962   8.479 -1.3552 -1.4607  0.8283
 6755SOL     OW21397   7.939   7.481   1.095 -0.0376 -0.0819 -0.0083
 6755SOL    HW121398   7.914   7.572   1.084  2.2686  0.6432  0.3256
 6755SOL    HW221399   7.980   7.457   1.011  1.2486 -0.1501  0.6272
 6756SOL     OW21400   7.329   8.658   8.807  0.0954 -0.1775  0.0799
 6756SOL    HW121401   7.409   8.609   8.787  1.1200  1.0612  1.0215
 6756SOL    HW221402   7.359   8.735   8.856 -1.8551 -0.8220  2.4826
 6757SOL     OW21403   3.951   1.166   0.530  0.3825  0.2264  0.2388
 6757SOL    HW121404   3.963   1.222   0.606 -0.6379  0.8460 -0.0262
 6757SOL    HW221405   3.954   1.077   0.564  0.0242  0.4977  0.9993
 6758SOL     OW21406   6.688   8.531   4.073  0.2242  0.2687  0.1231
 6758SOL    HW121407   6.698   8.530   3.978 -0.5262  0.0464  0.0362
 6758SOL    HW221408   6.602   8.492   4.088  0.0101  0.9908  0.8456
 6759SOL     OW21409   7.834   0.754   2.680 -0.9346  0.2244  0.5012
 6759SOL    HW121410   7.748   0.753   2.637 -0.4435  1.0844 -0.5656
 6759SOL    HW221411   7.849   0.664   2.706 -2.5101  0.1903  1.4252
 6760SOL     OW21412   8.775   6.530   4.816 -0.5949  0.2385  0.2972
 6760SOL    HW121413   8.767   6.550   4.909 -2.5331 -0.4741  0.3263
 6760SOL    HW221414   8.831   6.599   4.781  2.0001 -0.6650  2.3338
 6761SOL     OW21415   1.186   7.950   1.075  0.0513  0.3227  0.5273
 6761SOL    HW121416   1.171   7.874   1.132  0.3932 -0.6308 -0.6236
 6761SOL    HW221417   1.272   7.935   1.037 -0.2258  0.8734 -0.3479
 6762SOL     OW21418   1.469   2.198   4.441  0.2137 -0.2344  0.6897
 6762SOL    HW121419   1.421   2.261   4.387  0.5528 -0.8186 -0.2991
 6762SOL    HW221420   1.431   2.208   4.529 -0.0981  0.9674  0.4319
 6763SOL     OW21421   5.668   2.578   6.249  0.1168 -0.1328  0.1904
 6763SOL    HW121422   5.615   2.582   6.170 -2.3890 -1.9527  1.6618
 6763SOL    HW221423   5.759   2.581   6.217 -0.7683  1.8669 -2.4983
 6764SOL     OW21424   7.360   8.203   6.736 -0.5182 -0.1235 -0.7539
 6764SOL    HW121425   7.267   8.225   6.746 -0.6270 -0.2648 -1.4378
 6764SOL    HW221426   7.388   8.180   6.825 -1.1506 -0.1422 -0.5531
 6765SOL     OW21427   5.740   1.461   7.801 -0.2418  0.1642  0.0796
 6765SOL    HW121428   5.825   1.449   7.758 -0.1668  2.5245 -0.6136
 6765SOL    HW221429   5.677   1.419   7.743  0.1748  0.8368 -0.8753
 6766SOL     OW21430   4.959   8.670   2.457 -0.4034  0.6398  0.2638
 6766SOL    HW121431   4.902   8.667   2.380  0.8590  2.6428 -0.8329
 6766SOL    HW221432   4.918   8.736   2.514 -1.6485 -1.2392  1.6599
 6767SOL     OW21433   4.623   5.466   5.775 -0.1702 -0.1834  0.1896
 6767SOL    HW121434   4.671   5.393   5.736  1.5659  0.8453  0.2817
 6767SOL    HW221435   4.550   5.425   5.821  0.7905 -1.8678  0.2971
 6768SOL     OW21436   6.158   3.902   8.292  0.2238  0.0977 -0.2814
 6768SOL    HW121437   6.078   3.863   8.256  0.6894  0.3800 -1.6893
 6768SOL    HW221438   6.158   3.876   8.384 -0.6763 -1.2441 -0.6305
 6769SOL     OW21439   2.175   5.390   4.262  0.1218 -0.4467 -0.2890
 6769SOL    HW121440   2.199   5.482   4.253  0.1090 -0.4386 -0.2432
 6769SOL    HW221441   2.128   5.369   4.181 -0.6303 -0.1751  0.0593
 6770SOL     OW21442   2.520   2.672   4.383 -0.2061 -0.4478  0.1197
 6770SOL    HW121443   2.598   2.650   4.332  0.7733  0.7563  1.0332
 6770SOL    HW221444   2.447   2.659   4.323  0.7849 -0.4652 -1.1178
 6771SOL     OW21445   0.814   3.961   0.830 -0.0649 -0.3876  0.3001
 6771SOL    HW121446   0.906   3.943   0.852  0.1542 -1.4331 -1.2607
 6771SOL    HW221447   0.773   3.874   0.827 -0.5451 -0.1493 -1.1513
 6772SOL     OW21448   5.807   6.234   3.021 -0.6042 -0.2038 -0.0304
 6772SOL    HW121449   5.722   6.250   2.981 -0.3396 -0.6506 -0.7801
 6772SOL    HW221450   5.844   6.160   2.972  0.1222 -0.1548  0.4256
 6773SOL     OW21451   8.847   4.514   1.323  0.3720 -0.2544 -0.0860
 6773SOL    HW121452   8.779   4.580   1.335 -0.8862 -1.7068  1.3988
 6773SOL    HW221453   8.828   4.476   1.237 -0.5693 -0.4421  0.1832
 6774SOL     OW21454   2.396   3.804   8.839 -0.3226 -0.0782 -0.0564
 6774SOL    HW121455   2.373   3.791   8.931 -1.2598  0.6808 -0.1627
 6774SOL    HW221456   2.314   3.788   8.792  0.0830 -0.1883 -0.7383
 6775SOL     OW21457   9.025   9.107   1.522 -0.5666  1.1119  0.5804
 6775SOL    HW121458   9.020   9.026   1.473  2.3959  0.8825  0.5145
 6775SOL    HW221459   8.936   9.119   1.558 -1.8767 -0.5110 -1.8484
 6776SOL     OW21460   0.306   3.134   1.591  0.0668  0.1241  0.2214
 6776SOL    HW121461   0.282   3.202   1.654 -0.3096  0.7985 -0.6251
 6776SOL    HW221462   0.336   3.182   1.514 -1.4478 -0.6139 -0.8968
 6777SOL     OW21463   1.474   2.345   1.739  0.5940 -0.4180  0.3036
 6777SOL    HW121464   1.473   2.395   1.821  2.2272 -0.5594  0.4353
 6777SOL    HW221465   1.420   2.397   1.679 -1.5350 -0.8450  1.7217
 6778SOL     OW21466   6.220   5.632   1.790  0.2961 -0.4146 -0.2129
 6778SOL    HW121467   6.311   5.653   1.770  0.0689  0.5325 -0.2645
 6778SOL    HW221468   6.208   5.661   1.880  0.2553 -1.2675  0.0726
 6779SOL     OW21469   9.097   1.479   5.019  0.0639 -0.1808  0.2844
 6779SOL    HW121470   9.178   1.485   4.970  0.2211 -1.4882  0.3598
 6779SOL    HW221471   9.121   1.435   5.101 -0.9851 -2.1876 -0.4195
 6780SOL     OW21472   8.321   7.935   7.172  0.5590 -0.6227 -0.4723
 6780SOL    HW121473   8.306   8.030   7.172 -1.3430 -0.8909 -0.1680
 6780SOL    HW221474   8.350   7.916   7.082  0.1535  0.1300 -0.7770
 6781SOL     OW21475   6.368   6.953   1.522 -0.4894 -0.2612 -0.2935
 6781SOL    HW121476   6.407   6.897   1.456  0.0006  0.7424 -0.8844
 6781SOL    HW221477   6.308   7.010   1.473  0.0782  0.6723  0.0748
 6782SOL     OW21478   5.879   5.988   7.174 -0.1141  0.5747  0.7269
 6782SOL    HW121479   5.856   5.977   7.081 -1.7434  0.9790  1.0482
 6782SOL    HW221480   5.860   6.080   7.193 -2.0478 -0.0263  2.0032
 6783SOL     OW21481   3.203   0.724   1.679  0.1538 -0.0558 -0.3121
 6783SOL    HW121482   3.251   0.641   1.681 -3.1577 -2.1180  0.3447
 6783SOL    HW221483   3.207   0.756   1.769  0.3285 -0.1874 -0.2731
 6784SOL     OW21484   3.309   7.305   8.154 -0.1386  0.3697 -0.0000
 6784SOL    HW121485   3.337   7.392   8.124  1.3425 -0.0100  0.1679
 6784SOL    HW221486   3.390   7.254   8.156 -0.9062 -0.8741  0.4033
 6785SOL     OW21487   2.557   5.924   8.562  0.2813  0.0441 -0.3649
 6785SOL    HW121488   2.650   5.944   8.548 -0.0380 -0.2680 -3.6670
 6785SOL    HW221489   2.513   6.009   8.557  0.1410 -0.0933 -1.7941
 6786SOL     OW21490   1.604   4.397   2.719  0.7370 -0.2279  0.3836
 6786SOL    HW121491   1.655   4.400   2.800  1.6642 -0.2090 -0.1862
 6786SOL    HW221492   1.660   4.439   2.654  1.0237 -2.3522 -0.8104
 6787SOL     OW21493   5.731   5.465   1.825 -0.0580  0.1626 -0.4032
 6787SOL    HW121494   5.803   5.417   1.866 -1.8676 -0.8489  1.8447
 6787SOL    HW221495   5.673   5.396   1.791 -1.7438  0.7551  1.1384
 6788SOL     OW21496   3.571   3.330   2.087 -0.3408 -0.6655  0.1482
 6788SOL    HW121497   3.536   3.380   2.013 -0.8212  0.1621  0.9145
 6788SOL    HW221498   3.665   3.321   2.069  0.5128  3.4642  1.5412
 6789SOL     OW21499   0.872   3.282   1.233 -0.0289  0.1283  0.8347
 6789SOL    HW121500   0.892   3.241   1.149 -1.1697  0.2749  0.4740
 6789SOL    HW221501   0.936   3.244   1.294 -0.2826 -1.2678  0.2647
 6790SOL     OW21502   7.016   0.097   6.327  0.4010 -0.3169  0.3528
 6790SOL    HW121503   7.104   0.072   6.353 -0.2523 -3.4048  0.0615
 6790SOL    HW221504   6.964   0.090   6.407 -0.1270 -1.8003 -0.0810
 6791SOL     OW21505   4.380   0.904   0.646 -0.0014 -0.5217 -0.3492
 6791SOL    HW121506   4.406   0.996   0.654 -0.7838  0.1052 -3.5700
 6791SOL    HW221507   4.306   0.894   0.705 -0.8088  1.3500 -0.9835
 6792SOL     OW21508   8.411   0.242   8.709  0.0748 -0.0816  0.2110
 6792SOL    HW121509   8.429   0.149   8.700  0.7562 -0.2268  2.4739
 6792SOL    HW221510   8.359   0.264   8.631 -0.4486 -2.4050 -0.1752
 6793SOL     OW21511   2.843   1.500   3.132 -0.2238 -0.3592 -0.0618
 6793SOL    HW121512   2.789   1.489   3.211 -0.5122  0.9847 -0.0469
 6793SOL    HW221513   2.785   1.542   3.069  0.3702 -0.2823 -0.5705
 6794SOL     OW21514   8.394   6.368   0.059  0.0128  0.2869 -0.4154
 6794SOL    HW121515   8.393   6.295   0.120 -1.9997 -0.8262 -1.6908
 6794SOL    HW221516   8.487   6.390   0.049  0.5946 -1.5412  0.6156
 6795SOL     OW21517   3.332   6.350   7.299  0.4394 -0.1212 -0.0856
 6795SOL    HW121518   3.382   6.429   7.280  1.5514 -1.1821 -1.9211
 6795SOL    HW221519   3.342   6.336   7.393 -0.0762  2.0644  0.3353
 6796SOL     OW21520   1.138   7.649   8.913  0.4324 -0.0174  1.0354
 6796SOL    HW121521   1.206   7.717   8.912  0.2989  0.1142  0.9318
 6796SOL    HW221522   1.064   7.689   8.958 -0.6421  0.8642 -1.3789
 6797SOL     OW21523   1.464   6.711   1.703 -0.0108  0.4098 -0.0261
 6797SOL    HW121524   1.375   6.706   1.668  0.1358 -0.2225 -0.3297
 6797SOL    HW221525   1.453   6.738   1.794 -0.4891  0.6874 -0.1629
 6798SOL     OW21526   8.826   2.098   4.604 -0.0300 -0.0922  0.0917
 6798SOL    HW121527   8.754   2.143   4.648  0.0406 -0.2781  0.4035
 6798SOL    HW221528   8.870   2.166   4.554  0.4324  0.3186  1.0188
 6799SOL     OW21529   8.746   4.321   4.425 -0.1820 -0.2739 -0.1328
 6799SOL    HW121530   8.795   4.283   4.352 -0.2889  0.2955 -0.5102
 6799SOL    HW221531   8.655   4.314   4.399 -0.2729 -0.8344  0.3251
 6800SOL     OW21532   2.397   2.126   0.077  0.2474  0.0034  0.1034
 6800SOL    HW121533   2.396   2.030   0.079  2.2217 -0.1230 -1.9146
 6800SOL    HW221534   2.328   2.149   0.016  1.7719 -0.3408 -1.8398
 6801SOL     OW21535   6.919   3.296   7.915 -0.0820 -0.0226  0.2894
 6801SOL    HW121536   7.005   3.330   7.889  0.5102  1.2249  3.4012
 6801SOL    HW221537   6.938   3.213   7.958 -0.3649  0.4067  1.2683
 6802SOL     OW21538   4.518   1.006   2.081  0.0543  0.1823  0.0563
 6802SOL    HW121539   4.598   1.031   2.035  0.6637  1.1557  1.5840
 6802SOL    HW221540   4.465   0.962   2.014  1.9049 -0.6198 -0.9484
 6803SOL     OW21541   6.741   3.688   8.713  0.4971 -0.4109 -0.0307
 6803SOL    HW121542   6.702   3.685   8.625 -0.1467  1.5912  0.1340
 6803SOL    HW221543   6.775   3.599   8.727 -1.5928 -1.5070 -1.2845
 6804SOL     OW21544   8.582   7.890   8.677 -0.1928 -0.1141  0.2829
 6804SOL    HW121545   8.624   7.835   8.611 -0.3536  0.4613 -0.3111
 6804SOL    HW221546   8.622   7.976   8.665 -2.9962  1.0695 -1.8107
 6805SOL     OW21547   7.495   1.047   2.488 -0.6572 -0.1395  0.0103
 6805SOL    HW121548   7.506   1.138   2.514  0.1049  0.9997 -3.7515
 6805SOL    HW221549   7.428   1.013   2.548 -0.9698  2.8334  1.5340
 6806SOL     OW21550   1.226   6.346   4.691 -0.3111  0.5316 -0.7316
 6806SOL    HW121551   1.165   6.410   4.728  0.5892  0.1295  1.5699
 6806SOL    HW221552   1.306   6.358   4.741  0.3316 -1.4502 -1.2271
 6807SOL     OW21553   5.820   4.252   2.398 -0.1569  0.2409  0.2733
 6807SOL    HW121554   5.878   4.228   2.326 -0.7924  1.6279 -0.7535
 6807SOL    HW221555   5.794   4.343   2.379 -1.0941  0.3203  1.7458
 6808SOL     OW21556   2.839   1.354   0.154 -0.2350  0.3063 -0.0657
 6808SOL    HW121557   2.744   1.359   0.160 -0.5520 -1.9405 -1.8192
 6808SOL    HW221558   2.871   1.394   0.235 -2.7017 -0.0708  1.1751
 6809SOL     OW21559   3.950   7.718   6.389 -0.6842  0.0991 -0.3513
 6809SOL    HW121560   4.015   7.649   6.375  0.1034  0.3682  1.6657
 6809SOL    HW221561   3.981   7.791   6.335 -0.0581 -0.2322 -0.4581
 6810SOL     OW21562   1.904   8.940   5.798 -0.1587  0.3679 -0.3449
 6810SOL    HW121563   1.971   8.938   5.866 -1.0161  1.6598  0.5823
 6810SOL    HW221564   1.927   9.016   5.744 -0.5750  0.5067 -0.3289
 6811SOL     OW21565   7.079   8.872   8.918 -0.3836 -0.0796 -0.1348
 6811SOL    HW121566   7.039   8.868   9.005 -1.7170 -1.3507 -0.7648
 6811SOL    HW221567   7.173   8.880   8.935 -0.6101 -0.4090  1.4181
 6812SOL     OW21568   6.676   2.378   4.153 -0.1377  0.2537  0.7856
 6812SOL    HW121569   6.646   2.462   4.187 -2.1449  0.0166 -0.2294
 6812SOL    HW221570   6.595   2.331   4.132  0.9307 -2.0037  1.4559
 6813SOL     OW21571   7.966   4.382   4.572 -0.1860  0.3547  0.4213
 6813SOL    HW121572   7.911   4.313   4.610 -0.4661  0.0844 -0.4539
 6813SOL    HW221573   7.971   4.360   4.479  1.4881  0.3144  0.4779
 6814SOL     OW21574   6.497   2.769   5.817 -0.0339 -0.0245 -0.4037
 6814SOL    HW121575   6.591   2.752   5.817  0.0844  0.5654  0.3554
 6814SOL    HW221576   6.463   2.719   5.742  0.7925 -0.6860 -0.3459
 6815SOL     OW21577   6.277   6.037   3.307  0.4158  0.3812 -0.1231
 6815SOL    HW121578   6.300   5.944   3.300  1.0717  0.6459 -2.3490
 6815SOL    HW221579   6.359   6.080   3.331  0.0135  0.3579  1.3392
 6816SOL     OW21580   8.578   5.213   5.996  0.4006  0.4101  0.2182
 6816SOL    HW121581   8.506   5.259   5.953 -0.2042 -0.8590 -0.1750
 6816SOL    HW221582   8.576   5.126   5.958  1.8670  0.2180  0.5472
 6817SOL     OW21583   3.179   8.161   5.302 -0.0784  0.0559  0.3064
 6817SOL    HW121584   3.143   8.246   5.277 -0.3855  0.0414  0.7013
 6817SOL    HW221585   3.199   8.169   5.395  0.5190 -0.0855  0.1975
 6818SOL     OW21586   6.710   5.662   7.686 -0.0910 -0.8643  0.2871
 6818SOL    HW121587   6.774   5.649   7.757 -0.9115 -3.4288  0.6689
 6818SOL    HW221588   6.676   5.750   7.700  2.1156 -0.0536  1.0687
 6819SOL     OW21589   8.611   1.026   3.388 -0.1288  0.7206 -0.6850
 6819SOL    HW121590   8.616   1.121   3.396 -0.8945  0.6990  0.2177
 6819SOL    HW221591   8.543   1.011   3.322 -0.7291  0.8005 -0.0975
 6820SOL     OW21592   7.006   7.593   4.472  0.3292 -0.6014 -0.5428
 6820SOL    HW121593   6.987   7.636   4.555  3.0454  0.3926 -0.3093
 6820SOL    HW221594   6.939   7.625   4.412 -0.6332  0.0528  0.8326
 6821SOL     OW21595   2.379   2.984   1.042  0.3265  0.1521 -0.0716
 6821SOL    HW121596   2.379   3.038   1.121 -0.2562  0.6281 -0.3749
 6821SOL    HW221597   2.347   2.899   1.071 -1.0052  0.6538  0.0212
 6822SOL     OW21598   5.591   3.629   4.447 -0.0843  0.5540 -0.4932
 6822SOL    HW121599   5.649   3.640   4.523  2.1729  4.1176 -2.4342
 6822SOL    HW221600   5.591   3.535   4.430  1.6045 -0.0590  2.2094
 6823SOL     OW21601   0.901   5.177   3.819  0.2094 -0.8966 -0.5722
 6823SOL    HW121602   0.949   5.103   3.782  2.9483  0.3687  0.1298
 6823SOL    HW221603   0.915   5.249   3.757  0.2494 -0.1915  0.2254
 6824SOL     OW21604   7.692   8.540   7.374 -0.4567  0.1432 -0.6622
 6824SOL    HW121605   7.640   8.518   7.297 -0.1309  2.4278 -1.6130
 6824SOL    HW221606   7.672   8.471   7.437 -2.5076 -0.5341 -1.9605
 6825SOL     OW21607   3.041   0.905   6.628  0.2874 -0.6480  0.0305
 6825SOL    HW121608   3.039   0.938   6.538 -0.9439 -1.5866 -0.3259
 6825SOL    HW221609   2.967   0.949   6.670  0.3106 -0.8931  0.3247
 6826SOL     OW21610   0.879   4.790   0.386  0.1076  0.3913  0.0778
 6826SOL    HW121611   0.860   4.878   0.420  0.9996  0.5859  0.1065
 6826SOL    HW221612   0.974   4.783   0.390  0.1113 -0.2282 -0.8137
 6827SOL     OW21613   6.957   6.513   6.448 -0.5554  0.4170  0.3711
 6827SOL    HW121614   6.924   6.422   6.447 -0.9147  0.5456  0.1131
 6827SOL    HW221615   6.887   6.563   6.491 -0.3071  0.5529  0.6157
 6828SOL     OW21616   8.205   3.414   4.684  0.2422 -0.0941 -0.3579
 6828SOL    HW121617   8.155   3.440   4.762 -0.0471  1.5454 -1.0361
 6828SOL    HW221618   8.139   3.407   4.615  0.2158 -3.4340 -0.1149
 6829SOL     OW21619   4.319   7.982   4.927  0.0633 -0.1097 -0.5303
 6829SOL    HW121620   4.360   8.069   4.924 -0.4715  0.1424 -0.7526
 6829SOL    HW221621   4.391   7.923   4.949  0.4244  0.3966 -0.3082
 6830SOL     OW21622   7.316   2.422   5.801 -0.0086  0.1140 -1.0899
 6830SOL    HW121623   7.411   2.429   5.793  0.1618 -0.2831  0.4196
 6830SOL    HW221624   7.292   2.351   5.741  0.4602  1.0520 -2.4569
 6831SOL     OW21625   1.148   0.519   7.243  0.2360 -0.5159 -0.4633
 6831SOL    HW121626   1.198   0.480   7.315 -1.5770 -0.7309  0.7538
 6831SOL    HW221627   1.209   0.580   7.202  1.2484 -0.1299  1.4736
 6832SOL     OW21628   2.435   6.698   3.566  0.1805  0.2637  0.0723
 6832SOL    HW121629   2.480   6.782   3.567  0.7469 -0.0399  0.6267
 6832SOL    HW221630   2.375   6.702   3.640  0.9035 -0.1823  0.6965
 6833SOL     OW21631   3.669   6.132   0.003  0.2091  0.3911  0.7014
 6833SOL    HW121632   3.604   6.119   0.071 -0.1237 -0.8015  0.1746
 6833SOL    HW221633   3.700   6.044  -0.018  3.9173  0.9808  2.7384
 6834SOL     OW21634   0.525   1.710   5.621  0.2864 -0.3106 -0.4621
 6834SOL    HW121635   0.512   1.801   5.594 -0.0009 -0.2091  0.0009
 6834SOL    HW221636   0.547   1.716   5.714  0.2184 -0.7162 -0.4183
 6835SOL     OW21637   0.488   7.469   5.023 -0.1181  0.2033 -0.4313
 6835SOL    HW121638   0.539   7.497   4.947  0.1883 -0.3693 -0.4406
 6835SOL    HW221639   0.551   7.428   5.081 -0.5278 -0.2978 -0.3352
 6836SOL     OW21640   4.839   1.514   6.844  0.0017 -0.2079  0.4681
 6836SOL    HW121641   4.851   1.560   6.761 -2.0238 -2.1171 -1.0105
 6836SOL    HW221642   4.776   1.567   6.892 -3.2183 -1.7119 -1.7051
 6837SOL     OW21643   7.256   3.777   3.179  0.1045  0.1774 -0.0524
 6837SOL    HW121644   7.208   3.694   3.183 -0.3767  0.4995  1.0910
 6837SOL    HW221645   7.348   3.751   3.183 -0.0189 -0.3380 -0.3857
 6838SOL     OW21646   5.245   6.395   8.067 -0.0527  0.7062 -0.0558
 6838SOL    HW121647   5.189   6.438   8.002 -0.4158 -1.5098 -1.3077
 6838SOL    HW221648   5.294   6.467   8.107  0.2184  2.2068 -2.8075
 6839SOL     OW21649   3.441   6.043   2.642 -0.0921 -0.0239 -0.4871
 6839SOL    HW121650   3.362   6.063   2.691  1.3303 -0.5130  2.1862
 6839SOL    HW221651   3.421   5.963   2.594 -1.7859  0.9096 -1.4127
 6840SOL     OW21652   1.278   1.994   2.509  0.2622  0.2641  0.0167
 6840SOL    HW121653   1.355   1.981   2.453  0.3307  0.7744 -0.0204
 6840SOL    HW221654   1.241   1.907   2.521  1.3388 -0.1047  0.7432
 6841SOL     OW21655   7.019   3.493   6.556 -0.1949  0.3959 -0.1362
 6841SOL    HW121656   7.088   3.546   6.516 -0.0289  0.2524 -0.0387
 6841SOL    HW221657   7.052   3.472   6.643 -0.7358  1.0642  0.2451
 6842SOL     OW21658   7.983   5.713   1.693 -0.1625 -0.1574  0.1879
 6842SOL    HW121659   8.070   5.684   1.666 -0.5526 -1.3917  0.1711
 6842SOL    HW221660   7.946   5.638   1.739 -2.0889 -0.5471 -1.8315
 6843SOL     OW21661   7.109   4.543   7.741 -0.4873  0.1051  0.1903
 6843SOL    HW121662   7.110   4.548   7.836 -1.2011  0.7731  0.1751
 6843SOL    HW221663   7.128   4.632   7.712  1.7209 -0.4736 -0.3369
 6844SOL     OW21664   0.897   7.295   2.663 -0.4515  0.6805 -0.5036
 6844SOL    HW121665   0.823   7.236   2.649 -2.3730  3.1476 -1.4726
 6844SOL    HW221666   0.866   7.357   2.729  2.1128 -0.2474  1.7500
 6845SOL     OW21667   7.938   5.891   4.652  1.3280  0.5460 -0.3385
 6845SOL    HW121668   7.883   5.842   4.713  1.0069  1.9879  0.5971
 6845SOL    HW221669   7.886   5.897   4.572  0.1103  1.7735  0.4871
 6846SOL     OW21670   2.137   3.850   4.159 -0.3916 -0.6383 -0.6413
 6846SOL    HW121671   2.063   3.790   4.149 -0.1299 -1.4508  1.6133
 6846SOL    HW221672   2.101   3.926   4.206  0.0599 -0.7902 -0.0284
 6847SOL     OW21673   5.079   3.192   5.194 -0.6198 -0.3742 -0.0515
 6847SOL    HW121674   5.074   3.200   5.099 -0.3525 -0.3676 -0.0679
 6847SOL    HW221675   5.082   3.098   5.211  1.1552 -0.3772 -0.1701
 6848SOL     OW21676   8.905   1.020   3.954  0.3678  0.3119  0.2879
 6848SOL    HW121677   8.865   0.934   3.969 -2.2991  1.7200  2.1025
 6848SOL    HW221678   8.966   1.031   4.026  1.5883 -0.4629 -0.5883
 6849SOL     OW21679   6.304   7.943   5.763  0.2999 -0.2059 -0.7861
 6849SOL    HW121680   6.235   7.966   5.826  0.5997  0.8371 -0.8176
 6849SOL    HW221681   6.348   8.026   5.745  1.0939 -0.7336 -1.3320
 6850SOL     OW21682   7.190   4.346   0.675  0.4506  0.2381  0.0753
 6850SOL    HW121683   7.211   4.360   0.767 -0.5488 -0.0751  0.3672
 6850SOL    HW221684   7.271   4.366   0.628  0.6616  1.4726  0.9235
 6851SOL     OW21685   0.610   7.587   8.844  0.8773  0.2542  0.2114
 6851SOL    HW121686   0.666   7.547   8.909  0.5576 -0.1833  0.2227
 6851SOL    HW221687   0.657   7.576   8.761  1.4197  1.0746  0.4068
 6852SOL     OW21688   5.331   8.211   5.257  0.1346  0.6906 -0.3034
 6852SOL    HW121689   5.385   8.144   5.298  0.2500  2.3899  2.6202
 6852SOL    HW221690   5.393   8.269   5.213  0.8203  2.3039  2.5430
 6853SOL     OW21691   4.591   6.145   5.017 -0.4522 -0.4595  0.3094
 6853SOL    HW121692   4.636   6.076   4.967  0.0910  0.1806 -0.1050
 6853SOL    HW221693   4.659   6.210   5.035 -1.1959  0.5125 -0.2973
 6854SOL     OW21694   2.449   3.712   6.857 -0.4606 -0.4110  0.4513
 6854SOL    HW121695   2.441   3.768   6.780  0.0402 -0.0311  0.6717
 6854SOL    HW221696   2.539   3.679   6.854  0.4333  1.5988  2.1815
 6855SOL     OW21697   4.940   8.299   4.250  0.3780 -0.1208  0.4861
 6855SOL    HW121698   4.928   8.332   4.339 -0.9453 -1.2382  0.7611
 6855SOL    HW221699   4.973   8.210   4.262  2.0178  0.3693 -0.1964
 6856SOL     OW21700   2.238   6.864   8.623 -0.5368 -0.2794 -0.2843
 6856SOL    HW121701   2.268   6.781   8.586 -1.1007 -0.2811 -0.7494
 6856SOL    HW221702   2.312   6.924   8.611 -0.4284 -0.4913 -0.6999
 6857SOL     OW21703   5.067   0.078   7.628  0.0782  0.1435  0.3929
 6857SOL    HW121704   5.062   0.171   7.646 -0.4842  1.0093 -3.3200
 6857SOL    HW221705   5.160   0.058   7.626  0.2478  0.9748 -0.1623
 6858SOL     OW21706   7.441   2.555   6.686 -0.0481  0.3303 -0.2578
 6858SOL    HW121707   7.449   2.547   6.591 -1.0711 -1.5351 -0.2228
 6858SOL    HW221708   7.347   2.560   6.702  0.0865 -0.0710  0.7029
 6859SOL     OW21709   1.818   4.486   5.258  0.3374 -0.2270 -0.1719
 6859SOL    HW121710   1.815   4.400   5.300  0.7053 -0.9442 -1.5574
 6859SOL    HW221711   1.783   4.546   5.324  1.6127 -1.1752  1.4644
 6860SOL     OW21712   6.313   1.947   8.170  0.1242  0.4622  0.7872
 6860SOL    HW121713   6.326   1.975   8.080 -1.0515  1.0891  0.7870
 6860SOL    HW221714   6.316   1.851   8.166 -0.6699  0.4599 -0.0579
 6861SOL     OW21715   4.609   3.608   6.530  0.1660 -0.2026  0.1275
 6861SOL    HW121716   4.550   3.615   6.455  1.2519  0.0003 -0.7317
 6861SOL    HW221717   4.558   3.560   6.595 -0.6626 -0.7583 -0.8828
 6862SOL     OW21718   5.290   7.049   2.956  0.0197 -0.1315 -0.4463
 6862SOL    HW121719   5.320   7.134   2.987  1.1506 -0.0014 -1.7579
 6862SOL    HW221720   5.363   6.990   2.976 -1.1170 -1.0091  1.2641
 6863SOL     OW21721   8.337   2.573   4.696 -0.1720 -0.2062 -0.0240
 6863SOL    HW121722   8.314   2.585   4.604  1.2622  1.1731 -0.2348
 6863SOL    HW221723   8.284   2.637   4.743 -1.1578 -1.1386  0.1901
 6864SOL     OW21724   2.010   7.102   1.372  0.3770 -0.0152  0.1695
 6864SOL    HW121725   1.980   7.017   1.340 -1.1821 -0.4930  2.7043
 6864SOL    HW221726   1.938   7.162   1.352  0.9352  0.4765 -0.4403
 6865SOL     OW21727   7.811   5.130   8.299 -0.0841 -0.6064  0.3842
 6865SOL    HW121728   7.899   5.108   8.267 -0.1309 -1.5655  0.9063
 6865SOL    HW221729   7.823   5.151   8.391 -0.4253 -0.9148  0.5025
 6866SOL     OW21730   7.239   1.285   8.859 -0.4695  0.4761  0.5753
 6866SOL    HW121731   7.187   1.265   8.936 -0.8331 -0.4764  0.0949
 6866SOL    HW221732   7.241   1.203   8.809 -1.7250  1.4965 -1.2909
 6867SOL     OW21733   1.744   2.811   2.566 -0.9649  0.1180 -0.3366
 6867SOL    HW121734   1.659   2.775   2.590  0.2244 -2.0476  0.8956
 6867SOL    HW221735   1.770   2.761   2.488  0.7585 -1.9485  1.4651
 6868SOL     OW21736   6.967   2.287   2.390 -0.2226 -0.4417  0.4524
 6868SOL    HW121737   6.880   2.309   2.358  0.2267  1.6762  0.5721
 6868SOL    HW221738   7.027   2.316   2.321  0.5439  0.9961  1.6735
 6869SOL     OW21739   8.643   3.995   2.824 -0.4954  0.3584 -0.7545
 6869SOL    HW121740   8.636   4.018   2.731 -1.0513  0.7967 -0.6126
 6869SOL    HW221741   8.563   3.946   2.842 -0.2045 -0.0622 -0.5987
 6870SOL     OW21742   4.771   4.747   7.526  0.5537 -0.7417  0.4175
 6870SOL    HW121743   4.696   4.805   7.515  1.1839  0.0221  0.0410
 6870SOL    HW221744   4.746   4.666   7.481 -0.0840 -0.5304  0.3896
 6871SOL     OW21745   6.278   5.479   0.243 -0.2856  0.3624 -0.0813
 6871SOL    HW121746   6.220   5.550   0.270 -1.6154 -0.6013 -0.2974
 6871SOL    HW221747   6.250   5.404   0.295 -0.7049 -0.6737 -1.7093
 6872SOL     OW21748   4.784   0.215   1.062 -0.1378 -0.5407 -0.5664
 6872SOL    HW121749   4.797   0.122   1.081 -0.1990 -0.7120 -1.3567
 6872SOL    HW221750   4.776   0.220   0.967 -0.0414  0.2883 -0.5396
 6873SOL     OW21751   6.593   4.686   9.002  0.2851 -0.1872  0.0805
 6873SOL    HW121752   6.536   4.715   8.930 -0.2555  2.1090  1.3357
 6873SOL    HW221753   6.650   4.621   8.962 -0.2671  0.6877 -2.3407
 6874SOL     OW21754   1.651   1.637   5.738  0.2815 -0.0424 -0.4023
 6874SOL    HW121755   1.660   1.613   5.646  3.0537  2.3315 -0.9069
 6874SOL    HW221756   1.739   1.624   5.774 -0.2956  0.8301  1.4277
 6875SOL     OW21757   4.530   0.866   2.989 -0.1697  0.5487 -0.8227
 6875SOL    HW121758   4.492   0.851   2.902  0.0131 -2.9290 -0.4310
 6875SOL    HW221759   4.572   0.783   3.011  2.1175  2.1885  1.5001
 6876SOL     OW21760   2.457   3.451   0.013  0.4197 -0.0333  0.5372
 6876SOL    HW121761   2.366   3.428  -0.007  0.2851 -0.6770  1.7543
 6876SOL    HW221762   2.500   3.453  -0.072 -0.3388 -1.5332  0.0727
 6877SOL     OW21763   7.963   3.996   8.524  0.0680 -0.5179  0.3520
 6877SOL    HW121764   7.879   3.968   8.488 -0.3778  0.7827  0.3575
 6877SOL    HW221765   7.977   3.939   8.600 -1.4054  0.0503  1.0772
 6878SOL     OW21766   5.142   2.770   3.118  0.6144  0.1792 -0.3106
 6878SOL    HW121767   5.127   2.825   3.041 -0.5765  0.7576  0.3149
 6878SOL    HW221768   5.224   2.804   3.155  1.1571 -0.0559 -1.2627
 6879SOL     OW21769   6.284   3.705   2.988  0.1578  0.0480  0.0126
 6879SOL    HW121770   6.249   3.664   3.067  2.5612 -0.5239  0.8705
 6879SOL    HW221771   6.343   3.772   3.020  0.0290  0.8473 -1.3441
 6880SOL     OW21772   4.808   4.224   3.340 -0.1701  0.8203 -0.2534
 6880SOL    HW121773   4.733   4.194   3.390 -0.9881  2.1383 -0.6489
 6880SOL    HW221774   4.771   4.257   3.258  1.0456 -0.4805 -1.4107
 6881SOL     OW21775   1.396   8.432   0.217  0.1682 -0.7342  0.0941
 6881SOL    HW121776   1.349   8.516   0.216  0.1484 -0.7106  1.3353
 6881SOL    HW221777   1.415   8.417   0.309  3.4372 -0.2816 -0.3894
 6882SOL     OW21778   1.769   7.529   5.529  0.2077 -0.6009 -0.3587
 6882SOL    HW121779   1.782   7.540   5.623 -1.2232 -0.8177 -0.1074
 6882SOL    HW221780   1.685   7.571   5.512  0.9733  0.4243 -1.7606
 6883SOL     OW21781   3.628   2.878   7.652  0.7337  0.1603 -0.0999
 6883SOL    HW121782   3.580   2.936   7.594  2.5244  1.7195 -0.1386
 6883SOL    HW221783   3.569   2.804   7.667 -0.0000 -0.1295 -3.5102
 6884SOL     OW21784   1.798   8.677   2.864  0.0105 -0.5553  0.1376
 6884SOL    HW121785   1.742   8.721   2.927  2.9555  0.3657  2.3576
 6884SOL    HW221786   1.799   8.735   2.788 -0.2777  0.5350  0.9445
 6885SOL     OW21787   0.997   8.222   8.001 -0.0140  0.5755 -0.3174
 6885SOL    HW121788   1.082   8.257   7.977  0.0554 -0.1652 -1.2210
 6885SOL    HW221789   0.959   8.193   7.918 -1.3183  1.2572  0.0228
 6886SOL     OW21790   7.773   8.028   8.678  0.3930 -0.5999  0.0922
 6886SOL    HW121791   7.852   7.977   8.697  0.8671  0.4304  0.9664
 6886SOL    HW221792   7.710   8.001   8.746  0.2912 -0.7795 -0.0734
 6887SOL     OW21793   1.453   4.669   8.705 -0.3733 -0.2077  0.6136
 6887SOL    HW121794   1.432   4.691   8.796 -0.4986 -0.1122  0.5614
 6887SOL    HW221795   1.535   4.716   8.688 -0.5455  0.0773  0.5596
 6888SOL     OW21796   3.785   5.808   5.532 -0.8362  0.1852 -0.2603
 6888SOL    HW121797   3.772   5.713   5.543  2.1605 -0.3463 -0.5111
 6888SOL    HW221798   3.796   5.819   5.438 -1.4941  0.8667 -0.2638
 6889SOL     OW21799   1.146   1.394   4.194 -0.4549 -0.1789  0.4155
 6889SOL    HW121800   1.140   1.361   4.105  0.9868 -0.2221  0.3079
 6889SOL    HW221801   1.139   1.489   4.185  0.4671 -0.1291  0.1591
 6890SOL     OW21802   8.616   3.751   4.919  0.5817 -0.2998 -0.2048
 6890SOL    HW121803   8.671   3.678   4.891  1.1000 -0.4960  1.2190
 6890SOL    HW221804   8.570   3.718   4.996 -0.3818  0.3739 -0.4722
 6891SOL     OW21805   6.600   0.776   4.164 -0.1706 -0.0709  0.2837
 6891SOL    HW121806   6.616   0.846   4.228 -1.7106  0.4548  0.1208
 6891SOL    HW221807   6.574   0.701   4.218 -0.9784  0.2283  0.3289
 6892SOL     OW21808   2.045   2.567   8.165 -0.1267 -0.3878 -0.0110
 6892SOL    HW121809   1.989   2.490   8.167 -0.8656  0.1480  0.3168
 6892SOL    HW221810   2.132   2.533   8.144 -0.1098 -1.5292  1.7122
 6893SOL     OW21811   6.212   6.092   4.015  0.8124  0.1165 -0.0897
 6893SOL    HW121812   6.288   6.122   4.065  1.4352 -1.3815 -0.0912
 6893SOL    HW221813   6.205   5.999   4.036 -0.4237  0.0127 -0.8727
 6894SOL     OW21814   5.091   3.823   1.094 -0.0679 -0.1813  0.2566
 6894SOL    HW121815   5.003   3.792   1.071 -0.2175  0.6472 -0.3512
 6894SOL    HW221816   5.147   3.747   1.084 -0.2657 -0.0719 -2.1101
 6895SOL     OW21817   4.607   1.090   0.519 -0.0336  0.3038  0.2879
 6895SOL    HW121818   4.556   1.061   0.443 -1.0575  2.9853 -0.1655
 6895SOL    HW221819   4.543   1.133   0.575  1.3748  1.9833  0.6844
 6896SOL     OW21820   2.748   6.100   7.919 -0.1902 -0.8411  0.2740
 6896SOL    HW121821   2.784   6.053   7.844 -0.5262  2.7240 -2.3807
 6896SOL    HW221822   2.814   6.166   7.940 -1.2220 -0.1361  1.4495
 6897SOL     OW21823   5.836   6.236   7.979  0.9167 -0.0963 -0.2596
 6897SOL    HW121824   5.777   6.165   8.004  0.4466  0.4334  0.1549
 6897SOL    HW221825   5.902   6.194   7.923  0.7115 -0.8783  0.0729
 6898SOL     OW21826   8.560   4.336   8.078  0.1103  0.0289 -0.0037
 6898SOL    HW121827   8.603   4.421   8.085  0.0907 -0.0875  1.8689
 6898SOL    HW221828   8.467   4.355   8.090 -0.2331  0.0234 -2.1300
 6899SOL     OW21829   8.598   5.514   4.808  0.1809 -0.1741  0.2561
 6899SOL    HW121830   8.649   5.444   4.847  0.5800 -0.1301 -0.1749
 6899SOL    HW221831   8.510   5.477   4.798  0.4312 -0.6815 -0.1291
 6900SOL     OW21832   7.994   8.675   2.726 -0.3922  0.0650  0.0765
 6900SOL    HW121833   8.010   8.604   2.664  1.0471  0.4763 -0.0473
 6900SOL    HW221834   8.005   8.755   2.675  1.1337  0.4186  0.9064
 6901SOL     OW21835   4.548   5.857   8.185  0.1671  0.8406  0.4001
 6901SOL    HW121836   4.577   5.898   8.104 -0.5512 -0.8170 -0.7477
 6901SOL    HW221837   4.453   5.851   8.177  0.2354 -1.0076  0.5055
 6902SOL     OW21838   8.146   7.668   6.404 -0.2465 -0.1278 -0.3562
 6902SOL    HW121839   8.109   7.754   6.383 -0.9513 -0.6871 -1.4667
 6902SOL    HW221840   8.175   7.677   6.495  0.2788  1.4792 -0.6442
 6903SOL     OW21841   3.021   1.615   8.956  0.3596 -0.1800  0.0738
 6903SOL    HW121842   3.011   1.710   8.964 -1.8687 -0.3901  0.3515
 6903SOL    HW221843   3.053   1.602   8.866 -1.0667  0.7656 -0.6102
 6904SOL     OW21844   0.729   1.674   1.272 -0.3483  0.0850 -0.0765
 6904SOL    HW121845   0.713   1.584   1.301 -0.4924  0.4678  1.0898
 6904SOL    HW221846   0.718   1.670   1.177  1.2290 -1.4594 -0.2488
 6905SOL     OW21847   1.377   1.333   0.012 -0.3486  0.6096 -0.4169
 6905SOL    HW121848   1.376   1.238   0.007  0.4475  0.5881 -0.2882
 6905SOL    HW221849   1.286   1.359  -0.002 -0.8388 -0.2348  0.9709
 6906SOL     OW21850   1.785   0.432   3.234  0.3357  0.2293  0.6999
 6906SOL    HW121851   1.730   0.427   3.313  0.3038 -0.1345  0.6590
 6906SOL    HW221852   1.722   0.438   3.162  0.2973 -1.3862  0.5626
 6907SOL     OW21853   4.357   1.572   3.499  0.0759 -0.0802 -0.2937
 6907SOL    HW121854   4.300   1.500   3.525  1.0561 -0.1013  1.9859
 6907SOL    HW221855   4.308   1.651   3.520 -0.1101 -0.0762 -0.7269
 6908SOL     OW21856   4.893   5.614   5.223  0.0924  0.3689  0.0717
 6908SOL    HW121857   4.901   5.705   5.250 -0.8555 -0.4948  3.7398
 6908SOL    HW221858   4.833   5.617   5.149  1.9868  2.8626 -1.5491
 6909SOL     OW21859   6.832   0.414   1.240 -0.2749  0.1579  0.4910
 6909SOL    HW121860   6.835   0.505   1.209 -0.3239  0.1077  0.3413
 6909SOL    HW221861   6.845   0.421   1.335 -2.7635  0.5305  0.8644
 6910SOL     OW21862   1.251   5.361   3.721 -0.0927 -0.1199  0.0138
 6910SOL    HW121863   1.283   5.285   3.671  1.4836  0.8010 -0.4449
 6910SOL    HW221864   1.223   5.323   3.805  2.1538 -1.0682  0.4214
 6911SOL     OW21865   4.055   4.457   1.041  0.3650  0.4264  0.0699
 6911SOL    HW121866   4.059   4.463   1.136 -1.1641 -1.0643  0.2800
 6911SOL    HW221867   4.072   4.365   1.021 -0.7392  0.4124 -0.9636
 6912SOL     OW21868   7.734   3.579   7.854  0.3357 -0.0726  0.0385
 6912SOL    HW121869   7.783   3.661   7.850 -0.5646  0.5078  0.6272
 6912SOL    HW221870   7.652   3.601   7.899 -0.9854 -0.7451 -1.8722
 6913SOL     OW21871   0.419   0.745   2.993 -0.0113  0.1589  0.1756
 6913SOL    HW121872   0.488   0.683   2.968  0.0273  0.3132 -0.0999
 6913SOL    HW221873   0.423   0.813   2.926  0.3616  0.7876  0.8283
 6914SOL     OW21874   3.013   4.061   3.558 -0.0434 -0.2057 -0.2779
 6914SOL    HW121875   3.062   4.090   3.635  0.3773 -1.3074 -0.1165
 6914SOL    HW221876   3.068   3.994   3.518 -1.2551 -1.2578 -0.2692
 6915SOL     OW21877   4.601   9.086   1.773  0.0158 -0.1508  0.0290
 6915SOL    HW121878   4.653   9.142   1.715  0.0693  0.6132  0.7990
 6915SOL    HW221879   4.510   9.100   1.746 -0.0650  1.1286  0.8938
 6916SOL     OW21880   0.313   6.676   3.128  0.3234  0.2316  0.2882
 6916SOL    HW121881   0.310   6.587   3.091  0.4576  0.5226 -0.4527
 6916SOL    HW221882   0.406   6.697   3.133  0.2978  0.2657  0.6257
 6917SOL     OW21883   1.602   6.665   2.517  0.1311  0.3327 -0.4696
 6917SOL    HW121884   1.677   6.695   2.467 -0.5185  1.6614 -0.6772
 6917SOL    HW221885   1.599   6.570   2.501  0.4103  0.5955 -2.2892
 6918SOL     OW21886   5.957   5.227   1.619 -0.9040 -0.2202 -0.7188
 6918SOL    HW121887   6.008   5.193   1.545  0.5768  0.5795 -0.0864
 6918SOL    HW221888   5.900   5.293   1.579 -0.5361 -0.1993 -1.2216
 6919SOL     OW21889   8.624   5.588   0.275  0.6798  0.0421  0.6394
 6919SOL    HW121890   8.689   5.533   0.318 -0.2274 -2.0310 -0.4796
 6919SOL    HW221891   8.540   5.556   0.309  0.1070  0.4274 -0.3713
 6920SOL     OW21892   4.321   5.187   7.775  0.2141 -0.1509  0.4579
 6920SOL    HW121893   4.375   5.186   7.854 -0.2844 -0.1881  0.8011
 6920SOL    HW221894   4.231   5.191   7.807  0.0431  1.3286 -0.1326
 6921SOL     OW21895   6.340   0.312   6.756 -0.2589 -0.7236 -0.1055
 6921SOL    HW121896   6.253   0.285   6.726 -0.9044  1.7885 -0.8209
 6921SOL    HW221897   6.326   0.346   6.844  0.3122 -1.7129  0.3783
 6922SOL     OW21898   8.256   8.735   2.203  0.1537  0.4702  0.3315
 6922SOL    HW121899   8.183   8.681   2.234  2.7884 -2.9451  1.2440
 6922SOL    HW221900   8.319   8.672   2.167  2.8828  3.1202  0.0409
 6923SOL     OW21901   4.322   6.370   1.270 -0.1986  0.2873 -0.7092
 6923SOL    HW121902   4.318   6.277   1.290 -0.7166  0.8105  1.9214
 6923SOL    HW221903   4.282   6.413   1.345 -0.4173  2.6377 -2.0590
 6924SOL     OW21904   0.952   8.781   0.872  0.0088 -0.4504  0.5425
 6924SOL    HW121905   0.918   8.819   0.953  1.1437  0.0801  0.7847
 6924SOL    HW221906   1.031   8.735   0.899 -0.1336 -1.1010 -0.1183
 6925SOL     OW21907   7.294   3.437   8.038  0.3361 -0.1156 -0.2236
 6925SOL    HW121908   7.351   3.360   8.041 -0.0034 -0.3529  0.7373
 6925SOL    HW221909   7.273   3.448   7.946  4.0148  1.5775 -1.0248
 6926SOL     OW21910   7.812   0.842   5.867 -0.1044 -0.0363 -0.0848
 6926SOL    HW121911   7.885   0.800   5.913  0.9948  0.2218 -1.5214
 6926SOL    HW221912   7.785   0.914   5.924 -0.8489 -1.5737  1.5839
 6927SOL     OW21913   0.349   2.251   1.122  0.1429 -0.4551  0.0592
 6927SOL    HW121914   0.299   2.333   1.129 -1.6942 -1.2816 -2.0239
 6927SOL    HW221915   0.367   2.226   1.212  0.2765  1.9287  0.7715
 6928SOL     OW21916   1.142   1.481   4.724 -0.1864 -0.0246 -0.4155
 6928SOL    HW121917   1.073   1.547   4.717 -1.9664 -1.5270  1.5824
 6928SOL    HW221918   1.177   1.494   4.812  0.3855 -0.8715 -0.5119
 6929SOL     OW21919   6.088   2.161   0.851  0.6338  0.0376  0.4605
 6929SOL    HW121920   6.082   2.151   0.946  2.1731  1.4869  0.7463
 6929SOL    HW221921   6.052   2.247   0.833  2.9442  1.0065  0.1221
 6930SOL     OW21922   6.087   6.632   3.954  0.0121  0.3095  0.5440
 6930SOL    HW121923   6.122   6.642   3.865 -0.6638  1.8873  0.4115
 6930SOL    HW221924   6.130   6.555   3.988 -0.7226 -1.1765 -1.6388
 6931SOL     OW21925   8.433   7.577   8.508 -0.7017  0.2221  0.1454
 6931SOL    HW121926   8.352   7.587   8.558 -1.3260 -3.1875  0.0460
 6931SOL    HW221927   8.491   7.528   8.565  0.6124  0.9556 -0.5149
 6932SOL     OW21928   4.792   0.255   2.808  0.0400 -0.6423 -0.2013
 6932SOL    HW121929   4.718   0.258   2.869  0.2492  0.6214  0.0171
 6932SOL    HW221930   4.868   0.240   2.864  0.2158  0.3886 -0.1351
 6933SOL     OW21931   6.433   7.534   7.196  0.2701  0.3086 -0.1421
 6933SOL    HW121932   6.491   7.554   7.123  0.8951 -2.2138 -0.4360
 6933SOL    HW221933   6.490   7.494   7.262 -0.7346 -0.0671  0.5342
 6934SOL     OW21934   0.480   5.540   6.469  0.1900  0.0774  0.3600
 6934SOL    HW121935   0.417   5.563   6.537 -0.0970  0.3464  0.0074
 6934SOL    HW221936   0.555   5.598   6.484 -0.5429  1.3082 -0.5430
 6935SOL     OW21937   7.690   0.827   2.069  0.5152  0.3634  0.1160
 6935SOL    HW121938   7.649   0.741   2.056  3.0602 -1.1966  1.6187
 6935SOL    HW221939   7.678   0.845   2.162  1.0492  1.0692  0.0539
 6936SOL     OW21940   8.593   0.493   5.665  0.4762 -0.2805  0.1623
 6936SOL    HW121941   8.563   0.506   5.756  0.0191 -1.7269  0.2481
 6936SOL    HW221942   8.656   0.421   5.671 -0.4194 -1.1764 -0.8023
 6937SOL     OW21943   7.167   6.192   7.418 -0.2536  0.1222 -0.1198
 6937SOL    HW121944   7.205   6.110   7.448  0.6006  0.1428 -1.0838
 6937SOL    HW221945   7.078   6.192   7.453  0.4894 -0.0920  1.8977
 6938SOL     OW21946   6.298   1.761   6.556 -0.3781 -0.1614 -0.4945
 6938SOL    HW121947   6.372   1.817   6.534  0.7942 -1.3094  0.3409
 6938SOL    HW221948   6.320   1.676   6.517 -1.7931 -0.2436 -1.1639
 6939SOL     OW21949   9.051   6.621   4.295 -0.1968  0.1511  0.3569
 6939SOL    HW121950   9.066   6.549   4.234  0.4476 -1.0136  1.8572
 6939SOL    HW221951   8.961   6.649   4.276 -0.3806 -0.8812 -0.3941
 6940SOL     OW21952   1.209   6.011   8.367 -0.0539  0.4569  0.4727
 6940SOL    HW121953   1.150   6.047   8.300  0.7360  0.9485  0.0225
 6940SOL    HW221954   1.222   5.920   8.340 -0.6707  0.3137  0.6317
 6941SOL     OW21955   6.848   3.973   1.702 -0.3057  0.0330  0.4917
 6941SOL    HW121956   6.796   3.914   1.647  0.6061 -0.2035 -0.1367
 6941SOL    HW221957   6.785   4.008   1.765 -0.9292 -1.3375  0.6679
 6942SOL     OW21958   4.051   7.434   5.344 -0.1850  0.0722 -0.2598
 6942SOL    HW121959   4.011   7.417   5.259 -2.3635 -0.1078  0.7417
 6942SOL    HW221960   4.045   7.529   5.355  0.9905  0.2150 -0.6893
 6943SOL     OW21961   3.928   0.314   4.880 -0.4694  0.3208  0.3134
 6943SOL    HW121962   3.848   0.362   4.859 -0.5255  0.6686  1.2781
 6943SOL    HW221963   3.897   0.229   4.913 -0.3865 -0.1691 -0.8336
 6944SOL     OW21964   5.675   4.771   7.752 -0.5304  0.3539  0.1884
 6944SOL    HW121965   5.664   4.835   7.681  1.3822 -1.1971 -1.6140
 6944SOL    HW221966   5.769   4.761   7.762 -0.7673 -1.7572  0.7952
 6945SOL     OW21967   7.954   5.686   2.206 -0.1693 -0.3048  0.3982
 6945SOL    HW121968   7.899   5.625   2.157  0.8604  0.0223 -1.2273
 6945SOL    HW221969   8.026   5.707   2.148  0.1663  1.5210  1.3633
 6946SOL     OW21970   5.178   0.138   5.146  0.2836 -0.2038 -0.3410
 6946SOL    HW121971   5.152   0.074   5.080 -0.1825 -2.0326  1.5093
 6946SOL    HW221972   5.097   0.186   5.165  0.6712  1.1488 -1.8541
 6947SOL     OW21973   8.231   4.497   7.877  0.2895 -0.0293  0.0346
 6947SOL    HW121974   8.165   4.523   7.813 -0.9570 -1.3804  0.7345
 6947SOL    HW221975   8.284   4.576   7.889 -0.2657  0.6497 -1.6290
 6948SOL     OW21976   0.840   1.403   8.214  0.5544 -0.2186 -0.1378
 6948SOL    HW121977   0.809   1.394   8.304 -0.6186 -1.0062 -0.6006
 6948SOL    HW221978   0.903   1.475   8.217 -0.7250  0.8951  0.9953
 6949SOL     OW21979   2.587   2.905   2.609 -0.0728 -0.0753  0.4350
 6949SOL    HW121980   2.501   2.877   2.640  0.2243  0.3731  1.7180
 6949SOL    HW221981   2.569   2.978   2.550 -0.5591  0.1058  0.8051
 6950SOL     OW21982   0.298   6.497   3.390 -0.2382  0.0099  0.5255
 6950SOL    HW121983   0.219   6.462   3.349 -0.8393 -0.9890  2.4095
 6950SOL    HW221984   0.367   6.487   3.324 -0.6141 -3.7765  0.5349
 6951SOL     OW21985   0.128   8.189   1.193  0.0673  0.0823 -0.2354
 6951SOL    HW121986   0.077   8.268   1.175  0.6268  0.6921  0.7957
 6951SOL    HW221987   0.216   8.209   1.161  0.6557  0.5604  1.5500
 6952SOL     OW21988   8.278   4.474   3.362  0.3482  0.6423 -0.4819
 6952SOL    HW121989   8.350   4.411   3.369 -1.3413 -1.3461  0.2068
 6952SOL    HW221990   8.263   4.503   3.452 -0.6199 -0.0954 -0.3883
 6953SOL     OW21991   3.353   2.065   5.370 -0.4122  0.1666 -0.0490
 6953SOL    HW121992   3.285   2.132   5.379 -0.9330 -0.3298 -0.1982
 6953SOL    HW221993   3.334   2.002   5.439  1.8309  1.6057  2.0474
 6954SOL     OW21994   3.666   5.600   5.995  0.0419  0.4121  0.0631
 6954SOL    HW121995   3.591   5.653   6.022 -0.9177 -1.6573  1.7767
 6954SOL    HW221996   3.637   5.557   5.915 -1.5597 -1.9679  1.7727
 6955SOL     OW21997   7.546   0.156   1.901 -0.5151  0.3051  0.1907
 6955SOL    HW121998   7.483   0.221   1.868 -0.9763 -0.4642 -0.4854
 6955SOL    HW221999   7.521   0.075   1.857  1.2252  0.0621 -0.4162
 6956SOL     OW22000   6.923   4.245   8.395  0.6606 -0.6323 -0.2730
 6956SOL    HW122001   6.949   4.184   8.326 -0.1972  0.0135 -1.1924
 6956SOL    HW222002   6.828   4.231   8.404  0.3905  0.8007 -0.7474
 6957SOL     OW22003   4.763   8.475   8.896  0.2926  0.2287 -0.4635
 6957SOL    HW122004   4.824   8.401   8.893  0.6197  0.5012 -3.2962
 6957SOL    HW222005   4.815   8.547   8.932  0.9565 -0.1208 -0.7062
 6958SOL     OW22006   3.494   4.039   6.088 -0.0234 -0.5956 -0.7780
 6958SOL    HW122007   3.495   4.128   6.054  0.0820 -0.7664 -1.2228
 6958SOL    HW222008   3.564   4.038   6.154 -1.4957  0.2810  0.8719
 6959SOL     OW22009   8.761   1.306   0.402  0.1936 -0.0551  0.6556
 6959SOL    HW122010   8.798   1.380   0.449 -0.2014  0.3226  0.3735
 6959SOL    HW222011   8.824   1.235   0.416  2.2699  1.1515 -1.6469
 6960SOL     OW22012   5.951   2.847   4.243 -0.6452 -0.5555 -0.0041
 6960SOL    HW122013   5.859   2.873   4.231 -0.1969  0.7226 -0.8936
 6960SOL    HW222014   5.988   2.914   4.300 -0.0451 -0.5444 -0.3947
 6961SOL     OW22015   7.456   4.788   7.831 -0.1725  0.0456  0.4707
 6961SOL    HW122016   7.457   4.752   7.920 -0.9905 -0.9742  0.0904
 6961SOL    HW222017   7.425   4.716   7.777  0.8151  0.4937 -0.7331
 6962SOL     OW22018   0.905   8.577   9.079  0.0243 -0.4378  0.6672
 6962SOL    HW122019   0.831   8.577   9.140 -0.4790  1.2841  0.1195
 6962SOL    HW222020   0.965   8.511   9.114 -0.7937 -0.3561  2.3353
 6963SOL     OW22021   2.780   5.032   2.176 -0.3329  0.2599 -0.3479
 6963SOL    HW122022   2.772   5.108   2.233 -0.9927  1.7656 -2.3264
 6963SOL    HW222023   2.875   5.017   2.169 -0.1869  1.0190 -0.0666
 6964SOL     OW22024   8.960   6.571   3.848 -0.6412  0.3443  0.5488
 6964SOL    HW122025   9.014   6.515   3.793 -1.7906  0.2159 -0.4837
 6964SOL    HW222026   8.872   6.532   3.845 -1.4293  2.0579 -0.0307
 6965SOL     OW22027   3.848   7.490   6.098  0.1560  0.1025 -0.1643
 6965SOL    HW122028   3.867   7.415   6.154  0.8350  0.8573  0.6577
 6965SOL    HW222029   3.930   7.506   6.050  0.5591  1.2918  0.8703
 6966SOL     OW22030   3.668   3.555   8.763  0.7115 -0.6431 -0.2687
 6966SOL    HW122031   3.585   3.510   8.775 -0.1256  1.2798  1.7591
 6966SOL    HW222032   3.657   3.607   8.684 -0.1201 -0.1949  0.1384
 6967SOL     OW22033   4.888   7.365   4.124 -0.2469  0.1219 -0.6658
 6967SOL    HW122034   4.852   7.284   4.089  1.1752 -0.4956 -0.7680
 6967SOL    HW222035   4.915   7.343   4.213  2.6954 -0.3744 -1.5794
 6968SOL     OW22036   0.857   5.625   2.588 -0.2713 -0.2605  0.2198
 6968SOL    HW122037   0.827   5.535   2.601  2.6804 -1.4325 -0.2999
 6968SOL    HW222038   0.946   5.626   2.625  0.6367  1.8052 -1.7767
 6969SOL     OW22039   0.487   7.634   4.600  0.0443  0.5398  0.1373
 6969SOL    HW122040   0.422   7.564   4.609  0.0188  0.6055  0.4669
 6969SOL    HW222041   0.564   7.601   4.647  1.0990 -0.5677 -2.2054
 6970SOL     OW22042   1.672   1.791   8.841 -0.9075  0.5128 -0.1463
 6970SOL    HW122043   1.740   1.838   8.890  0.4851 -0.6566 -0.8623
 6970SOL    HW222044   1.675   1.830   8.753  0.5370 -1.0722 -0.8646
 6971SOL     OW22045   1.660   6.529   6.555 -0.4980 -0.4332 -0.2400
 6971SOL    HW122046   1.754   6.544   6.541  0.0483 -2.8294  0.3373
 6971SOL    HW222047   1.641   6.573   6.638 -0.1646  1.0090 -0.9145
 6972SOL     OW22048   5.019   0.114   7.297  0.3218  0.3414  0.3706
 6972SOL    HW122049   5.072   0.056   7.351 -0.9387 -0.0725  1.2098
 6972SOL    HW222050   5.077   0.139   7.224  0.5767 -2.7993 -0.6291
 6973SOL     OW22051   0.713   2.041   5.525 -0.7016  0.3640 -0.2630
 6973SOL    HW122052   0.700   1.989   5.446  0.6309  0.9520 -0.8977
 6973SOL    HW222053   0.662   2.120   5.511 -1.5842 -0.1276  0.0874
 6974SOL     OW22054   8.569   0.618   7.192 -0.0668  0.2803 -0.6060
 6974SOL    HW122055   8.566   0.667   7.111 -1.0839  2.5105  0.6877
 6974SOL    HW222056   8.632   0.665   7.246 -0.9949  0.1492  0.6472
 6975SOL     OW22057   6.332   4.647   1.554 -0.1923  0.0641 -0.4951
 6975SOL    HW122058   6.313   4.676   1.643  0.4403  0.6506 -0.5416
 6975SOL    HW222059   6.326   4.727   1.501 -1.5044 -0.4325 -1.1449
 6976SOL     OW22060   3.751   0.410   8.509  0.1085 -0.3353 -0.2670
 6976SOL    HW122061   3.843   0.413   8.537  0.2100 -2.2885 -0.2862
 6976SOL    HW222062   3.701   0.407   8.590  0.0188  0.8704 -0.2530
 6977SOL     OW22063   8.913   4.550   8.723  0.1217  0.2875 -0.2202
 6977SOL    HW122064   9.004   4.524   8.734  0.2515  1.0296  0.5157
 6977SOL    HW222065   8.890   4.595   8.804 -0.4706  1.3423 -0.9453
 6978SOL     OW22066   6.601   6.338   4.939 -0.0738 -0.6123  0.3102
 6978SOL    HW122067   6.564   6.263   4.893  0.9834 -0.3826 -0.9848
 6978SOL    HW222068   6.694   6.317   4.950  0.1421  0.2955  0.3370
 6979SOL     OW22069   5.199   5.129   2.749 -0.7831 -0.3358  0.3881
 6979SOL    HW122070   5.138   5.201   2.764 -1.3404 -0.5954 -0.5539
 6979SOL    HW222071   5.204   5.084   2.833 -2.6206 -0.8572  0.2619
 6980SOL     OW22072   3.650   8.468   6.251  0.7575  0.1476  0.6518
 6980SOL    HW122073   3.736   8.505   6.273  1.7198 -0.2143 -2.0794
 6980SOL    HW222074   3.606   8.538   6.203 -0.7620  0.5103  2.4682
 6981SOL     OW22075   0.123   3.918   6.011  0.2417  0.0141 -0.0260
 6981SOL    HW122076   0.131   3.950   6.101 -0.6671  0.2894 -0.0277
 6981SOL    HW222077   0.091   3.994   5.962  1.0807 -0.0298 -0.6622
 6982SOL     OW22078   1.388   5.413   8.726 -0.2103  0.4280 -0.1465
 6982SOL    HW122079   1.466   5.357   8.726  1.2180  2.3213  0.2375
 6982SOL    HW222080   1.348   5.398   8.640  0.6522 -0.4641 -0.4174
 6983SOL     OW22081   7.687   5.503   6.058 -0.3475 -0.2149  0.0868
 6983SOL    HW122082   7.766   5.550   6.085 -0.6405  0.6842 -0.5586
 6983SOL    HW222083   7.719   5.418   6.028  0.4963  0.4583 -1.0114
 6984SOL     OW22084   6.424   0.434   7.762  0.4514  0.4090 -0.4929
 6984SOL    HW122085   6.514   0.403   7.761  0.2192 -0.4855  1.1433
 6984SOL    HW222086   6.377   0.374   7.703  1.2492  2.2878 -3.2216
 6985SOL     OW22087   4.020   7.633   1.381  0.1431 -0.3235 -0.1897
 6985SOL    HW122088   3.964   7.689   1.329 -0.4828  1.2188  1.9790
 6985SOL    HW222089   3.979   7.547   1.378  0.4720 -0.4640 -2.6254
 6986SOL     OW22090   2.077   4.905   6.135  0.6580  0.1309  0.0522
 6986SOL    HW122091   2.063   4.865   6.050  0.6520 -0.7096  0.4385
 6986SOL    HW222092   2.102   4.995   6.116 -1.0026  0.4581 -0.8050
 6987SOL     OW22093   6.115   5.847   4.055  0.2138  0.2826  0.5129
 6987SOL    HW122094   6.095   5.818   3.966 -0.7980 -0.4412  0.9509
 6987SOL    HW222095   6.082   5.777   4.110  1.2765  0.4911  1.4522
 6988SOL     OW22096   3.743   9.058   2.970 -0.5520 -0.1107  0.3678
 6988SOL    HW122097   3.678   9.109   3.019 -1.0915 -2.2110  1.9575
 6988SOL    HW222098   3.818   9.051   3.029 -0.6907 -1.5443  0.4136
 6989SOL     OW22099   8.774   1.697   5.593  0.1794 -0.3716 -0.6922
 6989SOL    HW122100   8.718   1.767   5.626  1.4178 -0.2984  1.4614
 6989SOL    HW222101   8.721   1.652   5.528 -2.6124 -0.6427  1.5821
 6990SOL     OW22102   4.315   9.054   6.645 -0.8016  0.6883  0.7892
 6990SOL    HW122103   4.231   9.089   6.616 -1.0922  0.3826  1.2362
 6990SOL    HW222104   4.300   9.029   6.737 -0.5335 -0.3365  0.5703
 6991SOL     OW22105   8.360   6.672   2.118 -0.7330  0.3998  0.5159
 6991SOL    HW122106   8.361   6.763   2.149 -0.9354  1.0656 -1.2726
 6991SOL    HW222107   8.448   6.659   2.082 -0.7898 -0.0223  0.5292
 6992SOL     OW22108   0.547   5.597   8.476 -0.6322  0.4364 -0.4568
 6992SOL    HW122109   0.601   5.676   8.470 -1.2024  0.7215 -3.6404
 6992SOL    HW222110   0.460   5.628   8.500  0.0490  0.1301  3.0814
 6993SOL     OW22111   1.626   5.918   4.877 -0.3071 -0.3890 -0.2793
 6993SOL    HW122112   1.593   5.828   4.868 -2.7588  0.4451 -0.3776
 6993SOL    HW222113   1.693   5.925   4.809  0.9507 -2.5100  0.6124
 6994SOL     OW22114   3.054   0.168   6.623 -0.1086 -0.3479 -0.0911
 6994SOL    HW122115   3.061   0.100   6.556 -0.2643 -3.2481  2.6000
 6994SOL    HW222116   2.963   0.164   6.653  0.1454  0.3452  0.8313
 6995SOL     OW22117   5.880   8.793   2.404  0.4661  0.2829  0.3414
 6995SOL    HW122118   5.926   8.871   2.435 -0.1668  0.1129  1.7629
 6995SOL    HW222119   5.802   8.787   2.459  0.1649 -0.9940 -0.1819
 6996SOL     OW22120   7.254   3.165   2.834  0.1193  0.2667 -0.4304
 6996SOL    HW122121   7.324   3.119   2.788  1.6731  1.9393  0.1611
 6996SOL    HW222122   7.246   3.119   2.918 -0.4517 -0.7417 -1.0105
 6997SOL     OW22123   2.755   0.522   6.239 -0.0032 -0.0498 -0.2280
 6997SOL    HW122124   2.727   0.526   6.330  0.8918 -0.3562  0.0750
 6997SOL    HW222125   2.792   0.608   6.221 -0.5087  0.1306 -0.4189
 6998SOL     OW22126   8.042   5.668   1.377 -0.3855 -0.0767 -0.2116
 6998SOL    HW122127   8.091   5.655   1.296 -1.8065 -0.0591 -1.1062
 6998SOL    HW222128   8.108   5.690   1.442  0.8209 -0.4377 -1.2835
 6999SOL     OW22129   5.381   2.039   7.071  0.3162 -0.2268 -0.4479
 6999SOL    HW122130   5.390   2.064   7.163 -0.3585 -0.8461 -0.2093
 6999SOL    HW222131   5.462   2.071   7.030  0.3640  0.5657  0.2356
 7000SOL     OW22132   8.925   6.295   4.320 -0.3190 -0.7362 -0.3539
 7000SOL    HW122133   8.942   6.365   4.257  0.9911 -1.8353 -1.2886
 7000SOL    HW222134   9.003   6.293   4.376 -0.9764 -0.5215  0.5911
 7001SOL     OW22135   1.997   0.092   2.475  0.4840 -0.1870 -0.4916
 7001SOL    HW122136   2.087   0.109   2.449  0.3010  0.7084 -0.5763
 7001SOL    HW222137   1.959   0.179   2.490 -1.0597 -0.3768 -2.7477
 7002SOL     OW22138   2.216   0.140   2.273 -0.1140 -0.6754  0.2709
 7002SOL    HW122139   2.299   0.115   2.313  0.4723  0.3868 -0.2340
 7002SOL    HW222140   2.203   0.078   2.202  2.6447  1.8044 -2.6859
 7003SOL     OW22141   3.585   0.554   0.352  0.8153 -0.3382 -0.0466
 7003SOL    HW122142   3.588   0.649   0.366 -0.6326 -0.3363  0.4034
 7003SOL    HW222143   3.668   0.533   0.309  1.6256  0.9751  0.8020
 7004SOL     OW22144   6.542   0.632   6.500 -0.0646 -0.1780  0.0693
 7004SOL    HW122145   6.514   0.713   6.457 -2.1667 -0.8108  0.1518
 7004SOL    HW222146   6.552   0.655   6.592 -1.3788 -0.1583  0.2187
 7005SOL     OW22147   3.931   0.864   1.977  0.2247  0.0161 -0.0278
 7005SOL    HW122148   3.988   0.846   2.051 -0.5622  0.5265  0.7152
 7005SOL    HW222149   3.990   0.871   1.902  0.9032 -2.0636  0.2527
 7006SOL     OW22150   2.831   2.877   4.308  0.2049 -0.2933  0.1146
 7006SOL    HW122151   2.856   2.961   4.347  2.0379 -0.5704 -0.3684
 7006SOL    HW222152   2.887   2.869   4.230 -0.4451 -1.6420 -0.2454
 7007SOL     OW22153   0.111   5.202   6.610  0.8377  0.1253  0.3864
 7007SOL    HW122154   0.066   5.238   6.687 -0.1120 -1.2014  0.4656
 7007SOL    HW222155   0.124   5.278   6.553 -1.5739  0.5607  0.3247
 7008SOL     OW22156   2.202   9.035   7.978 -0.7291 -0.2984 -0.2747
 7008SOL    HW122157   2.189   9.008   8.069  1.3288 -2.5413 -0.5385
 7008SOL    HW222158   2.257   9.113   7.983 -1.3041  0.0743  0.4079
 7009SOL     OW22159   9.014   2.146   1.427  0.1262  0.0816  0.0729
 7009SOL    HW122160   9.019   2.153   1.522  0.6966  1.0777 -0.0154
 7009SOL    HW222161   9.098   2.180   1.396 -0.2592  0.2623 -0.8005
 7010SOL     OW22162   8.188   4.343   6.565  0.0142  0.3776 -0.2264
 7010SOL    HW122163   8.181   4.374   6.655 -2.7118 -0.9133  0.1163
 7010SOL    HW222164   8.250   4.403   6.523  1.1869  1.1442  2.4202
 7011SOL     OW22165   6.372   0.100   7.296 -0.1670  0.0927 -0.3895
 7011SOL    HW122166   6.290   0.082   7.342  0.9152 -1.3294  1.0680
 7011SOL    HW222167   6.435   0.037   7.331  1.2984  0.3870 -2.2756
 7012SOL     OW22168   8.846   1.092   5.277 -0.1318 -0.5145 -0.3968
 7012SOL    HW122169   8.902   1.154   5.323  0.0140  0.5459 -1.9056
 7012SOL    HW222170   8.905   1.046   5.217 -0.1234 -2.6298  1.1382
 7013SOL     OW22171   4.391   6.272   1.962  0.1055  0.7858 -0.0453
 7013SOL    HW122172   4.398   6.275   1.867  1.1844 -0.7478 -0.0486
 7013SOL    HW222173   4.482   6.267   1.993 -0.2709 -1.9878  0.8726
 7014SOL     OW22174   6.547   4.943   3.536 -0.3372 -0.7952  0.7390
 7014SOL    HW122175   6.629   4.973   3.576 -1.0245 -0.6887  2.1151
 7014SOL    HW222176   6.574   4.907   3.451  1.0387 -0.1442  0.8684
 7015SOL     OW22177   8.366   7.220   3.916  0.0376  0.4158  0.2805
 7015SOL    HW122178   8.283   7.264   3.899 -0.2835 -0.0533  0.6200
 7015SOL    HW222179   8.343   7.129   3.932  0.7858 -0.1253 -1.4455
 7016SOL     OW22180   5.472   1.424   0.468  0.5042 -0.0526 -0.3834
 7016SOL    HW122181   5.541   1.373   0.512  1.0871  1.3667  0.4266
 7016SOL    HW222182   5.390   1.385   0.499  0.8274  1.5508  3.0572
 7017SOL     OW22183   4.228   0.850   7.713  0.0917  0.7406  0.6976
 7017SOL    HW122184   4.201   0.759   7.702  1.1996  0.5347 -0.4561
 7017SOL    HW222185   4.170   0.899   7.654  0.7183  0.5540 -0.0893
 7018SOL     OW22186   0.518   3.433   1.976  0.4006 -0.1748 -0.5208
 7018SOL    HW122187   0.570   3.389   2.043 -0.2904 -0.8688 -0.4300
 7018SOL    HW222188   0.486   3.362   1.920 -0.7956  0.1879 -0.3301
 7019SOL     OW22189   6.952   7.619   2.848  0.2393  0.2118  0.4252
 7019SOL    HW122190   6.994   7.678   2.786  0.3812  0.2600  0.5662
 7019SOL    HW222191   6.975   7.654   2.934 -0.6309  0.6257  0.4993
 7020SOL     OW22192   5.274   4.674   5.933 -0.2452 -0.1888  0.6838
 7020SOL    HW122193   5.360   4.708   5.954  0.1835 -1.0675  0.4313
 7020SOL    HW222194   5.269   4.590   5.979 -0.9921 -0.1156  0.7571
 7021SOL     OW22195   1.476   6.178   6.836  0.1599  0.3098  0.1116
 7021SOL    HW122196   1.559   6.205   6.876  1.1608 -1.2823 -0.7612
 7021SOL    HW222197   1.481   6.209   6.746 -0.6997  1.1660  0.3470
 7022SOL     OW22198   5.842   6.665   4.506  0.1456 -0.0548 -0.1784
 7022SOL    HW122199   5.765   6.709   4.541  1.8798  2.0893  1.1400
 7022SOL    HW222200   5.831   6.669   4.411 -0.6381  1.5970 -0.0382
 7023SOL     OW22201   8.685   3.513   1.830 -0.0755 -0.0741  0.0657
 7023SOL    HW122202   8.752   3.546   1.889 -0.3662  0.3334  0.1720
 7023SOL    HW222203   8.681   3.419   1.848 -1.0405  0.2242  1.5977
 7024SOL     OW22204   3.121   2.869   9.025 -0.3993 -0.0848 -0.0407
 7024SOL    HW122205   3.196   2.915   9.064 -0.7316 -0.6210  1.2721
 7024SOL    HW222206   3.134   2.879   8.931  1.5162 -0.4633  0.1356
 7025SOL     OW22207   8.672   7.671   5.782 -0.1401 -0.0495 -0.8019
 7025SOL    HW122208   8.669   7.712   5.695  1.7740 -0.0730 -0.9130
 7025SOL    HW222209   8.709   7.584   5.766 -1.3101 -0.6930 -0.1542
 7026SOL     OW22210   5.400   3.551   8.282  0.3568  0.0261  0.0340
 7026SOL    HW122211   5.354   3.552   8.366  0.4678 -0.6739  0.1080
 7026SOL    HW222212   5.471   3.614   8.293  0.1172  0.2510  0.3152
 7027SOL     OW22213   6.193   7.426   8.663 -0.4709 -0.1967  0.5264
 7027SOL    HW122214   6.198   7.510   8.617 -1.4285 -0.0544  0.6517
 7027SOL    HW222215   6.128   7.376   8.614  0.0549 -0.8413  0.4872
 7028SOL     OW22216   2.893   7.972   7.522 -0.2675 -0.9907 -0.6539
 7028SOL    HW122217   2.838   8.018   7.586  0.6556 -0.2618 -0.3591
 7028SOL    HW222218   2.845   7.979   7.440 -0.9138 -0.9127 -0.2776
 7029SOL     OW22219   7.428   6.298   0.542  0.1503 -0.0403  0.0496
 7029SOL    HW122220   7.513   6.322   0.581  1.6153 -0.4702 -2.6840
 7029SOL    HW222221   7.419   6.357   0.467 -0.8530 -1.5412 -1.0540
 7030SOL     OW22222   8.286   9.062   6.784  0.1437 -0.0236 -0.2003
 7030SOL    HW122223   8.318   8.983   6.827 -0.3464 -0.3155 -0.3574
 7030SOL    HW222224   8.240   9.029   6.706  0.7381  0.4706 -0.7737
 7031SOL     OW22225   5.938   3.487   6.052  0.4231 -0.0502 -0.5736
 7031SOL    HW122226   5.991   3.419   6.011  0.5041 -0.7665  0.6566
 7031SOL    HW222227   5.998   3.532   6.112 -0.1808 -0.4354  0.3416
 7032SOL     OW22228   6.820   1.867   3.329  0.2398 -1.0592 -0.3907
 7032SOL    HW122229   6.866   1.786   3.306  2.0809  0.0015 -0.6735
 7032SOL    HW222230   6.832   1.874   3.424  3.8026  0.8690 -0.7923
 7033SOL     OW22231   0.762   3.155   0.058  0.4143 -0.2315 -0.1791
 7033SOL    HW122232   0.823   3.216   0.014  0.5672 -0.9365 -0.9727
 7033SOL    HW222233   0.683   3.157   0.004 -0.8903  1.7985  1.6428
 7034SOL     OW22234   1.734   7.933   7.010  0.1000  0.6049  0.4519
 7034SOL    HW122235   1.718   8.012   6.960 -0.0200  0.1058 -0.3167
 7034SOL    HW222236   1.804   7.956   7.070  0.2299  1.2186  0.0685
 7035SOL     OW22237   3.309   8.925   6.571 -0.4567 -0.2915  0.3270
 7035SOL    HW122238   3.369   8.856   6.542 -1.3816 -0.8861 -0.2051
 7035SOL    HW222239   3.336   8.943   6.661  0.6964 -0.3403  0.0137
 7036SOL     OW22240   2.393   2.640   1.611 -0.1723 -0.0489  0.3049
 7036SOL    HW122241   2.326   2.604   1.554  0.4125  1.4747 -1.4351
 7036SOL    HW222242   2.475   2.602   1.579  0.0318 -0.2163  1.0043
 7037SOL     OW22243   4.636   2.417   5.371 -0.0507 -0.6672 -0.2657
 7037SOL    HW122244   4.642   2.417   5.275  0.9903  1.9486 -0.2901
 7037SOL    HW222245   4.641   2.324   5.395  0.9837 -1.3290 -2.6682
 7038SOL     OW22246   7.852   6.192   0.301  0.5189  0.1734 -0.4092
 7038SOL    HW122247   7.932   6.209   0.351  0.6862 -1.2930 -0.1315
 7038SOL    HW222248   7.813   6.279   0.288  2.3314  0.9558 -0.8677
 7039SOL     OW22249   0.546   1.741   3.537 -0.6185  0.3347 -0.1282
 7039SOL    HW122250   0.478   1.761   3.602  0.0350 -0.9390  0.9968
 7039SOL    HW222251   0.615   1.804   3.555  0.0140 -0.6727  1.1814
 7040SOL     OW22252   7.226   4.318   6.567  0.0936  0.3860 -0.6224
 7040SOL    HW122253   7.283   4.264   6.512  0.5961 -0.7024  0.9100
 7040SOL    HW222254   7.284   4.386   6.602 -0.4683  1.8211 -2.2799
 7041SOL     OW22255   4.190   6.283   7.833 -0.0012 -0.2199  0.0722
 7041SOL    HW122256   4.142   6.363   7.811 -0.6453 -0.6936 -0.2789
 7041SOL    HW222257   4.265   6.282   7.773  0.3177  0.3966  0.4544
 7042SOL     OW22258   6.733   7.175   4.053 -0.2339  0.3827  0.2526
 7042SOL    HW122259   6.684   7.253   4.029 -1.7639 -0.5745  0.1407
 7042SOL    HW222260   6.812   7.178   3.999 -1.2946  0.7699 -1.3264
 7043SOL     OW22261   0.086   1.229   0.494  0.1577  0.5537  0.6369
 7043SOL    HW122262   0.091   1.134   0.484 -0.2405  0.7522 -2.2961
 7043SOL    HW222263   0.018   1.243   0.560 -0.1706 -1.1521  0.7011
 7044SOL     OW22264   3.629   6.092   6.094  0.1145 -0.1941 -0.3481
 7044SOL    HW122265   3.662   6.140   6.017  0.7532 -0.7846 -0.4479
 7044SOL    HW222266   3.534   6.097   6.086  0.1678  0.5558 -0.6691
 7045SOL     OW22267   6.590   5.371   6.746 -0.1695  0.1999 -0.4238
 7045SOL    HW122268   6.560   5.301   6.804  2.1877 -1.5138 -1.1294
 7045SOL    HW222269   6.661   5.332   6.695  1.8557  3.3060 -0.2924
 7046SOL     OW22270   4.099   1.066   6.898 -0.3771 -0.6741 -0.1498
 7046SOL    HW122271   4.102   1.099   6.808  0.5236  0.2316  0.1877
 7046SOL    HW222272   4.146   0.983   6.895  0.4675 -0.2000 -0.3570
 7047SOL     OW22273   4.955   0.841   4.896  0.1899  0.2648 -0.4333
 7047SOL    HW122274   4.883   0.893   4.933 -0.0386 -0.5827  0.3381
 7047SOL    HW222275   4.914   0.785   4.831  0.1914 -0.0299 -0.1824
 7048SOL     OW22276   8.799   6.361   2.856 -0.2595  0.3205  0.2995
 7048SOL    HW122277   8.734   6.358   2.786  0.3820 -0.5312 -0.2802
 7048SOL    HW222278   8.756   6.318   2.930 -0.6857  0.5761  0.2020
 7049SOL     OW22279   5.751   2.786   2.218  0.3941  0.4971 -0.0574
 7049SOL    HW122280   5.773   2.697   2.191 -0.1980  0.9283 -2.1430
 7049SOL    HW222281   5.655   2.785   2.227  0.4784  0.6644  1.0659
 7050SOL     OW22282   7.990   8.277   3.964  0.4310 -0.5007 -0.0784
 7050SOL    HW122283   7.952   8.283   3.877  1.8411 -0.4142 -0.7165
 7050SOL    HW222284   8.041   8.196   3.963 -1.2780 -1.6676  1.4224
 7051SOL     OW22285   5.596   8.017   3.995  0.3518  0.3053 -0.6125
 7051SOL    HW122286   5.591   8.106   4.030  0.3527  0.2092 -0.3685
 7051SOL    HW222287   5.680   7.983   4.027 -0.0501 -0.0930  0.0223
 7052SOL     OW22288   6.006   6.159   5.126 -0.3653  0.9044  0.1530
 7052SOL    HW122289   6.036   6.238   5.080  0.0191  0.6677 -0.0072
 7052SOL    HW222290   6.087   6.114   5.150 -0.5838  0.6357  0.3770
 7053SOL     OW22291   0.299   3.471   5.344  0.1634 -0.5874 -0.1040
 7053SOL    HW122292   0.289   3.511   5.430  1.2398 -0.8787  0.1669
 7053SOL    HW222293   0.290   3.377   5.361 -0.3194 -0.6046 -0.4262
 7054SOL     OW22294   8.850   7.350   2.447  0.6512 -0.5530  0.4366
 7054SOL    HW122295   8.803   7.350   2.530 -0.4561 -1.2415 -0.1647
 7054SOL    HW222296   8.838   7.261   2.413  2.9595 -0.9491  0.5522
 7055SOL     OW22297   5.345   4.579   8.812 -0.2143  0.1728 -0.0951
 7055SOL    HW122298   5.319   4.578   8.720 -0.9159  0.0554  0.1041
 7055SOL    HW222299   5.263   4.583   8.860  0.1829  2.6666  0.4978
 7056SOL     OW22300   6.390   8.688   1.664  0.4173  0.2671 -0.3337
 7056SOL    HW122301   6.302   8.680   1.629 -0.4226  0.7878  1.5621
 7056SOL    HW222302   6.396   8.621   1.731  0.4715  1.9349  1.4205
 7057SOL     OW22303   1.254   4.140   8.881  0.5741 -0.2826 -0.1696
 7057SOL    HW122304   1.266   4.089   8.801  1.4248 -0.2610 -0.0641
 7057SOL    HW222305   1.194   4.211   8.855  1.4940  0.2137 -1.0115
 7058SOL     OW22306   8.413   2.064   2.321 -0.3082  0.4817 -0.5200
 7058SOL    HW122307   8.355   2.011   2.377 -1.3168 -0.3349 -2.2646
 7058SOL    HW222308   8.370   2.150   2.317  1.1350  1.4638  2.0008
 7059SOL     OW22309   5.973   8.194   4.401 -0.0441  0.0936 -0.4287
 7059SOL    HW122310   6.007   8.184   4.313 -0.2464 -2.4200 -0.2766
 7059SOL    HW222311   5.894   8.248   4.391 -0.1796 -0.3431 -1.7890
 7060SOL     OW22312   6.973   7.993   2.542 -0.1968 -0.3494 -0.5209
 7060SOL    HW122313   7.029   7.922   2.509  0.3138 -0.3058  0.2244
 7060SOL    HW222314   6.889   7.950   2.559  0.1358 -0.8105  0.0185
 7061SOL     OW22315   7.984   3.345   6.530 -0.0706  0.2247  0.1656
 7061SOL    HW122316   8.048   3.343   6.459 -1.3878  1.7557 -1.1280
 7061SOL    HW222317   8.037   3.347   6.610  1.5265  1.7460 -0.8621
 7062SOL     OW22318   5.422   4.029   7.054  0.3445  0.6224  0.0839
 7062SOL    HW122319   5.334   4.006   7.082  0.9197  1.7290  3.2061
 7062SOL    HW222320   5.479   3.965   7.098  1.2176  1.1112 -0.3021
 7063SOL     OW22321   1.028   4.320   3.321  0.2978 -0.5067 -0.4073
 7063SOL    HW122322   1.040   4.337   3.228  2.6038 -1.1069 -0.2790
 7063SOL    HW222323   1.089   4.380   3.364 -1.9276  0.9940  0.8803
 7064SOL     OW22324   8.732   0.326   0.398 -0.3437 -0.2666  0.9032
 7064SOL    HW122325   8.707   0.293   0.312  0.2167  0.7833  0.3291
 7064SOL    HW222326   8.752   0.247   0.449  2.9642 -0.8689 -1.0443
 7065SOL     OW22327   1.995   2.261   1.808 -0.3122 -0.7851 -0.2822
 7065SOL    HW122328   1.939   2.225   1.876 -0.5896  0.7633  0.3314
 7065SOL    HW222329   2.081   2.268   1.848 -0.8282  1.7192  0.5400
 7066SOL     OW22330   3.930   9.066   4.838  0.0893  0.5234  0.3156
 7066SOL    HW122331   3.858   9.089   4.779 -0.5313  0.5480  1.0630
 7066SOL    HW222332   4.007   9.109   4.800 -0.4024  0.9994 -0.1675
 7067SOL     OW22333   7.399   8.266   3.338  0.3964  0.2951  0.3000
 7067SOL    HW122334   7.346   8.341   3.365  2.5120  2.0467 -0.1046
 7067SOL    HW222335   7.485   8.283   3.376  2.0815  0.2306 -3.0759
 7068SOL     OW22336   4.518   1.242   3.420 -0.8110  0.6679  0.0595
 7068SOL    HW122337   4.430   1.206   3.416 -0.7655  0.4867  0.5842
 7068SOL    HW222338   4.570   1.185   3.364 -1.5736  2.5107 -2.7532
 7069SOL     OW22339   0.639   7.235   1.985 -0.1013 -0.3528  0.0653
 7069SOL    HW122340   0.625   7.324   1.953  1.4565 -0.7721 -1.9655
 7069SOL    HW222341   0.550   7.200   1.998 -0.7687  0.7878 -1.1873
 7070SOL     OW22342   5.081   7.935   0.444 -0.4867 -0.3485 -0.2336
 7070SOL    HW122343   5.094   7.865   0.380  1.4387  0.4935 -0.8491
 7070SOL    HW222344   4.996   7.972   0.422  0.2413  0.1267 -2.6163
 7071SOL     OW22345   0.649   5.841   5.409  0.2149  0.2896 -0.0000
 7071SOL    HW122346   0.612   5.780   5.345 -0.5598 -2.6254  2.9698
 7071SOL    HW222347   0.743   5.841   5.390  0.0288 -0.5877 -1.0413
 7072SOL     OW22348   3.486   4.484   5.749 -0.2728 -0.6901  0.6106
 7072SOL    HW122349   3.410   4.491   5.806  0.5576  0.9744  1.5668
 7072SOL    HW222350   3.533   4.567   5.760 -0.2854 -0.0994 -2.8200
 7073SOL     OW22351   0.097   1.679   3.672  0.0059 -0.1323 -0.3937
 7073SOL    HW122352   0.169   1.659   3.613  0.1244 -1.1532  0.0727
 7073SOL    HW222353   0.123   1.761   3.714  0.5511 -0.1119 -0.7592
 7074SOL     OW22354   4.108   2.654   1.724 -0.2415  0.2395 -0.4141
 7074SOL    HW122355   4.172   2.636   1.655 -0.1222  0.1559 -0.2806
 7074SOL    HW222356   4.023   2.650   1.679 -0.2619 -1.2034 -0.2807
 7075SOL     OW22357   0.539   6.160   2.443 -0.1092  1.0183 -0.3545
 7075SOL    HW122358   0.615   6.141   2.387  0.1821 -0.0515  0.3781
 7075SOL    HW222359   0.514   6.075   2.479  0.2228  1.7914  1.8026
 7076SOL     OW22360   8.561   8.809   5.559  0.2955 -0.0879 -0.2752
 7076SOL    HW122361   8.551   8.895   5.519  1.0429 -0.1603 -0.6341
 7076SOL    HW222362   8.643   8.814   5.608  1.4750 -1.2343 -2.0316
 7077SOL     OW22363   4.695   7.048   4.536  0.1138  0.3759 -0.3302
 7077SOL    HW122364   4.676   7.084   4.622 -0.2372 -0.3626 -0.0852
 7077SOL    HW222365   4.660   7.112   4.475 -0.0228  0.7026  0.0838
 7078SOL     OW22366   1.495   1.334   8.186  0.2391 -0.0426 -0.3203
 7078SOL    HW122367   1.524   1.425   8.184 -0.0451  0.0472 -0.4877
 7078SOL    HW222368   1.562   1.286   8.138  0.7335 -0.0254  0.3399
 7079SOL     OW22369   2.292   1.655   2.276 -0.5237 -0.2897  0.0636
 7079SOL    HW122370   2.278   1.727   2.214 -1.7487 -1.4551 -1.0893
 7079SOL    HW222371   2.308   1.579   2.221 -0.0828 -1.0762  1.2436
 7080SOL     OW22372   4.406   8.948   5.918  0.0280 -0.0400 -0.7266
 7080SOL    HW122373   4.321   8.954   5.961  0.6947  0.4397  0.5514
 7080SOL    HW222374   4.431   9.039   5.901  1.3082 -0.0229  1.0028
 7081SOL     OW22375   0.943   4.670   5.533  0.1419  0.0237  0.2611
 7081SOL    HW122376   1.027   4.694   5.572 -0.8429  1.0022  1.9515
 7081SOL    HW222377   0.956   4.678   5.439  2.1976 -0.7969  0.4407
 7082SOL     OW22378   5.941   5.349   5.689  0.0116  0.1549  0.2493
 7082SOL    HW122379   5.895   5.271   5.719 -0.2791 -0.0195 -0.6142
 7082SOL    HW222380   5.875   5.399   5.640  0.4825  0.3876 -0.1621
 7083SOL     OW22381   2.130   2.332   1.296 -0.0664 -0.0552 -0.0865
 7083SOL    HW122382   2.192   2.259   1.306  1.5019  1.2005 -0.2312
 7083SOL    HW222383   2.054   2.293   1.254  0.5313 -1.7070  0.2815
 7084SOL     OW22384   8.377   9.068   7.204 -0.5468 -0.8061 -0.5868
 7084SOL    HW122385   8.456   9.035   7.247  1.3228  4.2969  0.5638
 7084SOL    HW222386   8.315   9.083   7.275 -0.0809  1.0338 -0.5079
 7085SOL     OW22387   4.698   1.689   7.077  0.0225  0.0601  0.0064
 7085SOL    HW122388   4.754   1.751   7.124  0.0890 -1.3599  1.9124
 7085SOL    HW222389   4.610   1.729   7.083  0.2958  0.6972 -0.1145
 7086SOL     OW22390   2.333   2.782   4.622  0.0035  0.2221 -0.4165
 7086SOL    HW122391   2.358   2.874   4.620 -0.0345  0.2426 -0.0432
 7086SOL    HW222392   2.344   2.752   4.532 -1.3643  0.9646 -0.8716
 7087SOL     OW22393   6.177   0.527   1.564  0.4731  0.0099 -0.3228
 7087SOL    HW122394   6.219   0.536   1.478  0.3258  0.0317 -0.3916
 7087SOL    HW222395   6.172   0.432   1.579  0.3459  0.0026 -0.4124
 7088SOL     OW22396   5.709   6.735   7.496 -0.3058  0.3488  0.0806
 7088SOL    HW122397   5.678   6.646   7.512  1.3170 -0.3619 -0.5200
 7088SOL    HW222398   5.632   6.790   7.509 -1.7027 -1.2726 -0.9449
 7089SOL     OW22399   4.287   7.103   0.447 -0.0365 -0.3101  0.1539
 7089SOL    HW122400   4.330   7.103   0.532 -0.5755  1.8218  0.4690
 7089SOL    HW222401   4.349   7.058   0.389  1.1333 -0.1987  1.2820
 7090SOL     OW22402   1.388   4.497   3.088 -0.2063 -0.0330  0.4194
 7090SOL    HW122403   1.459   4.458   3.138  1.2176  1.6657 -0.1537
 7090SOL    HW222404   1.388   4.450   3.004 -0.5251 -0.7865  0.8378
 7091SOL     OW22405   7.472   5.912   4.953 -0.3331  0.0298  0.1382
 7091SOL    HW122406   7.490   5.819   4.936 -1.2704 -0.3279  0.9770
 7091SOL    HW222407   7.435   5.913   5.041 -0.4657  1.1940  0.0839
 7092SOL     OW22408   1.681   1.435   7.079  0.5877 -0.3017 -0.4159
 7092SOL    HW122409   1.754   1.480   7.036  1.3072 -0.8746  0.1787
 7092SOL    HW222410   1.723   1.380   7.145 -0.3924 -0.6260 -0.0533
 7093SOL     OW22411   5.983   7.104   1.250 -0.0980 -0.0239  0.6113
 7093SOL    HW122412   5.970   7.062   1.165  0.1312 -0.9542  1.0188
 7093SOL    HW222413   5.923   7.178   1.251 -0.0242  0.0544 -0.4010
 7094SOL     OW22414   0.690   2.598   3.161 -0.7532 -0.1871  0.0936
 7094SOL    HW122415   0.724   2.620   3.074 -0.3973  2.9255  0.8673
 7094SOL    HW222416   0.769   2.588   3.215 -0.9746 -0.4579  0.3669
 7095SOL     OW22417   5.958   3.906   1.947 -0.1396 -0.1698  0.0011
 7095SOL    HW122418   5.873   3.913   1.992  0.0187 -1.4111  0.5290
 7095SOL    HW222419   5.971   3.812   1.935  1.7287 -0.0891  1.0512
 7096SOL     OW22420   0.186   2.594   7.967 -0.2253  0.3183 -0.4635
 7096SOL    HW122421   0.119   2.531   7.941  1.1385 -1.6310  0.4692
 7096SOL    HW222422   0.253   2.587   7.899 -0.0423  0.7483 -0.3338
 7097SOL     OW22423   6.464   8.126   6.238  0.0489 -0.0026 -0.1278
 7097SOL    HW122424   6.421   8.139   6.323  0.2404 -0.6973  0.0807
 7097SOL    HW222425   6.470   8.031   6.228  1.3220  0.0692 -0.2606
 7098SOL     OW22426   8.681   2.349   6.491 -0.2571  0.3007 -0.0046
 7098SOL    HW122427   8.667   2.427   6.437 -0.5914 -1.1980 -2.1708
 7098SOL    HW222428   8.734   2.291   6.437  3.3357  0.4388  2.9475
 7099SOL     OW22429   8.232   3.580   5.029  0.4868  0.1847  0.0314
 7099SOL    HW122430   8.160   3.555   4.972  0.1207  0.8000  0.2075
 7099SOL    HW222431   8.301   3.608   4.969  0.5269 -0.2646 -0.1356
 7100SOL     OW22432   4.182   3.362   6.368  0.5761  0.2729  0.0101
 7100SOL    HW122433   4.257   3.420   6.369  1.4023 -0.6868 -1.9964
 7100SOL    HW222434   4.212   3.283   6.322 -1.5462 -0.2615 -0.5963
 7101SOL     OW22435   5.800   5.336   6.532  0.1255 -0.7775 -0.4662
 7101SOL    HW122436   5.741   5.262   6.542  1.2356 -1.5726  0.6012
 7101SOL    HW222437   5.808   5.372   6.620  1.7762 -1.1747 -0.4165
 7102SOL     OW22438   6.857   9.064   8.906 -0.4086 -0.0136 -0.5891
 7102SOL    HW122439   6.952   9.069   8.912 -0.0996 -3.4867 -0.7521
 7102SOL    HW222440   6.838   9.074   8.812  0.3819 -3.8537 -1.3270
 7103SOL     OW22441   7.941   6.495   4.700 -0.5031  0.5403 -0.3149
 7103SOL    HW122442   7.884   6.567   4.729 -2.1382 -1.0690  0.6637
 7103SOL    HW222443   7.884   6.418   4.699  1.4042 -0.9348 -0.4350
 7104SOL     OW22444   0.071   6.168   3.075 -0.0388  0.3195  0.0121
 7104SOL    HW122445  -0.013   6.122   3.071  0.9012 -1.4656 -0.3824
 7104SOL    HW222446   0.103   6.153   3.164 -0.2275  1.1878  0.2343
 7105SOL     OW22447   0.584   5.357   3.786 -0.8008  0.1458 -0.0680
 7105SOL    HW122448   0.638   5.397   3.854 -2.2555 -0.2650  1.4004
 7105SOL    HW222449   0.525   5.427   3.759 -2.2753 -0.4658  1.3599
 7106SOL     OW22450   3.780   0.631   0.600 -0.2083 -0.4150 -0.4224
 7106SOL    HW122451   3.843   0.563   0.577 -1.0121 -1.0048 -0.9122
 7106SOL    HW222452   3.734   0.596   0.676 -2.0354 -1.3646 -1.8965
 7107SOL     OW22453   3.079   4.058   6.591 -0.1594 -0.1428 -0.1575
 7107SOL    HW122454   3.168   4.058   6.556 -0.2913  1.5172 -0.5764
 7107SOL    HW222455   3.022   4.044   6.515 -0.2471 -2.2996  0.2609
 7108SOL     OW22456   5.063   7.012   8.676 -0.3220 -0.4492 -0.3927
 7108SOL    HW122457   5.119   7.039   8.603 -0.3115 -1.1023 -0.6300
 7108SOL    HW222458   4.980   6.989   8.634 -0.4267 -0.4978 -0.1580
 7109SOL     OW22459   7.938   1.503   8.269  0.3330  0.1458 -0.2574
 7109SOL    HW122460   7.960   1.457   8.189  0.9277 -1.2461  0.6647
 7109SOL    HW222461   8.021   1.509   8.317 -0.1270  0.3878  0.5284
 7110SOL     OW22462   7.840   8.792   6.559 -0.2367 -0.1682  0.0675
 7110SOL    HW122463   7.828   8.733   6.484  0.3434 -0.0536 -0.1255
 7110SOL    HW222464   7.754   8.831   6.573 -0.3711 -0.2588 -0.4844
 7111SOL     OW22465   0.558   4.516   3.860 -0.2720  0.3582 -0.1027
 7111SOL    HW122466   0.514   4.453   3.804 -1.3422 -1.1341  2.2472
 7111SOL    HW222467   0.535   4.602   3.823 -0.1462 -0.5400 -2.4101
 7112SOL     OW22468   0.239   6.096   2.339 -0.4451 -0.4404  0.2485
 7112SOL    HW122469   0.274   6.142   2.262 -1.2212 -0.8181 -0.3436
 7112SOL    HW222470   0.207   6.166   2.396 -3.1267 -0.2221 -1.3648
 7113SOL     OW22471   4.987   7.873   1.648 -0.0385 -0.0682  0.3605
 7113SOL    HW122472   5.021   7.784   1.658 -3.0099 -1.5901 -1.4455
 7113SOL    HW222473   4.924   7.866   1.576 -1.5195  3.1870  1.1655
 7114SOL     OW22474   8.403   6.030   3.609 -0.4467 -0.1773 -0.3946
 7114SOL    HW122475   8.437   6.047   3.521 -0.2267 -1.4915 -0.5792
 7114SOL    HW222476   8.314   5.997   3.594 -0.1189 -1.1884 -0.1837
 7115SOL     OW22477   6.039   3.132   8.378 -0.2037 -0.0592 -0.6458
 7115SOL    HW122478   6.014   3.044   8.353 -1.2893  0.1838 -0.4706
 7115SOL    HW222479   6.009   3.140   8.469  0.9516  0.0955 -0.2600
 7116SOL     OW22480   7.324   8.848   8.582  0.1552  0.2001 -0.1506
 7116SOL    HW122481   7.409   8.809   8.562 -0.4131 -1.1929 -0.0244
 7116SOL    HW222482   7.278   8.779   8.631 -1.3359  0.6052 -0.9235
 7117SOL     OW22483   8.336   2.760   0.944 -0.3725  0.1379 -0.0703
 7117SOL    HW122484   8.264   2.809   0.907 -0.2218  0.7644  0.4538
 7117SOL    HW222485   8.344   2.683   0.888 -1.6885 -0.1352  0.0966
 7118SOL     OW22486   7.888   5.277   0.275 -0.0431  0.3268  0.2752
 7118SOL    HW122487   7.867   5.333   0.350 -0.9479 -0.2336  0.4625
 7118SOL    HW222488   7.838   5.315   0.203  1.5574  1.4299 -0.3076
 7119SOL     OW22489   4.914   5.055   2.316 -0.1720  0.6301  0.4791
 7119SOL    HW122490   4.820   5.054   2.335 -0.2858 -2.0732  0.2182
 7119SOL    HW222491   4.919   5.072   2.222 -0.3092  1.7382  0.6565
 7120SOL     OW22492   5.591   8.551   6.168  0.3858  0.1313 -0.4375
 7120SOL    HW122493   5.567   8.636   6.204  1.2832  0.7322 -1.2190
 7120SOL    HW222494   5.607   8.568   6.075 -2.7176 -1.5255 -1.4264
 7121SOL     OW22495   6.881   3.447   5.615  0.0285  0.6680  0.4037
 7121SOL    HW122496   6.895   3.421   5.706  0.8928  0.9167  0.3444
 7121SOL    HW222497   6.930   3.529   5.605  0.5108  0.2894 -0.4669
 7122SOL     OW22498   2.567   1.869   5.382 -0.6134  0.4245 -0.1588
 7122SOL    HW122499   2.623   1.937   5.344 -1.0293  0.7056 -0.2705
 7122SOL    HW222500   2.478   1.902   5.370 -0.7489  0.5771  1.1662
 7123SOL     OW22501   2.355   4.371   0.094 -0.5815  0.4972 -0.2511
 7123SOL    HW122502   2.419   4.329   0.036 -1.1605  0.5813 -0.9639
 7123SOL    HW222503   2.375   4.336   0.180  0.4453  0.5426 -0.4553
 7124SOL     OW22504   7.647   2.390   3.823 -0.2399  0.2136  0.4302
 7124SOL    HW122505   7.732   2.347   3.815 -0.2288  0.4681 -1.4156
 7124SOL    HW222506   7.648   2.458   3.755 -2.5653 -0.9408 -0.8730
 7125SOL     OW22507   7.923   4.853   0.686  0.2710 -0.7517  0.4910
 7125SOL    HW122508   7.831   4.858   0.713  0.6286 -0.5479  1.7135
 7125SOL    HW222509   7.937   4.933   0.636  0.1611 -0.0338  1.5642
 7126SOL     OW22510   5.715   0.998   1.834  0.4260 -0.7124  0.2414
 7126SOL    HW122511   5.722   1.081   1.785 -1.9602 -1.2771 -1.2074
 7126SOL    HW222512   5.791   0.999   1.892  1.0098  2.0508 -0.3907
 7127SOL     OW22513   2.521   0.052   0.601  0.0610 -0.2329 -0.0373
 7127SOL    HW122514   2.542  -0.038   0.625  1.5846  0.0139 -0.3198
 7127SOL    HW222515   2.528   0.055   0.506  0.5536  0.2864  0.0037
 7128SOL     OW22516   5.778   0.521   6.135 -0.4660  0.2896 -0.3305
 7128SOL    HW122517   5.866   0.485   6.124 -0.4937  0.3381 -0.7102
 7128SOL    HW222518   5.771   0.538   6.229 -1.3483 -3.0222  0.3279
 7129SOL     OW22519   3.170   6.180   7.678 -0.4549  0.2483  0.1550
 7129SOL    HW122520   3.199   6.267   7.706 -0.3719  0.0247  0.7679
 7129SOL    HW222521   3.138   6.194   7.588 -0.7230  0.9744  0.3500
 7130SOL     OW22522   4.545   6.594   2.840  0.2897 -0.1250  0.1433
 7130SOL    HW122523   4.610   6.638   2.896  1.9126 -1.9628 -0.2005
 7130SOL    HW222524   4.558   6.501   2.857 -1.7710 -0.5778 -0.5342
 7131SOL     OW22525   7.498   8.086   0.715 -0.2809 -0.2000  0.2858
 7131SOL    HW122526   7.483   8.009   0.661 -0.9514 -0.2967  0.5931
 7131SOL    HW222527   7.412   8.128   0.722  0.3387  1.4195 -1.1138
 7132SOL     OW22528   8.496   9.060   5.932 -0.3633 -0.0055  0.0700
 7132SOL    HW122529   8.590   9.076   5.940 -0.4915  0.5118  0.5700
 7132SOL    HW222530   8.489   8.995   5.862  0.4572 -0.9495  0.8223
 7133SOL     OW22531   7.379   5.245   1.526 -0.1936 -0.1638 -0.2003
 7133SOL    HW122532   7.465   5.213   1.500  0.4410 -0.0108  1.5501
 7133SOL    HW222533   7.319   5.175   1.502  0.1819  0.2841 -2.6778
 7134SOL     OW22534   5.022   3.892   4.759  0.2843 -0.5058 -0.4394
 7134SOL    HW122535   4.986   3.910   4.672  1.3821  0.2638 -0.7559
 7134SOL    HW222536   5.111   3.925   4.755  0.8449 -1.8257  0.5183
 7135SOL     OW22537   7.383   7.325   7.879 -0.1324  0.2389 -0.2393
 7135SOL    HW122538   7.468   7.364   7.899  1.4747 -3.1986  0.3770
 7135SOL    HW222539   7.330   7.339   7.958  1.0600 -0.4622  0.7155
 7136SOL     OW22540   0.482   5.290   4.960  0.6122  0.3187  0.0213
 7136SOL    HW122541   0.490   5.276   5.055  0.2645  1.9280  0.3208
 7136SOL    HW222542   0.402   5.243   4.936  0.9430 -0.4712  0.4434
 7137SOL     OW22543   5.981   1.903   1.990 -0.0465  0.4552  0.0740
 7137SOL    HW122544   5.951   1.877   2.077  0.3625  1.7475  0.6337
 7137SOL    HW222545   6.010   1.822   1.949 -0.8382 -0.2689  0.9007
 7138SOL     OW22546   0.700   8.907   1.355 -0.3367 -0.3258 -0.7877
 7138SOL    HW122547   0.736   8.902   1.443  1.5265 -2.0120 -1.5769
 7138SOL    HW222548   0.694   9.001   1.337 -0.9862  0.0605  1.1757
 7139SOL     OW22549   5.972   3.526   2.507 -0.2120  0.9090 -0.3488
 7139SOL    HW122550   5.883   3.540   2.540 -1.1723  1.3907 -2.9357
 7139SOL    HW222551   5.985   3.432   2.512 -1.1395  0.7586 -0.5595
 7140SOL     OW22552   3.495   5.227   3.028 -0.0304 -0.5023  0.2986
 7140SOL    HW122553   3.522   5.140   2.999 -0.0088 -0.1296 -0.8323
 7140SOL    HW222554   3.468   5.272   2.948 -1.9009 -0.0969  1.0990
 7141SOL     OW22555   4.948   0.570   2.668 -0.1414 -0.1966  0.7909
 7141SOL    HW122556   5.042   0.563   2.649  0.2080 -0.7294  2.5061
 7141SOL    HW222557   4.909   0.495   2.624  0.1979  0.1157 -0.0655
 7142SOL     OW22558   4.499   9.048   4.736 -0.1150 -0.3069  0.3315
 7142SOL    HW122559   4.428   9.004   4.689 -0.9714  0.7807  0.5535
 7142SOL    HW222560   4.565   8.981   4.749 -0.9132 -1.2351 -0.2838
 7143SOL     OW22561   0.410   7.457   3.240  0.0708 -0.2246  0.1681
 7143SOL    HW122562   0.498   7.419   3.246 -0.4244 -1.2920  0.9113
 7143SOL    HW222563   0.383   7.472   3.330 -0.7997 -0.5806 -0.0235
 7144SOL     OW22564   2.445   1.840   2.953  0.4350  0.1784  0.5685
 7144SOL    HW122565   2.391   1.770   2.917  0.8014  0.0585  0.2497
 7144SOL    HW222566   2.382   1.906   2.984  0.0967 -0.2023  0.6960
 7145SOL     OW22567   6.857   2.243   1.699  0.4927  0.4197 -0.2776
 7145SOL    HW122568   6.856   2.281   1.787 -1.5559 -0.1603  0.0136
 7145SOL    HW222569   6.814   2.308   1.644  0.2084  0.0529 -0.4935
 7146SOL     OW22570   5.130   7.883   5.856  0.6609 -0.1906 -0.2214
 7146SOL    HW122571   5.071   7.959   5.853  0.8139  0.0226  1.3561
 7146SOL    HW222572   5.143   7.867   5.950  1.2816 -1.6667 -0.5419
 7147SOL     OW22573   5.937   1.711   8.243  0.2126 -0.8483  0.5174
 7147SOL    HW122574   5.955   1.783   8.183 -0.3373 -0.6264  0.6060
 7147SOL    HW222575   5.979   1.635   8.204 -0.3100 -0.7506 -0.2569
 7148SOL     OW22576   3.158   5.904   5.082  0.3549  0.2259 -1.0453
 7148SOL    HW122577   3.123   5.817   5.099  0.3558  0.5090  0.5650
 7148SOL    HW222578   3.136   5.921   4.990  1.4387 -1.9397 -1.7792
 7149SOL     OW22579   2.172   6.517   4.896 -0.3401  0.0019  0.4201
 7149SOL    HW122580   2.153   6.446   4.835 -1.3324 -1.8729  2.7264
 7149SOL    HW222581   2.180   6.473   4.981  0.0381  2.5617  1.7959
 7150SOL     OW22582   4.985   4.586   4.233 -0.5477 -0.2613  0.1375
 7150SOL    HW122583   5.033   4.596   4.315  0.9542 -0.3670 -0.7047
 7150SOL    HW222584   4.899   4.553   4.260 -0.2195  0.0671  1.6888
 7151SOL     OW22585   8.728   1.045   7.348 -0.1132 -0.0414  0.1281
 7151SOL    HW122586   8.818   1.055   7.316  0.1594  0.0611  0.8905
 7151SOL    HW222587   8.695   1.135   7.353 -0.3626 -0.0969 -0.4155
 7152SOL     OW22588   2.812   6.657   0.437  0.3975 -0.5501 -0.3577
 7152SOL    HW122589   2.791   6.638   0.529  0.0126 -0.9023 -0.5120
 7152SOL    HW222590   2.816   6.752   0.433 -0.3032 -0.4999 -0.1193
 7153SOL     OW22591   4.827   1.935   7.834 -0.7189 -0.9338 -0.1731
 7153SOL    HW122592   4.805   1.842   7.842  1.5938 -1.6778 -1.6002
 7153SOL    HW222593   4.783   1.964   7.755 -2.2702 -0.4933  0.8102
 7154SOL     OW22594   7.752   6.662   8.981 -0.3827  0.2692  0.1957
 7154SOL    HW122595   7.699   6.720   8.927 -0.7715  1.1081  1.4166
 7154SOL    HW222596   7.831   6.645   8.929 -0.6065  1.2923 -0.5021
 7155SOL     OW22597   0.968   6.164   2.577 -0.0332  0.0279  0.1251
 7155SOL    HW122598   0.916   6.084   2.580  0.2400 -0.2473 -1.5191
 7155SOL    HW222599   0.997   6.170   2.486 -2.3112  3.4465 -0.5384
 7156SOL     OW22600   6.359   5.662   6.704  0.0455 -0.1229 -0.2449
 7156SOL    HW122601   6.268   5.662   6.673  0.0161  0.5737 -0.1769
 7156SOL    HW222602   6.352   5.673   6.799  0.2084  0.1117 -0.2613
 7157SOL     OW22603   8.114   5.662   5.811 -0.4520 -0.3840  0.5419
 7157SOL    HW122604   8.198   5.629   5.780 -0.3728 -0.9231  1.2992
 7157SOL    HW222605   8.050   5.626   5.750 -0.1896 -0.5231  0.3484
 7158SOL     OW22606   4.951   2.998   3.850 -0.4448 -0.2279  0.4844
 7158SOL    HW122607   4.945   3.085   3.888  0.8779 -0.1683  0.5942
 7158SOL    HW222608   4.863   2.980   3.816 -0.5543  1.4524 -0.2133
 7159SOL     OW22609   2.875   1.450   1.858  0.4270 -0.7917 -0.4189
 7159SOL    HW122610   2.843   1.401   1.933 -1.3093  0.5445 -0.2325
 7159SOL    HW222611   2.812   1.432   1.788  0.8861 -0.4096 -0.9444
 7160SOL     OW22612   2.849   8.108   6.974  0.2364 -0.2781  0.3015
 7160SOL    HW122613   2.764   8.096   7.018  1.2951 -0.6680  2.3835
 7160SOL    HW222614   2.864   8.026   6.929 -0.9158  0.1471 -0.9256
 7161SOL     OW22615   7.511   3.926   7.768 -0.2261  0.3874 -0.2607
 7161SOL    HW122616   7.502   3.947   7.861  0.9343  1.3324 -0.3373
 7161SOL    HW222617   7.437   3.868   7.749 -0.0914 -0.3938  1.4110
 7162SOL     OW22618   0.889   3.290   5.064  0.1973 -0.0183  0.2986
 7162SOL    HW122619   0.832   3.345   5.012  1.7696  1.7119  0.3152
 7162SOL    HW222620   0.902   3.211   5.011 -1.5843 -0.1439  0.0005
 7163SOL     OW22621   1.153   0.644   4.479 -0.1020 -0.0545 -0.1756
 7163SOL    HW122622   1.160   0.672   4.571  1.2025  0.7248 -0.4780
 7163SOL    HW222623   1.082   0.580   4.479 -0.2996  0.1116  1.3324
 7164SOL     OW22624   4.282   4.426   1.713 -0.0822  0.3923  0.4447
 7164SOL    HW122625   4.322   4.492   1.770  2.4468  1.7857 -2.6296
 7164SOL    HW222626   4.199   4.465   1.686 -1.5047 -0.4397  3.2024
 7165SOL     OW22627   4.883   1.113   2.155 -0.6229 -0.0841 -0.0184
 7165SOL    HW122628   4.974   1.100   2.180 -0.1602  1.5341 -0.6869
 7165SOL    HW222629   4.871   1.208   2.158 -2.5210 -0.3009  0.7998
 7166SOL     OW22630   6.879   5.953   0.452  0.0683  0.6001 -0.1427
 7166SOL    HW122631   6.958   6.006   0.449  0.3905  0.1693  0.4638
 7166SOL    HW222632   6.875   5.910   0.366 -0.0344  1.3619 -0.5226
 7167SOL     OW22633   7.876   7.293   5.903  0.1123  0.2963  0.2796
 7167SOL    HW122634   7.839   7.211   5.935  0.0944  0.9768  2.1016
 7167SOL    HW222635   7.802   7.341   5.866  0.1287 -0.4869 -0.8230
 7168SOL     OW22636   8.223   8.893   4.488  0.4394 -0.0959  0.0255
 7168SOL    HW122637   8.136   8.907   4.524  1.5121  1.6138  2.1894
 7168SOL    HW222638   8.253   8.979   4.461  2.0452 -0.3669  0.8166
 7169SOL     OW22639   6.377   6.806   5.980  0.0521 -0.4774  0.7228
 7169SOL    HW122640   6.334   6.752   6.045 -0.5016  0.6643  1.3244
 7169SOL    HW222641   6.469   6.808   6.008 -0.1534 -0.1202  1.3782
 7170SOL     OW22642   0.667   2.910   3.282  0.1753 -0.4904  0.1421
 7170SOL    HW122643   0.648   2.849   3.211  0.9304 -2.0894  1.2432
 7170SOL    HW222644   0.762   2.924   3.278 -0.0807  1.2794 -0.5743
 7171SOL     OW22645   8.827   8.055   5.043  0.3428 -0.1025 -0.0624
 7171SOL    HW122646   8.836   8.147   5.016  1.0441 -0.3274 -0.6331
 7171SOL    HW222647   8.774   8.059   5.122  1.1569  0.8812  0.4611
 7172SOL     OW22648   7.655   9.045   6.883  0.1459 -0.9247  0.0186
 7172SOL    HW122649   7.685   8.979   6.945 -0.8183 -1.0094  0.4199
 7172SOL    HW222650   7.571   9.075   6.919  1.1235  1.4058  0.4981
 7173SOL     OW22651   7.104   3.857   1.574 -0.2089 -0.0505 -0.2800
 7173SOL    HW122652   7.196   3.877   1.555 -0.6511  1.0394 -1.4900
 7173SOL    HW222653   7.078   3.925   1.636 -0.1717 -0.4250  0.1462
 7174SOL     OW22654   2.280   7.730   1.620  1.2694 -0.2761 -0.3861
 7174SOL    HW122655   2.287   7.741   1.714  2.1392 -1.5256 -0.2857
 7174SOL    HW222656   2.194   7.688   1.607  0.2294  1.7446 -0.3563
 7175SOL     OW22657   7.247   7.221   7.164 -0.0647 -0.3229 -0.3274
 7175SOL    HW122658   7.175   7.166   7.133 -0.1332  0.7748 -2.2364
 7175SOL    HW222659   7.301   7.237   7.087  1.2002  0.4379  0.6710
 7176SOL     OW22660   5.459   4.458   2.928 -0.2274  0.3139  0.4013
 7176SOL    HW122661   5.478   4.551   2.928  1.3186  0.0446 -0.8880
 7176SOL    HW222662   5.364   4.452   2.935 -0.5329  2.0669 -1.5084
 7177SOL     OW22663   3.330   0.859   6.319 -0.6095  0.0063  0.3532
 7177SOL    HW122664   3.291   0.934   6.274 -0.7093  0.7449  1.6471
 7177SOL    HW222665   3.419   0.887   6.341 -1.1600  0.3807  2.2592
 7178SOL     OW22666   8.028   0.072   1.074 -0.7788  0.5192 -0.0188
 7178SOL    HW122667   8.012  -0.000   1.014 -2.1702  0.7399  0.0389
 7178SOL    HW222668   7.962   0.061   1.142  1.4757 -0.4064  2.1606
 7179SOL     OW22669   4.026   2.091   4.683 -0.2400  0.3326 -0.4967
 7179SOL    HW122670   4.042   2.060   4.594 -0.9284 -1.1265 -0.1290
 7179SOL    HW222671   3.979   2.173   4.672 -0.1873  0.2394 -1.4724
 7180SOL     OW22672   1.168   5.177   7.860  0.1687 -0.3571 -0.3804
 7180SOL    HW122673   1.211   5.234   7.923 -1.2155 -0.2910  0.5419
 7180SOL    HW222674   1.093   5.228   7.828  1.5093  0.1266 -3.0921
 7181SOL     OW22675   6.739   7.084   5.339  0.0164 -0.0721 -0.2624
 7181SOL    HW122676   6.824   7.062   5.300  0.4875 -0.4676  0.9208
 7181SOL    HW222677   6.675   7.039   5.285  0.4268  1.2918 -1.9817
 7182SOL     OW22678   6.626   5.253   3.010  1.0430 -0.1549 -0.1046
 7182SOL    HW122679   6.658   5.208   3.088  0.9329  0.5555  0.3613
 7182SOL    HW222680   6.583   5.332   3.043  1.3552  0.3706 -0.9100
 7183SOL     OW22681   5.740   8.903   8.111  0.5711 -0.1141 -0.2421
 7183SOL    HW122682   5.740   8.813   8.144  0.4169  0.6553  2.0879
 7183SOL    HW222683   5.728   8.957   8.190 -0.5459  1.9138 -1.7032
 7184SOL     OW22684   1.822   5.391   1.482  0.1677 -0.6646 -0.0821
 7184SOL    HW122685   1.784   5.457   1.541  0.9547 -0.5171  0.2649
 7184SOL    HW222686   1.831   5.436   1.398  1.4800 -0.0585  0.3664
 7185SOL     OW22687   7.457   4.389   0.235  0.7837  0.2397  0.0679
 7185SOL    HW122688   7.382   4.446   0.217  1.5541  1.1644 -0.2783
 7185SOL    HW222689   7.419   4.302   0.247 -0.1454  0.2418 -2.3764
 7186SOL     OW22690   7.872   3.942   7.445  0.2577 -0.0046  0.3953
 7186SOL    HW122691   7.823   4.003   7.499  2.0492  1.4172  0.5055
 7186SOL    HW222692   7.964   3.967   7.456  0.8673 -1.1146 -1.5342
 7187SOL     OW22693   8.280   7.101   6.120 -0.3852  0.0455  0.4461
 7187SOL    HW122694   8.306   7.166   6.054 -1.3102  0.9242  0.9221
 7187SOL    HW222695   8.244   7.029   6.069  1.9304 -0.7672 -0.1742
 7188SOL     OW22696   0.867   5.796   5.935  0.3601  0.6115 -0.5339
 7188SOL    HW122697   0.795   5.843   5.978  1.7414  1.5097  0.9111
 7188SOL    HW222698   0.927   5.866   5.907  1.0035 -0.1435 -1.0770
 7189SOL     OW22699   3.396   3.260   7.913 -0.2230 -0.4780  0.0472
 7189SOL    HW122700   3.482   3.225   7.888  0.2846  0.7003  0.1211
 7189SOL    HW222701   3.334   3.208   7.862  0.6138 -0.4351 -1.0400
 7190SOL     OW22702   4.518   6.586   0.600 -0.0737  0.3174  0.3279
 7190SOL    HW122703   4.442   6.533   0.624 -1.1070  1.5071 -0.1981
 7190SOL    HW222704   4.493   6.675   0.622  0.7882  0.8549 -0.7744
 7191SOL     OW22705   3.936   7.285   1.120  0.0309 -0.0620 -0.1280
 7191SOL    HW122706   3.872   7.314   1.186  0.0096 -0.6350  0.1101
 7191SOL    HW222707   4.016   7.270   1.170 -0.3052 -1.6767  0.0022
 7192SOL     OW22708   2.806   1.227   7.946 -0.2398  0.1377  0.0632
 7192SOL    HW122709   2.718   1.226   7.985  0.1398 -0.4711  0.9349
 7192SOL    HW222710   2.865   1.204   8.018  0.3069 -3.1207 -1.2464
 7193SOL     OW22711   1.153   1.089   0.107  0.2376  0.1024 -0.5107
 7193SOL    HW122712   1.125   1.092   0.199  1.5728 -0.7970 -0.0367
 7193SOL    HW222713   1.132   1.176   0.072  0.7522  0.8549  0.9732
 7194SOL     OW22714   4.710   7.833   3.535 -0.2530  0.1905  0.9777
 7194SOL    HW122715   4.645   7.763   3.525 -1.5093  1.5604 -1.6698
 7194SOL    HW222716   4.663   7.903   3.580 -0.0136  0.4912  0.7669
 7195SOL     OW22717   5.740   3.618   7.396 -0.4925 -0.2227  0.5089
 7195SOL    HW122718   5.651   3.650   7.410 -0.8147 -1.0810  0.4884
 7195SOL    HW222719   5.730   3.524   7.383  0.3421 -0.2217 -0.2547
 7196SOL     OW22720   1.460   3.249   4.415 -0.7361 -0.0220 -0.1573
 7196SOL    HW122721   1.384   3.191   4.405 -1.6142  1.2178 -0.8719
 7196SOL    HW222722   1.428   3.335   4.390  0.5119  0.8201  0.9992
 7197SOL     OW22723   5.000   7.767   7.019  0.1285  0.4227  0.2435
 7197SOL    HW122724   5.053   7.745   7.095 -1.4454 -0.4919  1.1324
 7197SOL    HW222725   4.911   7.742   7.044 -0.5044  0.5370 -1.7312
 7198SOL     OW22726   7.933   6.689   8.372  0.1364  0.1013  0.1099
 7198SOL    HW122727   8.028   6.705   8.367  0.6711 -2.3709  1.0333
 7198SOL    HW222728   7.916   6.672   8.464 -1.4220  1.3761  0.0991
 7199SOL     OW22729   8.884   6.402   8.777 -0.4940  0.4118  0.2981
 7199SOL    HW122730   8.803   6.351   8.778  0.0577 -0.5228 -0.3673
 7199SOL    HW222731   8.873   6.465   8.706 -1.0573  1.0283  0.9209
 7200SOL     OW22732   3.499   0.025   8.175  0.5893  0.0697 -0.1330
 7200SOL    HW122733   3.545   0.105   8.202  2.1694 -0.6149 -0.6973
 7200SOL    HW222734   3.435   0.011   8.245  1.7728  0.6346  1.1425
 7201SOL     OW22735   3.033   7.497   0.010 -0.4373 -0.5084  0.0592
 7201SOL    HW122736   3.112   7.522  -0.037 -0.9085  0.9080 -0.0277
 7201SOL    HW222737   3.033   7.553   0.088 -0.5355 -1.6344  0.8802
 7202SOL     OW22738   6.372   3.874   7.247 -0.0542  0.2568  0.2877
 7202SOL    HW122739   6.350   3.913   7.163 -2.9952 -0.3305  0.6731
 7202SOL    HW222740   6.350   3.781   7.237  2.5928 -0.5270  0.7851
 7203SOL     OW22741   8.449   5.407   0.376  0.7688 -0.2946 -0.2287
 7203SOL    HW122742   8.357   5.423   0.394  0.7476 -0.0453 -0.5570
 7203SOL    HW222743   8.450   5.357   0.295  0.9590  0.6393 -0.8255
 7204SOL     OW22744   3.964   8.997   4.099 -0.5957  0.4227  0.1480
 7204SOL    HW122745   4.043   9.050   4.114  0.5722 -1.1416 -0.2447
 7204SOL    HW222746   3.918   8.998   4.183  1.1640 -0.6895  1.1880
 7205SOL     OW22747   0.839   6.584   8.305  0.6076  0.1088  0.3956
 7205SOL    HW122748   0.887   6.647   8.250 -0.2899  1.2433  0.8623
 7205SOL    HW222749   0.863   6.607   8.394  0.4219 -0.3464  0.5652
 7206SOL     OW22750   1.558   3.720   5.641 -0.2008  0.3298  0.1436
 7206SOL    HW122751   1.553   3.670   5.723  0.1333  1.0200  0.5978
 7206SOL    HW222752   1.648   3.707   5.611 -0.2971  0.1500 -0.0723
 7207SOL     OW22753   2.456   6.118   4.771 -0.1984 -0.4275  0.4318
 7207SOL    HW122754   2.424   6.187   4.712  2.0658  2.2916  2.1186
 7207SOL    HW222755   2.398   6.123   4.847  0.4529  0.2128  0.8949
 7208SOL     OW22756   7.488   0.153   3.789 -0.1901 -0.0238 -0.6620
 7208SOL    HW122757   7.517   0.243   3.775 -0.2580  0.3033  1.0814
 7208SOL    HW222758   7.564   0.109   3.827 -0.7705 -0.1400  0.4116
 7209SOL     OW22759   3.626   2.101   6.733  0.8873  0.1814  0.5270
 7209SOL    HW122760   3.693   2.169   6.723  0.4212  0.4734 -0.8459
 7209SOL    HW222761   3.555   2.144   6.781  0.6476  0.6465 -0.2242
 7210SOL     OW22762   1.240   1.146   7.483  0.1652  0.8843 -0.1868
 7210SOL    HW122763   1.302   1.122   7.551  1.1480 -0.0693 -1.3565
 7210SOL    HW222764   1.286   1.212   7.431  0.9699 -1.0386 -2.0667
 7211SOL     OW22765   0.775   2.257   3.012 -0.0621  1.0057  0.4071
 7211SOL    HW122766   0.687   2.241   3.045  0.9136 -3.1024  1.5601
 7211SOL    HW222767   0.769   2.241   2.918 -0.4850  0.2419  0.5582
 7212SOL     OW22768   8.768   4.173   7.079  0.2114 -0.1449  0.0980
 7212SOL    HW122769   8.741   4.192   6.990 -0.7701 -0.3726  0.3382
 7212SOL    HW222770   8.816   4.090   7.073 -2.2260 -1.6428  0.1365
 7213SOL     OW22771   8.279   1.009   4.295 -0.2143  0.5152 -0.0393
 7213SOL    HW122772   8.194   1.005   4.338 -0.0886 -0.1428  0.1663
 7213SOL    HW222773   8.342   1.014   4.367 -0.0473  0.3629 -0.1742
 7214SOL     OW22774   2.195   4.680   4.202  0.3225  0.2901 -0.0178
 7214SOL    HW122775   2.272   4.711   4.250  0.0693  0.8791  0.0148
 7214SOL    HW222776   2.142   4.758   4.188 -1.9681 -0.5460  2.9631
 7215SOL     OW22777   1.252   1.440   5.330 -0.4031  0.8206  0.5650
 7215SOL    HW122778   1.243   1.447   5.425  0.2238  2.4124  0.5300
 7215SOL    HW222779   1.246   1.346   5.313 -2.3933  0.6201  1.9750
 7216SOL     OW22780   0.052   3.667   9.113 -0.2758 -0.5432 -0.2560
 7216SOL    HW122781   0.075   3.574   9.106  0.5491 -0.2293 -2.4338
 7216SOL    HW222782   0.135   3.712   9.125 -0.7691 -0.1126  1.9818
 7217SOL     OW22783   6.271   2.361   3.423 -0.0344 -0.3390  0.3781
 7217SOL    HW122784   6.187   2.342   3.466 -0.0790 -0.7299  0.1311
 7217SOL    HW222785   6.271   2.303   3.346 -0.2408  0.7839 -0.5032
 7218SOL     OW22786   1.036   8.823   0.590  0.0939  0.3018  0.4426
 7218SOL    HW122787   1.130   8.829   0.574  0.2025 -0.0446  0.9458
 7218SOL    HW222788   1.028   8.818   0.685 -0.4644  0.8173  0.4319
 7219SOL     OW22789   0.085   6.308   8.406 -0.7036 -0.1013  0.4599
 7219SOL    HW122790   0.007   6.317   8.460 -0.4864 -0.9277  0.9190
 7219SOL    HW222791   0.152   6.359   8.451 -1.2236  1.4706 -0.4708
 7220SOL     OW22792   4.217   8.469   3.752 -0.0742  0.4056 -0.6115
 7220SOL    HW122793   4.208   8.493   3.660 -4.3481 -1.8592 -1.0193
 7220SOL    HW222794   4.264   8.385   3.750 -0.9360 -0.0757 -0.8270
 7221SOL     OW22795   2.115   8.373   0.592 -0.3316  0.1073 -0.0954
 7221SOL    HW122796   2.118   8.329   0.507  1.9175 -1.2791  0.6146
 7221SOL    HW222797   2.207   8.387   0.615 -0.8938  0.7919  1.9346
 7222SOL     OW22798   2.517   0.779   2.437 -0.3922  0.0711  0.3467
 7222SOL    HW122799   2.605   0.814   2.448 -1.0113  1.0977  2.4775
 7222SOL    HW222800   2.459   0.852   2.459 -1.8481 -0.1737 -2.3147
 7223SOL     OW22801   6.855   5.167   7.057  0.1800 -0.4800  0.1049
 7223SOL    HW122802   6.889   5.257   7.059 -0.5013 -0.2106 -0.0323
 7223SOL    HW222803   6.883   5.133   6.972  0.4109 -0.3855  0.1420
 7224SOL     OW22804   8.805   2.586   6.858  0.2099 -0.0499  0.6616
 7224SOL    HW122805   8.833   2.599   6.948  1.6814 -0.0022  0.2269
 7224SOL    HW222806   8.831   2.496   6.837  0.5945  0.1968  0.0450
 7225SOL     OW22807   5.349   2.297   2.979 -0.0479  0.0694  0.3344
 7225SOL    HW122808   5.365   2.390   2.993  2.9266 -0.0254 -1.5668
 7225SOL    HW222809   5.422   2.253   3.022  0.7032 -1.0817 -1.9528
 7226SOL     OW22810   4.776   2.987   3.306 -0.0769 -0.2129 -0.0628
 7226SOL    HW122811   4.699   2.940   3.337 -0.7913  0.0835 -1.3084
 7226SOL    HW222812   4.756   3.009   3.215 -0.2135  3.2772  0.6543
 7227SOL     OW22813   8.340   2.839   3.546 -0.6332 -0.0574  0.0222
 7227SOL    HW122814   8.329   2.859   3.453 -0.2467 -0.7769 -0.1847
 7227SOL    HW222815   8.413   2.894   3.574  0.2877 -0.9843 -0.4919
 7228SOL     OW22816   1.140   8.922   8.180 -0.3034 -0.0108 -0.3282
 7228SOL    HW122817   1.174   8.866   8.110  0.6291  0.6405 -0.4198
 7228SOL    HW222818   1.103   8.861   8.244  0.4270 -0.7157 -0.5582
 7229SOL     OW22819   1.327   1.495   2.652  0.1437 -0.3996  0.0119
 7229SOL    HW122820   1.308   1.555   2.579 -1.1110 -0.8087 -0.0209
 7229SOL    HW222821   1.422   1.481   2.648  0.3729  1.0752 -0.3736
 7230SOL     OW22822   1.540   0.384   7.160 -0.6977  0.2567 -0.9076
 7230SOL    HW122823   1.612   0.365   7.100 -0.5815 -0.6403 -0.5060
 7230SOL    HW222824   1.565   0.342   7.242 -0.2104  2.6337  0.2187
 7231SOL     OW22825   3.199   2.220   8.836  0.4889  0.1950  0.0370
 7231SOL    HW122826   3.166   2.262   8.915 -0.7030  2.3175 -1.4805
 7231SOL    HW222827   3.279   2.267   8.814  0.9296 -0.5182  0.0838
 7232SOL     OW22828   3.394   3.580   8.437 -0.4475  0.0152 -0.3725
 7232SOL    HW122829   3.456   3.508   8.447  0.3632  0.3911 -2.2165
 7232SOL    HW222830   3.398   3.602   8.344 -2.6892  0.6600 -0.3875
 7233SOL     OW22831   7.359   7.408   4.936 -0.1844  0.6216 -0.0805
 7233SOL    HW122832   7.264   7.414   4.922 -0.2174  1.2966  0.3837
 7233SOL    HW222833   7.370   7.415   5.031  0.2958  0.0073 -0.0863
 7234SOL     OW22834   7.694   4.140   5.503  0.1152 -0.2233 -0.3416
 7234SOL    HW122835   7.714   4.063   5.449 -1.0046 -0.3121 -0.6554
 7234SOL    HW222836   7.763   4.203   5.481  0.9300 -1.0546 -0.2315
 7235SOL     OW22837   4.668   6.090   5.328 -0.4958  0.1858  0.0204
 7235SOL    HW122838   4.761   6.110   5.332 -0.4507 -0.0213  0.0304
 7235SOL    HW222839   4.639   6.126   5.244 -0.9374  2.4301  1.0480
 7236SOL     OW22840   4.013   3.480   0.232  0.2293 -0.0048  0.7303
 7236SOL    HW122841   3.969   3.545   0.175  0.7560  0.4828  0.8694
 7236SOL    HW222842   4.092   3.524   0.261  0.5947 -0.7237  0.8341
 7237SOL     OW22843   8.508   6.901   0.604 -0.4263 -0.1452  0.6291
 7237SOL    HW122844   8.547   6.900   0.517 -1.9915 -0.1915 -0.1099
 7237SOL    HW222845   8.566   6.847   0.657 -0.6934 -2.1275 -0.9689
 7238SOL     OW22846   4.951   4.489   1.629 -0.1192 -0.2549  0.2553
 7238SOL    HW122847   4.927   4.581   1.617 -1.0238 -0.5348 -0.1456
 7238SOL    HW222848   4.969   4.481   1.723  0.5142  0.4459  0.2077
 7239SOL     OW22849   2.421   4.144   6.436 -0.3692 -0.1665 -0.1584
 7239SOL    HW122850   2.486   4.177   6.497 -2.1889  1.2231  1.1275
 7239SOL    HW222851   2.397   4.058   6.471  1.0041 -0.8827 -0.8802
 7240SOL     OW22852   4.842   2.144   6.717  0.1942  0.3128 -0.1768
 7240SOL    HW122853   4.880   2.060   6.745 -0.0555 -0.1380 -1.1226
 7240SOL    HW222854   4.915   2.205   6.718  0.8856 -0.4460 -1.5553
 7241SOL     OW22855   3.529   6.466   3.860 -0.0560  0.3139  0.1848
 7241SOL    HW122856   3.503   6.534   3.921 -0.8716 -0.2444  0.4668
 7241SOL    HW222857   3.568   6.398   3.914 -1.0746 -0.3267  0.1446
 7242SOL     OW22858   2.034   3.284   5.235 -0.5299 -0.0321 -0.0510
 7242SOL    HW122859   1.945   3.263   5.206 -0.5986 -0.0551  0.1717
 7242SOL    HW222860   2.083   3.299   5.154 -0.5195 -0.8980 -0.2212
 7243SOL     OW22861   6.860   8.733   6.800  0.4854 -0.0911  0.2689
 7243SOL    HW122862   6.811   8.756   6.879 -0.3046 -1.5403  0.2309
 7243SOL    HW222863   6.928   8.673   6.831  0.3973 -0.3838 -0.1047
 7244SOL     OW22864   2.563   7.702   6.402 -0.4992 -0.4325  0.3007
 7244SOL    HW122865   2.636   7.753   6.366  0.3469 -0.8153  1.4226
 7244SOL    HW222866   2.552   7.735   6.491 -1.6374 -0.4598  0.1862
 7245SOL     OW22867   4.060   6.920   7.503 -0.0303 -0.2696 -0.1121
 7245SOL    HW122868   4.071   7.009   7.468 -0.1598 -0.8974 -1.8270
 7245SOL    HW222869   4.130   6.869   7.463 -1.2306 -1.4014 -0.8642
 7246SOL     OW22870   7.001   8.906   7.957  0.4155  0.2451  0.1150
 7246SOL    HW122871   7.075   8.945   8.004  0.8622  2.1307 -1.9737
 7246SOL    HW222872   6.964   8.979   7.906 -1.2187 -1.2441 -0.9403
 7247SOL     OW22873   5.727   6.626   1.959 -0.2264 -0.0448 -0.4600
 7247SOL    HW122874   5.782   6.599   1.886  2.2390 -1.6467  1.8066
 7247SOL    HW222875   5.724   6.549   2.017 -1.7999  1.2406  1.2994
 7248SOL     OW22876   6.337   3.459   3.571  0.2452  0.3432  0.1392
 7248SOL    HW122877   6.414   3.506   3.603  0.6252  0.5696 -1.0490
 7248SOL    HW222878   6.345   3.371   3.608  0.5300  0.6540  0.8402
 7249SOL     OW22879   3.455   6.691   5.126  0.0773 -0.0434 -0.0115
 7249SOL    HW122880   3.543   6.689   5.165 -0.3955 -1.5036  1.0284
 7249SOL    HW222881   3.448   6.779   5.089  0.9906  1.0479  2.2107
 7250SOL     OW22882   3.366   1.820   1.664  0.7145  0.1020 -0.3808
 7250SOL    HW122883   3.431   1.858   1.724  0.1816  0.7994 -0.2400
 7250SOL    HW222884   3.319   1.895   1.628 -0.3749 -0.4080 -0.0725
 7251SOL     OW22885   9.050   2.672   7.401  0.4010  0.0456  0.3595
 7251SOL    HW122886   9.123   2.721   7.362 -0.0263 -0.3240 -0.9676
 7251SOL    HW222887   9.082   2.643   7.486  1.2521  1.1998  0.4533
 7252SOL     OW22888   1.723   0.933   8.660  0.3984  0.5716 -0.4092
 7252SOL    HW122889   1.723   1.029   8.667  1.3422  0.5257  0.4371
 7252SOL    HW222890   1.642   0.905   8.702  0.1652  0.9936 -0.5753
 7253SOL     OW22891   2.692   0.529   0.070 -0.0798  0.3883  0.2690
 7253SOL    HW122892   2.629   0.457   0.077 -1.1745  1.3410  0.6028
 7253SOL    HW222893   2.660   0.582  -0.003 -0.4407  1.5894  1.2595
 7254SOL     OW22894   3.051   3.309   0.399  0.1103 -0.0800 -0.2164
 7254SOL    HW122895   2.977   3.290   0.342  0.0266 -0.1168 -0.0964
 7254SOL    HW222896   3.070   3.402   0.384 -1.4806  0.5824  1.4894
 7255SOL     OW22897   0.183   7.818   5.042 -0.8308  0.3081  0.0982
 7255SOL    HW122898   0.233   7.767   5.106  0.0504  0.3149 -0.5649
 7255SOL    HW222899   0.232   7.807   4.960 -0.2874  2.6317  0.0482
 7256SOL     OW22900   3.694   1.860   8.715 -0.1714  0.3567 -0.1872
 7256SOL    HW122901   3.655   1.944   8.691 -1.0964 -0.2732 -0.9950
 7256SOL    HW222902   3.662   1.844   8.804 -1.2557  0.1728 -0.5861
 7257SOL     OW22903   2.870   3.992   3.866 -0.5071  0.3906  0.0097
 7257SOL    HW122904   2.798   4.032   3.818 -0.1388  1.2480  0.1429
 7257SOL    HW222905   2.868   3.899   3.841 -2.2972  0.1663  0.8311
 7258SOL     OW22906   2.568   3.885   2.621 -0.3190 -0.0716 -0.2196
 7258SOL    HW122907   2.630   3.956   2.634  0.3052 -0.6153 -0.1510
 7258SOL    HW222908   2.584   3.825   2.694  0.2533 -1.0499 -1.1198
 7259SOL     OW22909   8.738   0.799   3.326  0.7523 -0.6081  0.1821
 7259SOL    HW122910   8.810   0.850   3.288  0.3275  0.2049  0.4302
 7259SOL    HW222911   8.683   0.865   3.369 -1.3781 -0.8728 -1.9412
 7260SOL     OW22912   8.212   5.487   0.465  0.0306 -0.4939  0.0605
 7260SOL    HW122913   8.176   5.572   0.490  1.8524  0.1087  0.8058
 7260SOL    HW222914   8.201   5.433   0.543  1.2891 -0.1065  0.5224
 7261SOL     OW22915   0.510   4.971   1.210  0.2825 -0.3936  0.0318
 7261SOL    HW122916   0.469   5.037   1.154 -2.3972 -0.9805  1.1515
 7261SOL    HW222917   0.505   4.890   1.159  1.9574 -0.1198 -0.6253
 7262SOL     OW22918   2.418   3.822   3.805 -0.0828 -0.2913  0.1812
 7262SOL    HW122919   2.322   3.818   3.805 -0.0685 -0.6267  0.3455
 7262SOL    HW222920   2.442   3.824   3.712 -0.3000  1.1491  0.1228
 7263SOL     OW22921   7.971   5.579   6.036 -0.0383  0.9024  0.0417
 7263SOL    HW122922   8.003   5.630   6.111  1.4845  0.1868 -0.0844
 7263SOL    HW222923   7.981   5.638   5.961  0.8361  0.7688  0.0380
 7264SOL     OW22924   6.913   6.617   0.241 -0.3339 -0.5821 -0.3771
 7264SOL    HW122925   6.979   6.567   0.194  0.1248 -1.5104  1.1847
 7264SOL    HW222926   6.906   6.575   0.327 -0.2170  1.7777  0.8996
 7265SOL     OW22927   2.965   6.691   8.041  0.2711 -0.6776  0.3470
 7265SOL    HW122928   2.960   6.691   7.946 -2.3292  0.7358  0.3787
 7265SOL    HW222929   2.997   6.778   8.064 -0.7614 -0.3844  0.7469
 7266SOL     OW22930   3.972   6.933   6.533 -0.0773  0.6436  0.2141
 7266SOL    HW122931   3.927   6.851   6.553  0.6946 -0.3308 -1.7735
 7266SOL    HW222932   4.021   6.954   6.612 -0.6463 -0.5501  0.9039
 7267SOL     OW22933   4.115   5.382   0.860  0.4808 -0.1589 -0.0864
 7267SOL    HW122934   4.207   5.371   0.838 -0.0902 -0.7598 -2.4874
 7267SOL    HW222935   4.088   5.296   0.893  0.9500  0.2568  1.4256
 7268SOL     OW22936   8.348   2.650   7.068  0.3527 -0.1332 -0.1233
 7268SOL    HW122937   8.384   2.619   6.985  1.2705  0.5534  0.0013
 7268SOL    HW222938   8.348   2.745   7.060 -1.1105 -0.0930  0.0354
 7269SOL     OW22939   7.536   4.679   8.799 -0.0168 -0.1448  0.0815
 7269SOL    HW122940   7.506   4.647   8.714  0.1172 -2.6897  0.9028
 7269SOL    HW222941   7.632   4.678   8.792  0.1023 -2.8442  0.9882
 7270SOL     OW22942   8.209   5.921   3.310 -0.2654 -0.5076 -0.0252
 7270SOL    HW122943   8.285   5.978   3.318 -0.4142 -0.1659 -0.9988
 7270SOL    HW222944   8.173   5.939   3.223 -0.0222 -2.4473 -0.5863
 7271SOL     OW22945   5.853   0.883   1.550  0.3239  0.0916  0.0652
 7271SOL    HW122946   5.928   0.937   1.525 -0.3466  1.3528  0.6632
 7271SOL    HW222947   5.831   0.914   1.638 -0.4457 -0.7702  0.1786
 7272SOL     OW22948   4.109   8.798   3.693  0.3205  0.4289  0.4688
 7272SOL    HW122949   4.129   8.744   3.616  4.0503  0.4367  1.2448
 7272SOL    HW222950   4.149   8.883   3.673 -0.6680  1.1719  1.5330
 7273SOL     OW22951   2.647   4.734   5.224  0.1602  0.2318  0.0195
 7273SOL    HW122952   2.731   4.767   5.257  0.1015 -0.6626  1.1676
 7273SOL    HW222953   2.669   4.652   5.179 -0.3870 -2.5934  4.2365
 7274SOL     OW22954   3.948   5.021   6.539 -0.0335  0.0736 -0.1107
 7274SOL    HW122955   3.887   5.030   6.612 -1.1671  0.0451 -1.0150
 7274SOL    HW222956   3.895   4.987   6.467  0.3240  2.7467 -1.8208
 7275SOL     OW22957   3.337   2.675   8.832  0.5763  0.4294 -0.4089
 7275SOL    HW122958   3.372   2.691   8.920 -0.6108  0.3434  0.1081
 7275SOL    HW222959   3.369   2.748   8.780 -0.4621  1.6904  0.6355
 7276SOL     OW22960   2.212   8.363   7.472 -0.6814 -0.0330  0.2085
 7276SOL    HW122961   2.285   8.412   7.509 -0.2555  0.6250 -1.4270
 7276SOL    HW222962   2.234   8.271   7.487  0.1443  0.1833  0.3398
 7277SOL     OW22963   3.214   6.040   2.806 -0.6329  0.2463 -0.0271
 7277SOL    HW122964   3.125   6.054   2.838 -0.2965 -0.8612  1.4726
 7277SOL    HW222965   3.227   5.946   2.809  0.7590  0.4185  0.2495
 7278SOL     OW22966   7.701   5.204   5.474  0.0268  0.5391  0.0265
 7278SOL    HW122967   7.692   5.251   5.557  0.0495 -0.0262  0.3520
 7278SOL    HW222968   7.619   5.155   5.464 -0.2773  1.1619 -0.6450
 7279SOL     OW22969   0.989   4.825   4.106 -0.0439  0.1774 -0.8129
 7279SOL    HW122970   0.894   4.830   4.110 -0.0603  0.2582 -1.2579
 7279SOL    HW222971   1.019   4.877   4.181 -0.3583 -0.8864  0.0842
 7280SOL     OW22972   1.468   2.081   2.185  0.0205 -0.2978  0.3008
 7280SOL    HW122973   1.526   2.031   2.127 -0.9936 -1.0795 -0.0788
 7280SOL    HW222974   1.382   2.042   2.171 -0.6473  0.9861  0.6707
 7281SOL     OW22975   5.367   4.679   7.379  0.1032  0.6300  0.0694
 7281SOL    HW122976   5.459   4.653   7.380  0.0856  0.5383  1.5909
 7281SOL    HW222977   5.336   4.654   7.292  0.9034 -1.5431  0.3468
 7282SOL     OW22978   8.137   2.856   0.748 -0.4330  0.8704 -0.1357
 7282SOL    HW122979   8.215   2.913   0.745  0.5258 -0.2086  1.9913
 7282SOL    HW222980   8.120   2.835   0.656 -0.1476  3.6345 -0.9146
 7283SOL     OW22981   8.958   5.476   5.287 -0.3199 -0.1121 -0.1418
 7283SOL    HW122982   9.003   5.457   5.369 -0.7104  0.3818  0.1949
 7283SOL    HW222983   8.872   5.507   5.314  0.6974  3.4692 -0.5375
 7284SOL     OW22984   4.767   1.307   5.515  0.2272 -0.3581  0.2574
 7284SOL    HW122985   4.750   1.314   5.422  2.5398  2.2575 -0.1162
 7284SOL    HW222986   4.836   1.241   5.523  0.2928 -0.3130  0.0585
 7285SOL     OW22987   7.767   6.259   3.180 -0.3379 -0.1663  0.1565
 7285SOL    HW122988   7.781   6.345   3.140 -1.5446 -0.5827 -1.2135
 7285SOL    HW222989   7.683   6.267   3.225 -0.0619 -0.3928  0.7226
 7286SOL     OW22990   1.137   3.744   3.747  0.0241  0.0096  0.2864
 7286SOL    HW122991   1.150   3.654   3.715 -0.4183 -0.4973  1.4480
 7286SOL    HW222992   1.048   3.744   3.782  0.4175  0.5682  1.3302
 7287SOL     OW22993   5.723   2.800   8.857  0.3110  0.0105 -0.1159
 7287SOL    HW122994   5.681   2.809   8.943  1.6161  1.3447  0.4389
 7287SOL    HW222995   5.814   2.827   8.873  1.3296 -2.4276 -1.3198
 7288SOL     OW22996   3.333   4.306   6.034  0.9345  0.4895 -0.2643
 7288SOL    HW122997   3.425   4.327   6.017  1.5658 -2.2382 -0.6559
 7288SOL    HW222998   3.326   4.302   6.129  1.3003  0.4240 -0.2391
 7289SOL     OW22999   0.125   0.244   2.773 -0.1235 -0.4533 -0.4577
 7289SOL    HW123000   0.031   0.250   2.792 -0.3948 -0.6280 -1.7069
 7289SOL    HW223001   0.137   0.155   2.741  0.4141 -0.3176 -0.6351
 7290SOL     OW23002   7.754   3.949   0.706  0.2739  0.2783  0.0902
 7290SOL    HW123003   7.808   3.937   0.784 -0.4935 -0.0762  0.5819
 7290SOL    HW223004   7.739   3.860   0.673  0.7595  0.4335 -0.5945
 7291SOL     OW23005   7.156   8.786   0.446  0.0603  0.3685 -0.2627
 7291SOL    HW123006   7.070   8.797   0.486 -0.5686 -0.6567 -1.2662
 7291SOL    HW223007   7.142   8.804   0.353  1.0368  0.6417 -0.3687
 7292SOL     OW23008   5.050   4.737   3.829 -0.9221  0.6129 -0.0019
 7292SOL    HW123009   5.002   4.807   3.873 -0.8823 -0.0685  1.1703
 7292SOL    HW223010   4.995   4.712   3.755 -0.7622  2.1166 -0.6565
 7293SOL     OW23011   7.150   8.210   6.349 -0.5757  0.0712  0.0765
 7293SOL    HW123012   7.159   8.303   6.372 -1.0482  0.6500 -1.8719
 7293SOL    HW223013   7.071   8.182   6.396 -0.6773  0.7637  0.3428
 7294SOL     OW23014   4.297   7.217   7.865 -0.0272 -0.0794 -0.2586
 7294SOL    HW123015   4.312   7.311   7.871 -0.4185  0.0918 -1.5584
 7294SOL    HW223016   4.300   7.186   7.955  1.9323  0.8755  0.0456
 7295SOL     OW23017   8.080   6.259   3.025  0.1352  0.0694  0.0649
 7295SOL    HW123018   8.076   6.326   3.093  0.9979 -0.5801  0.7772
 7295SOL    HW223019   8.020   6.290   2.957 -1.2359  0.4287  1.3925
 7296SOL     OW23020   2.992   7.227   0.067  0.2565  0.5750  0.0265
 7296SOL    HW123021   2.939   7.252   0.143 -1.0752 -0.1794 -0.6151
 7296SOL    HW223022   3.022   7.310   0.031 -2.6766  1.2875 -1.0817
 7297SOL     OW23023   8.295   5.076   3.820 -0.4895 -0.4123  0.4105
 7297SOL    HW123024   8.251   5.023   3.754 -0.4577 -0.3948  0.3748
 7297SOL    HW223025   8.388   5.057   3.807 -0.5731 -1.8813  1.6873
 7298SOL     OW23026   4.799   7.027   6.503 -0.4614  0.7740  0.5077
 7298SOL    HW123027   4.830   7.103   6.551  0.6325  0.3280  0.5458
 7298SOL    HW223028   4.826   6.952   6.556 -0.2025  0.3101 -0.2517
 7299SOL     OW23029   3.158   5.277   6.697 -0.8382  0.0175 -0.2090
 7299SOL    HW123030   3.145   5.363   6.656 -2.3357 -0.1425 -0.1076
 7299SOL    HW223031   3.089   5.222   6.660 -1.7254 -0.3552  1.8681
 7300SOL     OW23032   2.276   7.965   1.447 -0.2191 -0.5699 -0.3257
 7300SOL    HW123033   2.236   7.936   1.365 -2.3473 -0.6907  0.6783
 7300SOL    HW223034   2.267   7.890   1.506  2.5566 -0.9867 -0.3243
 7301SOL     OW23035   3.176   0.906   4.955 -0.2945  0.4443 -0.7493
 7301SOL    HW123036   3.128   0.826   4.977 -0.3712  0.6876 -0.0152
 7301SOL    HW223037   3.205   0.892   4.864 -1.6467  0.2507 -1.1736
 7302SOL     OW23038   8.182   0.709   5.035  0.3461  0.8149 -0.3698
 7302SOL    HW123039   8.201   0.618   5.056  4.3744  1.7038  0.7311
 7302SOL    HW223040   8.093   0.723   5.067 -0.3639 -2.6072 -0.4345
 7303SOL     OW23041   6.451   2.435   0.805  0.4230  0.0414  0.0069
 7303SOL    HW123042   6.402   2.367   0.758 -2.1391  0.8519  1.2984
 7303SOL    HW223043   6.460   2.401   0.894 -1.1986  1.4437  0.7661
 7304SOL     OW23044   1.029   7.956   3.074 -0.2076 -0.4731  0.1129
 7304SOL    HW123045   1.053   7.870   3.040  0.6738 -0.7765  1.4275
 7304SOL    HW223046   1.095   7.975   3.140  0.0862  1.5946 -0.6987
 7305SOL     OW23047   7.334   7.690   8.308 -0.3581  0.1387 -0.0828
 7305SOL    HW123048   7.387   7.662   8.233 -0.9969  1.9135 -1.2740
 7305SOL    HW223049   7.259   7.630   8.308 -0.9614  0.8057 -1.6692
 7306SOL     OW23050   4.185   4.852   7.080  0.0465  0.6098  0.1980
 7306SOL    HW123051   4.187   4.775   7.022  1.1523  0.4555  0.4163
 7306SOL    HW223052   4.094   4.857   7.110 -0.4039  0.3281 -1.0622
 7307SOL     OW23053   7.621   7.547   8.869  0.0989 -0.1513 -0.0476
 7307SOL    HW123054   7.525   7.553   8.877 -0.0639 -2.5292  0.4264
 7307SOL    HW223055   7.654   7.611   8.932 -1.1642  1.1625 -0.6703
 7308SOL     OW23056   6.452   6.868   6.309 -0.2486  0.0455  0.5140
 7308SOL    HW123057   6.489   6.780   6.312 -1.0902 -0.4083 -1.2430
 7308SOL    HW223058   6.371   6.862   6.360 -0.2911 -0.1913  0.4188
 7309SOL     OW23059   3.997   3.514   2.038  0.4430 -0.1797 -0.2365
 7309SOL    HW123060   4.068   3.511   1.974 -1.0442 -1.0528 -1.9086
 7309SOL    HW223061   4.007   3.600   2.080  1.3314  0.5125 -1.7822
 7310SOL     OW23062   8.518   7.133   1.151  0.1425 -0.3835 -0.8880
 7310SOL    HW123063   8.579   7.205   1.161 -1.1163  0.5380  0.6731
 7310SOL    HW223064   8.500   7.129   1.057  2.1610 -0.3688 -1.3122
 7311SOL     OW23065   8.061   7.219   1.877  0.1051 -0.2056 -0.1006
 7311SOL    HW123066   7.968   7.203   1.860 -0.2556 -1.4345  2.5702
 7311SOL    HW223067   8.097   7.133   1.899  2.1311  0.0880 -1.9184
 7312SOL     OW23068   1.389   5.123   3.612  0.5854 -0.5618 -0.3760
 7312SOL    HW123069   1.350   5.073   3.684 -1.1862 -2.9805 -2.8090
 7312SOL    HW223070   1.468   5.075   3.590 -0.1563 -1.2867 -1.5467
 7313SOL     OW23071   4.083   6.115   8.596  0.2930 -0.4081 -0.1746
 7313SOL    HW123072   4.074   6.210   8.592 -1.3742 -0.5610 -0.4953
 7313SOL    HW223073   4.090   6.087   8.505  0.9228 -0.6008 -0.0764
 7314SOL     OW23074   8.253   1.992   1.204  0.2962 -0.0945  0.2529
 7314SOL    HW123075   8.211   2.036   1.130 -0.4075 -1.6882 -0.3304
 7314SOL    HW223076   8.227   2.043   1.280  0.5397  1.2175 -0.5161
 7315SOL     OW23077   7.007   1.575   8.342  0.2075 -0.3142  0.1712
 7315SOL    HW123078   7.041   1.627   8.269 -0.4183  1.2392  0.9352
 7315SOL    HW223079   7.042   1.487   8.328 -0.3234 -0.2032 -2.2818
 7316SOL     OW23080   2.720   5.588   2.257  0.3312 -0.0821 -0.2129
 7316SOL    HW123081   2.669   5.668   2.252  0.9548  0.2968 -0.6168
 7316SOL    HW223082   2.810   5.616   2.244  0.6215 -0.7750  0.2307
 7317SOL     OW23083   6.855   3.804   5.834  0.6687  0.5175 -0.2042
 7317SOL    HW123084   6.828   3.819   5.925  2.1897 -0.0116  0.3669
 7317SOL    HW223085   6.801   3.730   5.806 -0.4346  1.2359 -0.0386
 7318SOL     OW23086   7.715   2.537   4.623 -0.2809 -0.1250  0.1942
 7318SOL    HW123087   7.702   2.442   4.616  0.0060 -0.1421 -0.1112
 7318SOL    HW223088   7.705   2.555   4.717  0.2174 -0.5435  0.3352
 7319SOL     OW23089   6.216   5.119   8.039  0.2391 -0.4541  0.5212
 7319SOL    HW123090   6.195   5.209   8.014  0.4394 -0.8789 -1.3028
 7319SOL    HW223091   6.308   5.122   8.064  0.1135 -0.0728  0.9607
 7320SOL     OW23092   7.268   0.989   1.891  0.4863 -0.5304  0.2367
 7320SOL    HW123093   7.184   1.031   1.911  0.4313 -0.7430  0.4528
 7320SOL    HW223094   7.305   0.967   1.977  0.5219 -0.9139  0.1223
 7321SOL     OW23095   1.480   0.933   8.812  0.3420  0.5203  0.5026
 7321SOL    HW123096   1.414   0.988   8.854 -0.2910 -0.4217  0.7715
 7321SOL    HW223097   1.487   0.856   8.869  1.0101  0.1913 -0.0072
 7322SOL     OW23098   6.075   2.693   2.740  0.2485  0.0734  0.1635
 7322SOL    HW123099   6.116   2.768   2.695  0.4026 -0.9212 -1.4221
 7322SOL    HW223100   6.147   2.654   2.790  0.4919  0.2156 -0.0678
 7323SOL     OW23101   0.501   3.441   4.878  0.3314 -0.2326 -0.1214
 7323SOL    HW123102   0.462   3.416   4.961 -0.4269 -1.0574 -0.7043
 7323SOL    HW223103   0.446   3.400   4.812  1.9105 -1.0563 -0.9977
 7324SOL     OW23104   8.201   2.779   4.258 -0.0222 -0.0994  0.1161
 7324SOL    HW123105   8.176   2.805   4.347  0.6708  0.6752  0.1037
 7324SOL    HW223106   8.123   2.794   4.205  0.3201  1.9804  0.1231
 7325SOL     OW23107   2.657   3.654   3.176 -0.5433 -0.5202 -0.5604
 7325SOL    HW123108   2.608   3.735   3.190 -1.1292 -0.9874  0.1169
 7325SOL    HW223109   2.627   3.622   3.091  1.1287  0.9706 -1.7961
 7326SOL     OW23110   7.230   0.057   1.074  0.1779  0.3755  0.0391
 7326SOL    HW123111   7.309   0.048   1.021 -0.8239 -1.4624 -1.2721
 7326SOL    HW223112   7.239   0.142   1.117  2.5932  0.4583 -0.4755
 7327SOL     OW23113   6.611   1.366   5.506 -0.0920 -0.3434  0.5342
 7327SOL    HW123114   6.561   1.368   5.588 -0.0549 -0.0730  0.5525
 7327SOL    HW223115   6.695   1.327   5.531  0.3851  0.8608  0.8994
 7328SOL     OW23116   1.101   6.023   0.399 -0.2344  0.6881  0.1589
 7328SOL    HW123117   1.051   5.995   0.476 -0.4898  0.0855 -0.2219
 7328SOL    HW223118   1.146   5.943   0.370  0.6316  1.1276  0.2546
 7329SOL     OW23119   5.883   5.557   2.593 -0.0483  0.5787 -0.7039
 7329SOL    HW123120   5.869   5.547   2.498 -1.1483 -2.5839 -0.3407
 7329SOL    HW223121   5.839   5.481   2.631  3.4732 -0.3545  2.0549
 7330SOL     OW23122   1.052   1.816   2.508 -0.1042  0.2399 -0.3837
 7330SOL    HW123123   0.991   1.822   2.582  0.6049  2.6516  0.0934
 7330SOL    HW223124   1.002   1.771   2.440 -2.4649  2.0514  0.0141
 7331SOL     OW23125   2.489   5.868   4.548  0.1253 -0.3320 -0.1091
 7331SOL    HW123126   2.420   5.896   4.489  0.7890  0.4099 -0.5422
 7331SOL    HW223127   2.475   5.919   4.628 -0.2526 -0.7097  0.0714
 7332SOL     OW23128   2.013   3.171   3.812 -0.3181 -0.5365 -0.1498
 7332SOL    HW123129   1.981   3.243   3.758 -0.4799  1.6294  2.5945
 7332SOL    HW223130   1.934   3.137   3.855  0.1632  0.1134  1.2983
 7333SOL     OW23131   7.107   7.624   1.529 -0.2156  0.1803  0.4171
 7333SOL    HW123132   7.157   7.556   1.483 -1.1755 -0.4581  0.3079
 7333SOL    HW223133   7.057   7.667   1.461 -0.2536  0.4406  0.6106
 7334SOL     OW23134   1.325   3.786   7.718 -0.2681 -0.0029  0.3141
 7334SOL    HW123135   1.300   3.731   7.644 -1.1412  2.2853 -1.2365
 7334SOL    HW223136   1.319   3.729   7.794  0.1088 -2.3190 -1.2870
 7335SOL     OW23137   7.625   6.573   7.069  0.3748  0.2512 -0.6016
 7335SOL    HW123138   7.533   6.582   7.092  0.7159  0.4427  0.7306
 7335SOL    HW223139   7.624   6.560   6.974 -1.0319 -0.0184 -0.5721
 7336SOL     OW23140   8.460   5.923   7.166 -0.4558 -0.8563 -0.1416
 7336SOL    HW123141   8.549   5.947   7.191 -0.0310 -1.4016 -1.0478
 7336SOL    HW223142   8.413   5.913   7.248  0.3271 -0.5699  0.3477
 7337SOL     OW23143   4.221   3.766   7.416 -0.2362  0.1755 -0.6255
 7337SOL    HW123144   4.184   3.853   7.430  0.9942  0.8452 -1.3768
 7337SOL    HW223145   4.152   3.706   7.445 -1.0788  1.3886 -0.0236
 7338SOL     OW23146   0.692   8.551   2.542 -0.1207 -0.0012  0.4650
 7338SOL    HW123147   0.646   8.626   2.580  1.6195  0.3066  2.1303
 7338SOL    HW223148   0.734   8.587   2.463 -0.8112  0.2912  0.2237
 7339SOL     OW23149   9.068   8.258   8.830 -0.8466  0.1065 -0.1957
 7339SOL    HW123150   9.078   8.223   8.741 -0.5212 -0.9821  0.2600
 7339SOL    HW223151   9.079   8.182   8.887 -2.8906  0.4205  0.7237
 7340SOL     OW23152   3.541   4.193   7.074  0.4767 -0.0725 -0.5216
 7340SOL    HW123153   3.568   4.108   7.109 -0.3777 -0.1366  0.0301
 7340SOL    HW223154   3.445   4.190   7.077  0.3554  1.9711  2.2573
 7341SOL     OW23155   0.808   9.075   4.707 -0.2841  0.4027 -0.2835
 7341SOL    HW123156   0.861   9.049   4.783  1.6589 -0.6849 -1.9298
 7341SOL    HW223157   0.726   9.028   4.719  0.7821 -1.4760  0.1087
 7342SOL     OW23158   5.544   1.614   5.579 -0.0921  0.0322 -0.0015
 7342SOL    HW123159   5.505   1.563   5.650  0.7255 -0.6710 -0.0443
 7342SOL    HW223160   5.580   1.548   5.520  0.9874  0.6581 -0.0528
 7343SOL     OW23161   1.604   0.332   1.474  0.4425  0.5905 -0.1045
 7343SOL    HW123162   1.674   0.385   1.512  1.2829 -0.9760  0.6513
 7343SOL    HW223163   1.578   0.273   1.545 -0.0652 -0.3786 -1.0679
 7344SOL     OW23164   6.121   7.653   6.140 -0.1604  0.1502  0.4043
 7344SOL    HW123165   6.187   7.606   6.089  1.8358  1.8133  1.3179
 7344SOL    HW223166   6.094   7.726   6.084 -1.5010 -0.6745 -0.0767
 7345SOL     OW23167   7.640   7.938   4.907 -0.1347  0.0417 -0.1645
 7345SOL    HW123168   7.614   8.024   4.874 -0.1578  0.4566  0.9006
 7345SOL    HW223169   7.655   7.952   5.000 -0.4633 -1.1855  0.0838
 7346SOL     OW23170   3.768   3.212   0.662 -0.0925  0.5721  0.1191
 7346SOL    HW123171   3.675   3.231   0.661 -0.2499 -0.1633  0.0038
 7346SOL    HW223172   3.803   3.254   0.584 -0.7135 -0.9523 -1.0304
 7347SOL     OW23173   0.654   4.101   3.092  0.0678 -0.2084  0.0560
 7347SOL    HW123174   0.727   4.040   3.103 -0.7083 -1.7041 -2.4024
 7347SOL    HW223175   0.683   4.162   3.024  0.0050  0.9248  0.9924
 7348SOL     OW23176   6.108   6.346   1.682 -0.3568  0.4953  0.2096
 7348SOL    HW123177   6.160   6.407   1.629 -0.3488  0.7233  0.4759
 7348SOL    HW223178   6.174   6.294   1.728 -0.3629  0.4696  0.1891
 7349SOL     OW23179   1.701   2.745   2.039 -0.5557  0.0214  0.1744
 7349SOL    HW123180   1.787   2.786   2.035 -0.7067  0.2892 -0.4525
 7349SOL    HW223181   1.718   2.657   2.073 -0.3495  0.8787  2.4320
 7350SOL     OW23182   2.785   8.310   8.155 -0.5967  0.5464 -0.1424
 7350SOL    HW123183   2.757   8.328   8.244 -0.1164 -0.3315  0.2024
 7350SOL    HW223184   2.833   8.388   8.128  1.5053 -0.1399  1.3189
 7351SOL     OW23185   0.938   3.910   0.043 -0.3063 -0.2269  0.5833
 7351SOL    HW123186   0.999   3.871  -0.019 -1.1562  0.6771 -0.8612
 7351SOL    HW223187   0.882   3.837   0.071  0.4184 -0.7415  0.7289
 7352SOL     OW23188   4.409   6.257   5.263 -0.5545  0.3713 -0.5364
 7352SOL    HW123189   4.474   6.324   5.244 -0.2228  0.5721  1.1432
 7352SOL    HW223190   4.330   6.305   5.288 -0.1580  0.1994  1.2005
 7353SOL     OW23191   0.055   1.354   8.876 -0.0512  0.2400  0.4696
 7353SOL    HW123192   0.013   1.432   8.913  0.7012  1.3123 -0.8176
 7353SOL    HW223193   0.147   1.363   8.900  0.8124  1.8231 -2.7581
 7354SOL     OW23194   2.291   4.561   1.634  0.1687  0.0201 -0.0515
 7354SOL    HW123195   2.199   4.589   1.633  0.5031  1.2565  1.0526
 7354SOL    HW223196   2.331   4.615   1.702  1.5739 -0.9823 -0.0610
 7355SOL     OW23197   4.537   4.480   4.714  0.9008 -0.3861  0.2796
 7355SOL    HW123198   4.494   4.443   4.636  0.6378 -1.5520  0.9480
 7355SOL    HW223199   4.486   4.558   4.735 -0.1323 -1.0343  0.2997
 7356SOL     OW23200   0.042   5.162   0.364  0.4989 -0.4936  0.0648
 7356SOL    HW123201   0.058   5.073   0.333  0.3969 -0.2240 -0.7881
 7356SOL    HW223202  -0.046   5.183   0.333  0.4308 -0.1727  0.4637
 7357SOL     OW23203   0.447   5.697   5.907  0.5090  0.3221 -0.2863
 7357SOL    HW123204   0.523   5.661   5.953 -1.4792 -1.6476  1.7185
 7357SOL    HW223205   0.378   5.701   5.974 -1.4194  1.1572 -2.1919
 7358SOL     OW23206   0.396   6.634   6.406 -0.3761 -0.0132  0.2749
 7358SOL    HW123207   0.347   6.661   6.328  0.0464 -0.1679 -0.0515
 7358SOL    HW223208   0.375   6.541   6.417  0.3364 -0.2445 -0.2464
 7359SOL     OW23209   4.639   4.183   8.875  0.1635  0.2761 -0.0064
 7359SOL    HW123210   4.628   4.211   8.784  0.7943  1.2113  0.1897
 7359SOL    HW223211   4.674   4.260   8.920  0.9527 -0.5073  0.7790
 7360SOL     OW23212   3.192   3.821   6.322 -0.0604 -0.4132  0.4179
 7360SOL    HW123213   3.288   3.827   6.322  0.1187  0.7551 -4.2524
 7360SOL    HW223214   3.174   3.728   6.334  1.7238 -0.8159  0.3165
 7361SOL     OW23215   2.463   2.017   6.428  0.4498  0.3259 -0.7801
 7361SOL    HW123216   2.482   1.958   6.355  0.1311 -1.4229  0.4893
 7361SOL    HW223217   2.463   2.105   6.388 -0.7023 -0.6236 -3.0831
 7362SOL     OW23218   7.199   3.678   3.461  0.4605  0.2694 -0.5547
 7362SOL    HW123219   7.190   3.719   3.375  0.2335 -0.6912 -1.0058
 7362SOL    HW223220   7.268   3.612   3.448 -1.1342 -1.4664 -0.6434
 7363SOL     OW23221   3.414   6.171   1.791  0.1748  0.5596  0.3143
 7363SOL    HW123222   3.397   6.137   1.704  0.0304  0.0217  0.5525
 7363SOL    HW223223   3.408   6.095   1.849  0.0378  0.9482  0.8223
 7364SOL     OW23224   1.504   5.781   5.355  0.2136 -0.1918 -0.5097
 7364SOL    HW123225   1.416   5.816   5.364  0.9238  1.4001  0.8289
 7364SOL    HW223226   1.548   5.843   5.296  1.1842  0.6420  1.0277
 7365SOL     OW23227   3.179   2.742   4.276 -0.4617  0.2096 -0.2460
 7365SOL    HW123228   3.232   2.712   4.349  0.3786 -0.3423 -1.0540
 7365SOL    HW223229   3.092   2.707   4.293 -0.2591  0.0310  0.4462
 7366SOL     OW23230   2.751   8.216   1.587  0.1211 -0.4010 -0.2092
 7366SOL    HW123231   2.749   8.292   1.644 -0.8148 -0.1582 -0.5536
 7366SOL    HW223232   2.659   8.195   1.571  0.3431 -0.2850 -1.8365
 7367SOL     OW23233   4.181   0.169   7.867  0.1275 -0.0044 -0.1668
 7367SOL    HW123234   4.115   0.195   7.931  0.2447  0.3643 -0.1914
 7367SOL    HW223235   4.249   0.236   7.875  1.5500 -1.5337  1.4019
 7368SOL     OW23236   6.936   5.431   7.027  0.3477  0.0834  0.8876
 7368SOL    HW123237   7.024   5.461   7.052  0.5554 -1.0269  1.5888
 7368SOL    HW223238   6.905   5.496   6.964  0.7026  1.8213  2.4100
 7369SOL     OW23239   1.908   2.852   8.238  0.7925  0.3874 -0.0246
 7369SOL    HW123240   1.923   2.774   8.291  3.0562  1.3854  0.9468
 7369SOL    HW223241   1.953   2.834   8.156  1.0419  0.5394  0.0781
 7370SOL     OW23242   7.633   4.444   2.885  0.2310  0.7308 -0.4956
 7370SOL    HW123243   7.682   4.511   2.933 -1.3499  0.6157  1.4286
 7370SOL    HW223244   7.683   4.364   2.898  0.1059  0.8111  0.5487
 7371SOL     OW23245   2.832   2.631   6.842 -0.0627 -0.8688 -0.2368
 7371SOL    HW123246   2.821   2.701   6.779  1.1628  1.4304  1.9128
 7371SOL    HW223247   2.744   2.597   6.858 -0.7367  0.4498 -1.0561
 7372SOL     OW23248   8.117   7.020   0.497  0.3062  0.0658 -0.2075
 7372SOL    HW123249   8.163   7.017   0.414 -1.4451 -0.9059 -1.2035
 7372SOL    HW223250   8.089   7.111   0.506 -2.6113 -0.4290 -2.5775
 7373SOL     OW23251   5.876   8.277   5.573 -0.9865 -0.0216 -0.8696
 7373SOL    HW123252   5.835   8.355   5.536 -1.2537  0.1817 -0.1590
 7373SOL    HW223253   5.970   8.296   5.570 -0.8860 -0.6241 -2.8137
 7374SOL     OW23254   6.012   7.056   5.086  0.5835  0.2139  0.8616
 7374SOL    HW123255   6.057   7.057   5.170  0.8500  2.4126  0.7538
 7374SOL    HW223256   5.974   7.143   5.078 -2.0927 -0.9116  0.0589
 7375SOL     OW23257   4.579   7.498   4.578  0.4203 -0.3241 -0.7777
 7375SOL    HW123258   4.496   7.542   4.566  0.3345  0.2792  1.4586
 7375SOL    HW223259   4.557   7.406   4.590 -0.1446  0.0223  1.2346
 7376SOL     OW23260   6.523   2.732   7.838  0.2589 -0.0109  0.5287
 7376SOL    HW123261   6.554   2.668   7.902  0.3462  0.8656  1.3786
 7376SOL    HW223262   6.434   2.754   7.867  0.0284 -0.1167 -0.0624
 7377SOL     OW23263   0.484   6.509   0.754  0.7243 -0.4940 -0.3480
 7377SOL    HW123264   0.551   6.448   0.788  0.5795 -1.1367 -1.1805
 7377SOL    HW223265   0.514   6.530   0.666  1.6669  2.0083  0.4850
 7378SOL     OW23266   8.653   0.224   8.218 -0.4701 -0.2080  0.5359
 7378SOL    HW123267   8.581   0.282   8.243  0.7325  2.0241 -0.9089
 7378SOL    HW223268   8.728   0.254   8.269 -0.2186 -1.7036  1.1087
 7379SOL     OW23269   8.958   5.399   4.691  0.0358 -0.2689  0.4729
 7379SOL    HW123270   8.967   5.405   4.596 -2.7432 -0.9241  0.0853
 7379SOL    HW223271   8.931   5.487   4.718 -2.5661 -0.8680  0.0995
 7380SOL     OW23272   1.299   1.278   5.027  0.1422  0.6326  0.0563
 7380SOL    HW123273   1.379   1.226   5.037  0.8018  1.2047 -1.7859
 7380SOL    HW223274   1.230   1.214   5.012  0.3308  0.1549  1.1234
 7381SOL     OW23275   7.665   2.924   4.076 -0.1085  0.4261  0.2144
 7381SOL    HW123276   7.649   2.855   4.012  2.2813 -2.4556  2.4196
 7381SOL    HW223277   7.598   2.912   4.143  0.5081 -0.0083  0.7638
 7382SOL     OW23278   8.066   1.342   4.179  0.3471  0.4437 -0.5631
 7382SOL    HW123279   8.062   1.329   4.274  1.5458  2.1007 -0.2438
 7382SOL    HW223280   8.099   1.431   4.168 -1.2764  0.8715 -2.5538
 7383SOL     OW23281   2.877   5.480   8.054  0.1753  0.1344 -0.0788
 7383SOL    HW123282   2.801   5.496   7.997  1.1247  0.1136 -1.3980
 7383SOL    HW223283   2.912   5.567   8.073  0.6721  0.0715 -0.6849
 7384SOL     OW23284   6.215   7.487   2.395  0.0954 -0.3993 -0.1276
 7384SOL    HW123285   6.256   7.533   2.321  2.1942 -1.4170  0.3235
 7384SOL    HW223286   6.136   7.537   2.413  0.3693  0.8375 -2.0114
 7385SOL     OW23287   8.571   4.623   8.443 -0.2970  0.3612 -0.2978
 7385SOL    HW123288   8.660   4.637   8.413 -0.2229 -1.2083 -0.8798
 7385SOL    HW223289   8.556   4.693   8.507  0.8908  1.3976 -1.1160
 7386SOL     OW23290   2.642   0.722   5.517  0.6345  0.0920  0.3232
 7386SOL    HW123291   2.628   0.816   5.529 -0.8638  0.1596 -1.5586
 7386SOL    HW223292   2.694   0.715   5.437 -3.8325 -0.7234 -2.8140
 7387SOL     OW23293   3.987   1.030   8.307  0.1198  0.2057 -0.0101
 7387SOL    HW123294   4.045   0.955   8.313  0.4388  0.4861  0.4616
 7387SOL    HW223295   3.967   1.053   8.398  2.5541  2.6079  0.0613
 7388SOL     OW23296   4.831   6.532   7.765 -0.4443 -0.0453 -0.0677
 7388SOL    HW123297   4.918   6.493   7.753 -0.6028 -0.3062 -0.3527
 7388SOL    HW223298   4.819   6.533   7.860  0.6729  1.7354  0.1187
 7389SOL     OW23299   4.438   4.316   5.989 -0.3919  0.0295  0.1350
 7389SOL    HW123300   4.372   4.247   5.977 -0.2820  0.1459 -1.3452
 7389SOL    HW223301   4.389   4.398   5.974 -0.0253  0.1413 -0.4698
 7390SOL     OW23302   8.880   5.504   2.827 -0.0247  0.2966  0.4879
 7390SOL    HW123303   8.815   5.440   2.855 -0.0713  0.0761 -0.1000
 7390SOL    HW223304   8.908   5.473   2.741 -0.5071  1.4107 -0.0940
 7391SOL     OW23305   0.441   5.479   1.766 -0.8926 -0.0159  0.5844
 7391SOL    HW123306   0.448   5.574   1.774 -1.7345  0.3124 -1.6905
 7391SOL    HW223307   0.521   5.445   1.807 -0.4003  1.6805  1.1079
 7392SOL     OW23308   2.064   3.881   7.274 -0.1172  0.4278 -0.6471
 7392SOL    HW123309   1.998   3.822   7.237  0.5761 -0.4634 -0.4839
 7392SOL    HW223310   2.070   3.953   7.210  0.7237 -0.8464 -2.0687
 7393SOL     OW23311   7.376   2.643   4.566 -0.7552  0.0176  0.0818
 7393SOL    HW123312   7.460   2.670   4.530 -0.2164  1.0919  1.9906
 7393SOL    HW223313   7.321   2.721   4.560 -1.5888 -0.6310 -1.0005
 7394SOL     OW23314   3.761   8.800   5.533 -0.0519  0.0530 -0.4292
 7394SOL    HW123315   3.754   8.887   5.571 -0.4426 -0.8480  1.7324
 7394SOL    HW223316   3.670   8.769   5.528  0.2158 -0.9589  0.7018
 7395SOL     OW23317   4.994   1.350   2.120 -0.6109  0.2411 -0.3097
 7395SOL    HW123318   5.068   1.338   2.061 -0.8391 -1.1092 -0.3408
 7395SOL    HW223319   5.034   1.365   2.205 -0.2246 -2.5196  0.0963
 7396SOL     OW23320   2.115   6.218   3.497 -0.3106 -0.9518 -0.2478
 7396SOL    HW123321   2.126   6.256   3.584  0.6342 -2.3535  0.2582
 7396SOL    HW223322   2.047   6.151   3.508 -0.9130 -0.4580 -0.8262
 7397SOL     OW23323   6.401   5.018   1.818 -0.6550  0.3848  0.0020
 7397SOL    HW123324   6.362   4.978   1.896 -0.1921 -0.6260 -0.2605
 7397SOL    HW223325   6.351   4.980   1.745 -1.3999  1.6779 -0.1941
 7398SOL     OW23326   8.414   0.400   7.280  0.2105  0.1805 -0.0084
 7398SOL    HW123327   8.421   0.336   7.210 -1.9195  0.9310 -1.0012
 7398SOL    HW223328   8.471   0.473   7.252 -0.7834  0.5606 -1.0952
 7399SOL     OW23329   3.411   1.566   2.629  0.1015 -0.1550  0.3474
 7399SOL    HW123330   3.401   1.491   2.687  0.1916 -0.7193 -0.3432
 7399SOL    HW223331   3.421   1.527   2.542 -1.0716  0.6884 -0.1978
 7400SOL     OW23332   4.627   2.321   4.592  0.5838 -0.2149  0.3774
 7400SOL    HW123333   4.613   2.328   4.687 -0.1333 -1.9616  0.4383
 7400SOL    HW223334   4.568   2.386   4.555 -0.8410 -1.0656  1.0587
 7401SOL     OW23335   5.708   1.907   3.891  0.6957 -0.8597 -0.2518
 7401SOL    HW123336   5.770   1.922   3.962  1.8952 -2.7289 -0.8287
 7401SOL    HW223337   5.719   1.982   3.833  0.4653  0.1567  0.9605
 7402SOL     OW23338   7.446   2.952   5.958 -0.4575 -0.1639  0.0203
 7402SOL    HW123339   7.432   2.865   5.995  1.3015  0.3729  2.2141
 7402SOL    HW223340   7.369   3.003   5.983 -1.0024 -0.7865 -0.3650
 7403SOL     OW23341   1.512   6.858   1.956  0.4888  0.5908 -0.1693
 7403SOL    HW123342   1.519   6.879   2.049  0.5679 -0.7856  0.1504
 7403SOL    HW223343   1.442   6.916   1.924 -1.2561 -0.6083  1.2876
 7404SOL     OW23344   4.276   5.533   3.225 -0.1829 -0.3210 -0.0145
 7404SOL    HW123345   4.309   5.448   3.195 -1.9513 -1.5623  1.2856
 7404SOL    HW223346   4.185   5.535   3.197 -0.2744  1.0109  0.2932
 7405SOL     OW23347   4.434   5.355   7.570 -0.1881  0.2119  0.4243
 7405SOL    HW123348   4.396   5.325   7.653 -1.8836  1.9358  0.3324
 7405SOL    HW223349   4.506   5.412   7.597 -0.5286  0.5094  0.7212
 7406SOL     OW23350   4.863   5.106   2.951  0.1140 -0.4532 -0.0101
 7406SOL    HW123351   4.826   5.193   2.939 -0.3079 -0.2841  2.1095
 7406SOL    HW223352   4.848   5.062   2.868 -2.3333  0.5547 -0.2024
 7407SOL     OW23353   7.370   4.732   9.008 -0.1802  0.4145 -0.2738
 7407SOL    HW123354   7.297   4.684   8.968  0.5542  0.2758 -1.5272
 7407SOL    HW223355   7.437   4.733   8.939  1.0731  0.3655  0.9119
 7408SOL     OW23356   2.468   8.694   3.016 -0.3186  0.5891 -0.4664
 7408SOL    HW123357   2.402   8.665   2.952 -1.6457  0.1434  1.0318
 7408SOL    HW223358   2.501   8.614   3.055 -0.8994  0.8936  0.7032
 7409SOL     OW23359   2.968   2.622   7.938  0.2457 -0.2822  0.0079
 7409SOL    HW123360   2.962   2.707   7.895 -0.9986 -0.4414 -0.1862
 7409SOL    HW223361   3.056   2.620   7.977 -0.5606  2.1829  2.2752
 7410SOL     OW23362   3.212   0.146   0.087  1.3995 -0.3335  0.5349
 7410SOL    HW123363   3.176   0.058   0.079  3.0238 -1.0420  0.5680
 7410SOL    HW223364   3.213   0.179  -0.003  1.2393 -0.5333  0.4593
 7411SOL     OW23365   2.127   2.623   0.386  0.0776  0.5459 -0.8325
 7411SOL    HW123366   2.043   2.611   0.431 -0.1206 -2.6307 -1.8496
 7411SOL    HW223367   2.104   2.664   0.302 -0.3410  0.4005 -0.7871
 7412SOL     OW23368   8.401   1.833   6.547 -0.2816  0.3324 -0.8731
 7412SOL    HW123369   8.420   1.926   6.556  4.3104 -0.5134  0.8071
 7412SOL    HW223370   8.422   1.813   6.455 -1.2042  0.8804 -1.2156
 7413SOL     OW23371   7.489   6.339   2.312  0.1380 -0.4570 -0.1632
 7413SOL    HW123372   7.468   6.247   2.324 -0.8183 -0.1003  1.0764
 7413SOL    HW223373   7.492   6.375   2.401  0.0916  0.7890 -0.6437
 7414SOL     OW23374   6.055   0.738   2.575 -0.1080  0.2474  0.1297
 7414SOL    HW123375   6.133   0.682   2.572 -0.9465 -0.9153 -1.0638
 7414SOL    HW223376   6.016   0.719   2.660 -0.5120 -1.2214 -0.3472
 7415SOL     OW23377   2.081   1.340   2.254 -0.3079 -0.4301  0.1532
 7415SOL    HW123378   2.060   1.405   2.187 -0.7688 -1.3241 -0.5951
 7415SOL    HW223379   2.027   1.364   2.329  0.3033  0.6577  0.2684
 7416SOL     OW23380   4.190   1.086   8.618  0.4724  0.2346  0.2175
 7416SOL    HW123381   4.225   1.086   8.529  0.1060  0.5848  0.0702
 7416SOL    HW223382   4.102   1.050   8.610  0.5118  0.0765  0.4724
 7417SOL     OW23383   5.588   7.881   0.115  0.2023 -0.9592 -0.3456
 7417SOL    HW123384   5.608   7.800   0.068  1.3113 -0.2506 -1.1543
 7417SOL    HW223385   5.543   7.936   0.051 -1.4169 -1.2476  0.4765
 7418SOL     OW23386   2.230   6.228   9.108  0.0346  0.6377  0.2951
 7418SOL    HW123387   2.267   6.168   9.173  0.8194  0.6591 -0.1122
 7418SOL    HW223388   2.294   6.227   9.036 -0.7581  0.7104 -0.4181
 7419SOL     OW23389   6.743   4.239   3.191 -0.4390 -0.2033 -0.5308
 7419SOL    HW123390   6.757   4.259   3.099 -0.5696 -0.8786 -0.7009
 7419SOL    HW223391   6.652   4.210   3.196 -1.2162  2.1421  0.2117
 7420SOL     OW23392   1.997   2.732   1.574 -0.3234  0.2571  0.2622
 7420SOL    HW123393   1.917   2.747   1.524 -0.5912  0.8331  0.8552
 7420SOL    HW223394   2.008   2.636   1.574 -0.2564  0.2443 -0.9684
 7421SOL     OW23395   6.535   2.600   0.619  0.0994  0.0248 -0.0293
 7421SOL    HW123396   6.513   2.547   0.696  0.9987  0.9703  0.9088
 7421SOL    HW223397   6.554   2.535   0.550  1.1704 -0.8993  1.0845
 7422SOL     OW23398   5.310   3.331   4.186  0.4713  0.2118 -0.8018
 7422SOL    HW123399   5.230   3.362   4.228 -0.7127 -2.4997 -0.8239
 7422SOL    HW223400   5.288   3.326   4.093  1.7996  2.4826 -1.3146
 7423SOL     OW23401   5.003   7.139   1.809 -0.2964  0.2227  0.2445
 7423SOL    HW123402   5.012   7.058   1.758  0.7528 -0.4243  1.4096
 7423SOL    HW223403   5.093   7.169   1.823 -0.4150 -0.4981  3.0607
 7424SOL     OW23404   0.939   6.122   1.017 -0.2246 -0.3940  0.3024
 7424SOL    HW123405   0.962   6.215   1.008 -1.1625 -0.0390  1.3393
 7424SOL    HW223406   1.023   6.077   1.024  0.3099  0.1495 -2.0196
 7425SOL     OW23407   0.766   2.957   6.000  0.1755 -0.3700 -0.4420
 7425SOL    HW123408   0.850   2.938   5.959 -0.1263 -0.6080 -0.9705
 7425SOL    HW223409   0.726   3.024   5.944  0.1297 -0.0643 -0.0451
 7426SOL     OW23410   1.336   8.152   7.824 -0.3240  0.8383 -0.1921
 7426SOL    HW123411   1.267   8.091   7.796  0.0478  0.3013  0.0390
 7426SOL    HW223412   1.290   8.215   7.880 -0.5206  0.0632  0.5516
 7427SOL     OW23413   5.172   5.651   2.803  0.1258  0.2168 -0.1018
 7427SOL    HW123414   5.097   5.663   2.744 -0.0749 -0.8545 -0.0928
 7427SOL    HW223415   5.221   5.579   2.765  0.0718 -0.4010  0.9494
 7428SOL     OW23416   2.000   5.685   5.929  0.0816 -1.3626  0.4936
 7428SOL    HW123417   1.919   5.717   5.970  0.1631  1.5602 -1.3748
 7428SOL    HW223418   2.064   5.685   6.000 -1.2934 -3.0115  1.8382
 7429SOL     OW23419   0.623   2.399   8.080 -0.1781  0.4501 -0.3809
 7429SOL    HW123420   0.593   2.310   8.061  2.3271 -0.3856 -0.9444
 7429SOL    HW223421   0.568   2.429   8.151  0.3097 -2.4621  1.3878
 7430SOL     OW23422   6.537   5.296   8.867 -0.3075 -0.0148 -0.3145
 7430SOL    HW123423   6.613   5.351   8.883 -0.1522 -0.3235  0.0275
 7430SOL    HW223424   6.543   5.226   8.932 -2.4012  1.4841  1.6408
 7431SOL     OW23425   0.163   2.406   4.857  0.2529 -0.4396  0.7058
 7431SOL    HW123426   0.187   2.353   4.933  0.0802 -3.7148 -1.3230
 7431SOL    HW223427   0.069   2.391   4.846  0.0888  0.7598  0.3734
 7432SOL     OW23428   7.120   0.174   5.187 -0.0073 -0.0556  0.5651
 7432SOL    HW123429   7.162   0.196   5.270  1.4075  0.4172 -0.2410
 7432SOL    HW223430   7.034   0.141   5.212  0.0515  0.8893  2.1639
 7433SOL     OW23431   2.292   7.919   5.992 -0.0258 -0.2259  0.4111
 7433SOL    HW123432   2.249   7.942   6.074 -0.0292  1.4608 -0.0268
 7433SOL    HW223433   2.236   7.851   5.954 -2.9093  2.4084 -0.5261
 7434SOL     OW23434   8.246   0.118   1.356  0.0936 -0.7969  0.2141
 7434SOL    HW123435   8.208   0.053   1.416  0.3081 -1.2312 -0.1177
 7434SOL    HW223436   8.277   0.067   1.281 -0.1587 -0.2603 -0.2671
 7435SOL     OW23437   5.809   3.369   1.363  0.1665 -0.3957  0.5341
 7435SOL    HW123438   5.873   3.377   1.434  3.1840 -1.8928 -1.7537
 7435SOL    HW223439   5.789   3.275   1.360  0.3465 -0.4187 -0.7183
 7436SOL     OW23440   5.937   0.030   0.377  0.0447  0.6906 -0.5185
 7436SOL    HW123441   6.032   0.026   0.362  0.3447  0.1643  1.3630
 7436SOL    HW223442   5.916   0.123   0.368  0.6438  0.7626 -1.3491
 7437SOL     OW23443   3.374   6.596   8.348 -0.3324 -0.0261  0.2132
 7437SOL    HW123444   3.356   6.642   8.266  3.7548 -2.3638 -2.3493
 7437SOL    HW223445   3.432   6.656   8.396  1.3805 -0.5915 -1.0611
 7438SOL     OW23446   6.779   0.570   3.018  0.1176  0.0038 -0.4459
 7438SOL    HW123447   6.721   0.543   3.089  0.0722  0.7051 -0.2104
 7438SOL    HW223448   6.856   0.514   3.027  0.4327  0.5958  0.6262
 7439SOL     OW23449   7.038   7.960   6.229  0.3089  0.5451 -0.1880
 7439SOL    HW123450   7.107   8.020   6.259 -2.0512  2.0701  2.7238
 7439SOL    HW223451   6.962   8.016   6.216 -0.9012 -1.3167 -1.5846
 7440SOL     OW23452   7.450   8.287   5.118  0.1828 -0.5986  0.2852
 7440SOL    HW123453   7.362   8.316   5.095  0.1769 -0.5029  0.4257
 7440SOL    HW223454   7.491   8.265   5.034  0.0242 -0.6493  0.2200
 7441SOL     OW23455   8.172   8.933   7.073 -0.4226 -0.3229  0.9658
 7441SOL    HW123456   8.197   8.841   7.057 -1.3079 -1.0455  3.3547
 7441SOL    HW223457   8.253   8.975   7.102 -0.2396 -0.5797  0.8413
 7442SOL     OW23458   3.901   1.157   7.500 -0.0877  0.5031  0.6532
 7442SOL    HW123459   3.876   1.248   7.513  1.3596  0.7765  1.7668
 7442SOL    HW223460   3.865   1.111   7.576 -0.7634  0.1352  0.1250
 7443SOL     OW23461   1.248   2.328   8.105  0.9147  0.3923 -0.5525
 7443SOL    HW123462   1.261   2.370   8.020  1.0676 -1.1545 -1.3192
 7443SOL    HW223463   1.204   2.245   8.085  1.2861 -0.1683  0.8336
 7444SOL     OW23464   2.043   7.488   6.184 -0.2501  0.5488 -0.6769
 7444SOL    HW123465   1.967   7.452   6.230 -0.0117  1.9936  0.9476
 7444SOL    HW223466   2.109   7.419   6.188 -0.1783  0.6637  1.3693
 7445SOL     OW23467   1.666   2.489   6.747  0.1319  0.3425 -0.0376
 7445SOL    HW123468   1.609   2.492   6.670 -0.0148  1.1483  0.0915
 7445SOL    HW223469   1.707   2.575   6.749  3.3304 -0.9741 -1.6062
 7446SOL     OW23470   3.290   7.098   7.181 -0.6724  0.4255 -0.0593
 7446SOL    HW123471   3.340   7.017   7.189  0.1937  1.0120  0.6446
 7446SOL    HW223472   3.202   7.069   7.157 -0.6118 -0.7911  1.0400
 7447SOL     OW23473   0.931   5.146   9.034  0.1022 -0.3416 -0.2955
 7447SOL    HW123474   0.933   5.118   9.126 -0.1483  2.1465  0.5455
 7447SOL    HW223475   0.864   5.092   8.994 -1.1719 -0.1798  1.4858
 7448SOL     OW23476   6.865   7.028   3.233  0.0977  0.0560 -0.0233
 7448SOL    HW123477   6.900   7.044   3.321 -0.0933 -0.8622  0.2230
 7448SOL    HW223478   6.834   7.114   3.204 -1.9353 -0.0113  1.7134
 7449SOL     OW23479   7.644   7.442   5.836  0.0458  0.1699 -0.3295
 7449SOL    HW123480   7.566   7.480   5.876 -1.3003 -1.2825 -1.4195
 7449SOL    HW223481   7.704   7.516   5.826 -1.1913  1.3471  0.5313
 7450SOL     OW23482   4.044   3.576   5.945  0.4210 -0.3183 -0.0134
 7450SOL    HW123483   4.117   3.608   5.892 -0.2096 -0.3013 -0.8948
 7450SOL    HW223484   4.030   3.644   6.010  2.1691 -1.0089  1.1695
 7451SOL     OW23485   6.089   8.553   4.165 -0.0412 -0.1047  0.0981
 7451SOL    HW123486   6.133   8.634   4.189  1.2768 -0.4065 -1.1288
 7451SOL    HW223487   5.996   8.575   4.164  0.2292  1.1398  0.6381
 7452SOL     OW23488   4.600   6.094   1.290  0.2211  0.2874 -0.0826
 7452SOL    HW123489   4.592   6.071   1.198  3.4105 -1.8728 -0.0004
 7452SOL    HW223490   4.671   6.159   1.293 -1.1570  1.8478  0.7610
 7453SOL     OW23491   8.287   5.726   6.914  0.7989 -0.6012  0.2680
 7453SOL    HW123492   8.356   5.681   6.865 -0.0032 -0.3310 -1.1697
 7453SOL    HW223493   8.292   5.689   7.002  2.5497 -0.8231  0.1095
 7454SOL     OW23494   3.698   1.231   3.250 -0.3224 -0.9088 -0.3842
 7454SOL    HW123495   3.721   1.244   3.343 -0.3566  0.2295 -0.5239
 7454SOL    HW223496   3.617   1.180   3.252 -2.5638  2.3850  0.3677
 7455SOL     OW23497   6.803   4.626   1.395 -0.0276  0.2484 -0.0868
 7455SOL    HW123498   6.769   4.686   1.328 -0.4763  2.8690  2.3060
 7455SOL    HW223499   6.731   4.566   1.412  0.2106 -0.7044 -2.0930
 7456SOL     OW23500   2.651   3.310   3.840 -0.3982  0.0065 -0.0880
 7456SOL    HW123501   2.733   3.352   3.814 -0.1309 -0.1026  0.5489
 7456SOL    HW223502   2.670   3.217   3.842 -0.9461 -0.1586 -1.3302
 7457SOL     OW23503   7.559   9.021   1.555 -0.1565 -0.2363 -0.0374
 7457SOL    HW123504   7.587   9.011   1.646  1.7880 -1.2938 -0.6875
 7457SOL    HW223505   7.530   8.933   1.529  0.7223 -0.2957 -0.8559
 7458SOL     OW23506   6.846   8.430   4.806 -0.0728  0.5300 -0.5066
 7458SOL    HW123507   6.861   8.352   4.860  0.2788  0.9234 -0.0190
 7458SOL    HW223508   6.934   8.460   4.782 -0.2209  0.4925 -1.1083
 7459SOL     OW23509   3.342   7.649   1.693  0.2510 -0.0145  0.1994
 7459SOL    HW123510   3.262   7.665   1.643  0.0557  0.0801  0.5369
 7459SOL    HW223511   3.364   7.734   1.730  0.5423 -0.0286  0.0614
 7460SOL     OW23512   3.941   2.571   8.105  0.2475  0.7084  0.0043
 7460SOL    HW123513   4.020   2.561   8.158  0.8372 -0.0932 -0.9774
 7460SOL    HW223514   3.946   2.499   8.042 -1.1208  0.8244 -0.2719
 7461SOL     OW23515   6.271   3.457   8.105 -0.4078 -0.1353  0.0510
 7461SOL    HW123516   6.277   3.379   8.050 -0.2636  1.1741 -1.8892
 7461SOL    HW223517   6.288   3.530   8.045 -0.2538  1.3792  1.8541
 7462SOL     OW23518   5.847   0.457   3.651 -0.0678  0.0677 -0.6254
 7462SOL    HW123519   5.806   0.535   3.689  0.7519  0.2413 -0.0823
 7462SOL    HW223520   5.836   0.390   3.718 -0.1913 -0.1134 -0.8251
 7463SOL     OW23521   7.605   1.803   1.533 -0.0294 -0.0958 -0.1999
 7463SOL    HW123522   7.688   1.851   1.540  1.4799 -2.2150 -1.8468
 7463SOL    HW223523   7.621   1.722   1.582 -1.2457 -0.3818 -0.2634
 7464SOL     OW23524   0.291   5.433   2.398 -0.2228  0.1792  0.6126
 7464SOL    HW123525   0.348   5.510   2.404  0.5124 -0.1732 -1.1209
 7464SOL    HW223526   0.254   5.423   2.486 -0.2702  2.4458  0.9061
 7465SOL     OW23527   3.618   1.034   5.632 -0.4108 -0.4216  0.1661
 7465SOL    HW123528   3.587   1.122   5.655 -0.2805 -0.2096 -0.4430
 7465SOL    HW223529   3.602   1.027   5.538 -1.8633 -1.6292  0.4526
 7466SOL     OW23530   2.317   4.459   0.626 -0.2379  0.3049  0.1777
 7466SOL    HW123531   2.398   4.468   0.577 -0.4210 -2.3095 -0.7446
 7466SOL    HW223532   2.249   4.489   0.566 -0.1952 -0.1098 -0.0791
 7467SOL     OW23533   3.933   5.812   7.766 -0.3342  0.0753  0.0997
 7467SOL    HW123534   3.900   5.837   7.853 -0.0930  1.6797 -0.2347
 7467SOL    HW223535   3.986   5.733   7.783 -1.8424 -0.7778  1.0868
 7468SOL     OW23536   4.094   3.299   8.809  0.4105  0.3628  0.5806
 7468SOL    HW123537   4.175   3.257   8.838  0.8750  0.3239 -0.7044
 7468SOL    HW223538   4.106   3.391   8.829  0.5274  0.2676  0.9488
 7469SOL     OW23539   8.853   7.022   8.698 -0.2599  0.4863  0.3508
 7469SOL    HW123540   8.878   6.989   8.784  1.1663  0.1361 -0.1694
 7469SOL    HW223541   8.895   7.108   8.692  1.8187 -0.5190 -0.9146
 7470SOL     OW23542   7.478   1.672   6.948  0.5048 -0.7872 -0.1995
 7470SOL    HW123543   7.508   1.648   6.861 -0.6744 -2.4124 -0.2017
 7470SOL    HW223544   7.445   1.590   6.986 -3.1381  0.5999  0.0601
 7471SOL     OW23545   1.099   7.438   8.750 -0.4695 -0.7608 -0.2051
 7471SOL    HW123546   1.118   7.503   8.817 -1.1504 -1.0717  0.3006
 7471SOL    HW223547   1.096   7.487   8.668 -0.5643 -0.2265  0.1153
 7472SOL     OW23548   1.569   7.424   7.202  0.1394  0.2327  0.3316
 7472SOL    HW123549   1.570   7.512   7.164  0.2699  0.5484  1.0504
 7472SOL    HW223550   1.534   7.437   7.291 -0.3816 -0.5206  0.2486
 7473SOL     OW23551   3.378   4.539   3.190 -0.4138 -0.0675  0.0011
 7473SOL    HW123552   3.388   4.493   3.273  0.1066  0.2972  0.1478
 7473SOL    HW223553   3.306   4.494   3.146  0.6706 -1.6286 -0.2765
 7474SOL     OW23554   2.427   5.592   4.552  0.1217  0.3304 -0.3963
 7474SOL    HW123555   2.374   5.559   4.625 -3.0213  0.1833 -2.5353
 7474SOL    HW223556   2.461   5.676   4.583  0.5482 -0.6110  1.8803
 7475SOL     OW23557   1.074   8.436   2.838  0.1335  0.1868 -1.0203
 7475SOL    HW123558   0.992   8.485   2.835  0.1606  0.1957 -2.1668
 7475SOL    HW223559   1.058   8.360   2.781  1.1843  0.6108 -1.9085
 7476SOL     OW23560   4.700   7.193   3.731 -0.1227 -0.0824  0.3148
 7476SOL    HW123561   4.626   7.241   3.693 -2.6345 -2.7514  1.4325
 7476SOL    HW223562   4.746   7.156   3.656 -2.1148 -1.2675 -0.4146
 7477SOL     OW23563   8.568   6.919   7.189  0.3419 -0.1527 -0.3523
 7477SOL    HW123564   8.491   6.898   7.136  0.5860 -1.1379 -0.3364
 7477SOL    HW223565   8.585   6.840   7.240  0.5740  0.5219  0.6387
 7478SOL     OW23566   6.949   7.695   0.832 -0.4758  0.0201 -0.0657
 7478SOL    HW123567   6.912   7.675   0.918 -2.6865  0.3215 -0.8851
 7478SOL    HW223568   6.939   7.614   0.782 -0.8949  0.3833 -0.5811
 7479SOL     OW23569   3.703   4.807   4.138 -0.1407 -0.3533  0.2618
 7479SOL    HW123570   3.656   4.838   4.216  1.0392  0.6871  0.5981
 7479SOL    HW223571   3.795   4.805   4.166  0.3371  0.2909 -1.1778
 7480SOL     OW23572   8.952   3.150   1.189  0.3771 -0.2062  0.3738
 7480SOL    HW123573   8.926   3.116   1.103  1.2530 -1.1260  0.4552
 7480SOL    HW223574   8.960   3.072   1.244  2.1833  0.1407  0.6456
 7481SOL     OW23575   8.390   4.703   7.183  0.1893  0.1853  0.0703
 7481SOL    HW123576   8.356   4.721   7.271  0.4927  0.6510  0.0948
 7481SOL    HW223577   8.457   4.770   7.169 -0.2617  0.4733 -0.7457
 7482SOL     OW23578   9.014   6.917   8.920  0.4017 -0.5000 -0.0117
 7482SOL    HW123579   9.018   6.833   8.873  1.8495 -1.4411  1.6976
 7482SOL    HW223580   9.102   6.930   8.955 -0.4397  0.4702  1.8965
 7483SOL     OW23581   7.652   0.568   4.245  0.0734 -0.0665 -0.3562
 7483SOL    HW123582   7.653   0.507   4.171 -0.4023  1.0285 -1.3017
 7483SOL    HW223583   7.585   0.533   4.304 -0.2123 -0.4363 -0.8958
 7484SOL     OW23584   8.461   4.706   3.478  0.1871  0.4032  0.8938
 7484SOL    HW123585   8.473   4.625   3.527 -3.5506  0.3058  1.9559
 7484SOL    HW223586   8.449   4.678   3.387  0.7239 -0.0539  0.9606
 7485SOL     OW23587   7.941   4.707   2.763 -0.6108 -0.1446  0.6125
 7485SOL    HW123588   7.917   4.671   2.848 -0.2473 -0.3323  0.6376
 7485SOL    HW223589   8.009   4.649   2.730  0.4296  0.8695  0.9326
 7486SOL     OW23590   3.656   6.445   4.221  0.0060 -0.1186  0.4349
 7486SOL    HW123591   3.611   6.448   4.306 -0.8003  0.4842 -0.0061
 7486SOL    HW223592   3.629   6.525   4.177  0.8955 -0.1461 -0.1605
 7487SOL     OW23593   5.844   4.532   4.981 -0.6837 -0.2292  0.1440
 7487SOL    HW123594   5.758   4.544   4.940 -0.9357  0.9666  0.9657
 7487SOL    HW223595   5.835   4.571   5.068  1.1278  1.3034 -0.2870
 7488SOL     OW23596   2.970   3.111   3.339  0.0916  0.0639  0.8788
 7488SOL    HW123597   2.905   3.126   3.407 -0.9871  1.2165 -0.3254
 7488SOL    HW223598   2.995   3.199   3.310 -0.1888 -0.3822 -0.8216
 7489SOL     OW23599   6.678   0.713   4.465  0.7046 -0.3001  0.3420
 7489SOL    HW123600   6.671   0.790   4.521 -0.8824  0.8363 -1.3128
 7489SOL    HW223601   6.628   0.645   4.510 -0.7557  0.6647  0.2088
 7490SOL     OW23602   3.993   4.263   1.790 -0.1512 -0.5936 -0.0864
 7490SOL    HW123603   4.023   4.172   1.783  1.5191 -0.0062 -0.9384
 7490SOL    HW223604   4.021   4.304   1.708 -1.5588  0.5199 -0.0500
 7491SOL     OW23605   4.315   1.453   2.403  0.0712  0.2538 -0.1682
 7491SOL    HW123606   4.226   1.430   2.376 -0.2819 -0.2339  1.3083
 7491SOL    HW223607   4.371   1.391   2.356 -0.6145 -1.4312  1.1539
 7492SOL     OW23608   6.525   0.205   4.091  0.3333  0.1383  0.1669
 7492SOL    HW123609   6.585   0.191   4.018  1.3038 -0.6327  1.0894
 7492SOL    HW223610   6.452   0.255   4.053  0.2732 -1.1912 -1.5823
 7493SOL     OW23611   7.862   8.244   6.057 -0.4166  0.6083  0.0049
 7493SOL    HW123612   7.820   8.271   6.139  1.5113  0.3582  1.1291
 7493SOL    HW223613   7.939   8.300   6.051  0.6342 -0.8520 -0.5051
 7494SOL     OW23614   4.533   7.020   3.329 -0.1571  0.1309  0.0991
 7494SOL    HW123615   4.578   6.972   3.398 -1.5384 -0.1833  0.8204
 7494SOL    HW223616   4.520   6.956   3.259 -0.4176 -0.0707  0.3294
 7495SOL     OW23617   5.494   7.274   7.739 -0.1713 -0.6195 -0.1565
 7495SOL    HW123618   5.499   7.179   7.725 -0.6698 -0.7385  0.4349
 7495SOL    HW223619   5.424   7.303   7.681 -0.2179 -0.6582 -0.1195
 7496SOL     OW23620   5.814   8.758   3.887  0.6494  0.2375  0.0843
 7496SOL    HW123621   5.908   8.771   3.894  0.4488  1.7453  0.2628
 7496SOL    HW223622   5.776   8.831   3.935 -0.6192  0.4227 -1.1211
 7497SOL     OW23623   0.295   6.283   0.272  0.0036  0.6609  0.2422
 7497SOL    HW123624   0.271   6.191   0.282 -3.1702  1.2825 -0.5455
 7497SOL    HW223625   0.272   6.324   0.355  0.6561  0.8846  0.3162
 7498SOL     OW23626   3.742   5.128   4.845 -1.0292  0.5471 -0.0638
 7498SOL    HW123627   3.787   5.149   4.763  2.0297  1.3636  1.6931
 7498SOL    HW223628   3.718   5.213   4.881 -0.7365  0.3055  0.7175
 7499SOL     OW23629   7.999   3.956   1.966 -0.2946 -0.1620  0.8842
 7499SOL    HW123630   8.056   3.880   1.957 -0.0309  0.0891  0.4002
 7499SOL    HW223631   7.960   3.967   1.879  0.6519  1.0226  0.5804
 7500SOL     OW23632   8.539   8.046   2.722  0.3158  0.3296 -0.0293
 7500SOL    HW123633   8.467   8.107   2.738 -0.9420 -0.9786 -0.5536
 7500SOL    HW223634   8.548   7.996   2.803 -1.1968 -1.3294 -0.8316
 7501SOL     OW23635   6.495   2.587   1.577 -0.2029 -0.0452 -0.4477
 7501SOL    HW123636   6.563   2.629   1.524 -0.5240  1.1603  0.0547
 7501SOL    HW223637   6.522   2.495   1.583  2.0907  0.6338  0.8160
 7502SOL     OW23638   7.303   9.039   5.676 -0.3642  0.1978  0.0436
 7502SOL    HW123639   7.381   9.011   5.627 -0.8212  0.5311 -0.8942
 7502SOL    HW223640   7.232   8.987   5.639 -0.7797  0.7309  0.0780
 7503SOL     OW23641   8.375   6.825   1.686 -0.4953  0.1608  0.0249
 7503SOL    HW123642   8.425   6.759   1.734  2.2225  1.8782 -0.2074
 7503SOL    HW223643   8.319   6.866   1.752 -0.7812 -1.0487  0.5623
 7504SOL     OW23644   0.628   6.331   6.300 -0.0685  0.5564 -0.7972
 7504SOL    HW123645   0.637   6.364   6.389 -2.1938 -0.3554 -0.1797
 7504SOL    HW223646   0.580   6.400   6.254 -0.3208  0.3708 -0.8137
 7505SOL     OW23647   8.729   7.882   2.157  0.0532  0.1895  0.0456
 7505SOL    HW123648   8.699   7.973   2.165  0.3993  0.5675 -2.2932
 7505SOL    HW223649   8.698   7.840   2.238 -1.5020  1.9928  0.4756
 7506SOL     OW23650   8.368   6.629   0.525 -0.0927  0.0922 -0.2719
 7506SOL    HW123651   8.345   6.720   0.541  1.7874  0.2884  1.7499
 7506SOL    HW223652   8.292   6.579   0.555 -1.1154  0.9453 -1.3437
 7507SOL     OW23653   8.497   7.621   4.018 -0.7909 -0.4584  0.5226
 7507SOL    HW123654   8.436   7.640   4.090 -0.3639  1.4332  0.4261
 7507SOL    HW223655   8.479   7.688   3.953  1.0015 -0.2104  0.2522
 7508SOL     OW23656   2.799   0.654   4.337  0.1096  0.5008  0.2434
 7508SOL    HW123657   2.841   0.568   4.342 -1.2615 -0.1585  0.8698
 7508SOL    HW223658   2.790   0.671   4.244  0.1250 -0.1756  0.1144
 7509SOL     OW23659   8.595   1.040   3.880 -0.2280  0.4241 -0.5630
 7509SOL    HW123660   8.519   1.036   3.939  1.1827  0.2231  1.3363
 7509SOL    HW223661   8.559   1.018   3.794 -2.3872  0.7384  0.1844
 7510SOL     OW23662   2.681   8.048   3.504 -0.1877 -0.1490  0.4299
 7510SOL    HW123663   2.620   8.105   3.457 -1.1144  0.2193  1.9964
 7510SOL    HW223664   2.743   8.019   3.437 -1.5328  0.2002 -1.0389
 7511SOL     OW23665   2.788   6.398   6.705 -0.1143  0.1095 -0.2011
 7511SOL    HW123666   2.761   6.328   6.764  0.7422 -0.5015 -0.5142
 7511SOL    HW223667   2.844   6.455   6.758 -0.5831  0.4022 -0.0206
 7512SOL     OW23668   3.407   5.238   8.688 -0.3739 -0.1076 -0.5366
 7512SOL    HW123669   3.323   5.211   8.650 -0.2919  0.3023 -1.0198
 7512SOL    HW223670   3.391   5.326   8.722  0.0548  0.2721 -1.2973
 7513SOL     OW23671   7.727   4.047   5.055  0.6669  0.0327 -0.3173
 7513SOL    HW123672   7.660   4.034   5.122 -1.2118 -0.6028 -2.2052
 7513SOL    HW223673   7.781   3.969   5.060  0.7766  0.1508  0.6463
 7514SOL     OW23674   6.930   3.951   2.925  0.3136  0.0074  0.8304
 7514SOL    HW123675   6.885   3.867   2.928  0.1953  0.0329  0.0264
 7514SOL    HW223676   6.900   3.997   3.004 -1.2366  0.1024  0.2279
 7515SOL     OW23677   6.599   2.281   3.507 -0.0768  0.0553  0.1806
 7515SOL    HW123678   6.645   2.264   3.589  1.3003  0.9802 -0.3669
 7515SOL    HW223679   6.652   2.238   3.440  1.1582  2.7353 -0.6978
 7516SOL     OW23680   7.912   6.918   0.684  0.5727  0.0635  0.5999
 7516SOL    HW123681   7.977   6.919   0.613  0.8698  0.2735  0.8728
 7516SOL    HW223682   7.943   6.984   0.746 -1.8248  3.0163 -1.0194
 7517SOL     OW23683   8.433   7.242   9.083  0.0347  0.3042 -0.2242
 7517SOL    HW123684   8.447   7.299   9.008  0.4378  0.1192 -0.2878
 7517SOL    HW223685   8.509   7.184   9.085 -0.8974 -0.9915 -0.8350
 7518SOL     OW23686   0.951   5.211   4.187  0.2064 -0.2010  0.3306
 7518SOL    HW123687   0.892   5.175   4.121  0.6009 -0.3235  0.0392
 7518SOL    HW223688   0.943   5.151   4.262  0.0215 -0.2600  0.2640
 7519SOL     OW23689   1.644   1.396   2.848  0.0499 -0.5323  0.4266
 7519SOL    HW123690   1.646   1.412   2.753  2.5680 -1.5286  0.2318
 7519SOL    HW223691   1.668   1.303   2.857  0.3075 -0.3364  2.0630
 7520SOL     OW23692   1.669   7.699   3.718  0.0443  0.2472  0.6651
 7520SOL    HW123693   1.724   7.772   3.746  0.0500  0.7348 -0.5545
 7520SOL    HW223694   1.636   7.725   3.632 -0.1490 -1.0945  0.3070
 7521SOL     OW23695   8.094   5.514   2.957  0.1933  0.3852  0.4648
 7521SOL    HW123696   8.162   5.537   3.021  0.2342 -0.1951  0.6400
 7521SOL    HW223697   8.140   5.468   2.888  0.1705  1.1500 -0.0736
 7522SOL     OW23698   7.384   0.187   4.538 -0.1005  0.0222  0.1932
 7522SOL    HW123699   7.391   0.246   4.614 -1.5141  0.5592 -0.0686
 7522SOL    HW223700   7.353   0.104   4.575 -0.1078  0.0641  0.2817
 7523SOL     OW23701   8.205   3.757   2.021 -0.8522  0.7774  0.1255
 7523SOL    HW123702   8.299   3.746   2.008 -1.2622 -2.1410 -1.2510
 7523SOL    HW223703   8.194   3.758   2.116  0.4229 -1.1806  0.3530
 7524SOL     OW23704   6.682   0.366   7.878 -0.0567 -0.6659  0.5156
 7524SOL    HW123705   6.699   0.292   7.819 -0.5157 -2.0419  2.0243
 7524SOL    HW223706   6.769   0.397   7.903  0.1491 -1.1722  0.4371
 7525SOL     OW23707   5.008   7.700   1.049 -0.1375 -0.2993  0.0561
 7525SOL    HW123708   5.072   7.769   1.063  0.3542 -0.6014 -0.6107
 7525SOL    HW223709   4.960   7.694   1.131  0.5171  0.1148  0.4775
 7526SOL     OW23710   3.698   9.066   7.715 -0.8136 -0.7408 -0.5370
 7526SOL    HW123711   3.702   8.978   7.752  1.0994 -0.5850 -0.2941
 7526SOL    HW223712   3.777   9.074   7.662  0.2117  1.5203  1.1233
 7527SOL     OW23713   8.793   7.417   8.469 -0.3082 -0.1918  0.1490
 7527SOL    HW123714   8.879   7.443   8.435 -0.1484  1.5422  1.7162
 7527SOL    HW223715   8.784   7.325   8.443  1.8803 -0.3440 -0.3038
 7528SOL     OW23716   7.994   6.778   5.803 -0.8479 -0.1550 -0.8555
 7528SOL    HW123717   8.020   6.824   5.723  1.3557  0.8710  0.3724
 7528SOL    HW223718   7.955   6.846   5.857 -1.5055 -0.6582 -0.6903
 7529SOL     OW23719   6.075   2.389   4.543 -0.7631  0.8409  0.0687
 7529SOL    HW123720   5.993   2.378   4.493 -0.6015  0.0948 -0.0459
 7529SOL    HW223721   6.136   2.329   4.501 -0.5496  0.3905  1.0068
 7530SOL     OW23722   3.434   1.036   8.464  0.1800  0.1426  0.0294
 7530SOL    HW123723   3.448   0.962   8.406  1.3494  0.6401 -0.3462
 7530SOL    HW223724   3.495   1.023   8.536  0.1114  0.5286  0.1634
 7531SOL     OW23725   8.386   6.104   0.089 -0.5887 -0.2004 -0.9938
 7531SOL    HW123726   8.352   6.024   0.128 -2.0650  0.5398 -0.6687
 7531SOL    HW223727   8.465   6.077   0.043  1.7078 -0.9966  3.0322
 7532SOL     OW23728   8.009   6.356   2.529 -0.1065  0.1295  0.2042
 7532SOL    HW123729   8.006   6.277   2.583  1.3332 -0.6449 -0.7644
 7532SOL    HW223730   8.022   6.324   2.440  2.4658  1.4446 -0.0105
 7533SOL     OW23731   2.966   7.320   1.770 -0.0726  0.2016  0.1427
 7533SOL    HW123732   3.022   7.392   1.799  0.5086 -0.3210  0.3476
 7533SOL    HW223733   3.007   7.242   1.807  1.0830 -0.5859 -2.5591
 7534SOL     OW23734   3.900   1.715   8.878 -0.2302  0.8519 -0.0167
 7534SOL    HW123735   3.832   1.769   8.836  0.5432  1.2431 -0.7914
 7534SOL    HW223736   3.910   1.752   8.965  0.6350  2.2970 -0.6998
 7535SOL     OW23737   1.154   4.223   6.091 -0.3488  0.1340 -0.7008
 7535SOL    HW123738   1.223   4.279   6.055 -1.3332  2.3038  0.6105
 7535SOL    HW223739   1.076   4.245   6.040 -0.8534  0.3398  0.1370
 7536SOL     OW23740   6.898   4.098   6.085  0.0396 -0.0394 -0.0172
 7536SOL    HW123741   6.834   4.030   6.063  0.3723 -0.5387  0.5367
 7536SOL    HW223742   6.978   4.071   6.040 -0.0626  0.4521 -0.5043
 7537SOL     OW23743   2.365   4.806   6.587  0.0499 -0.0341  0.2066
 7537SOL    HW123744   2.282   4.830   6.628  1.7411  2.3629  2.5642
 7537SOL    HW223745   2.370   4.861   6.509 -0.1857  0.5068  0.5651
 7538SOL     OW23746   8.158   4.090   0.396  0.1486  0.1121  0.8173
 7538SOL    HW123747   8.182   4.166   0.344 -1.6229 -0.8698 -1.6290
 7538SOL    HW223748   8.163   4.121   0.487 -0.2948  3.0806 -0.0561
 7539SOL     OW23749   4.797   7.819   2.805  0.5490  0.4411 -0.0727
 7539SOL    HW123750   4.720   7.874   2.789 -1.2094 -1.8239  0.1212
 7539SOL    HW223751   4.805   7.765   2.726  0.7660 -0.6438  0.6685
 7540SOL     OW23752   5.874   0.578   4.252 -0.8886 -0.1616 -0.7337
 7540SOL    HW123753   5.921   0.514   4.306 -0.0796  0.7442 -0.3232
 7540SOL    HW223754   5.931   0.593   4.177 -0.7686  0.5361 -0.5121
 7541SOL     OW23755   0.402   8.302   0.924  0.2470  0.0395 -0.3543
 7541SOL    HW123756   0.468   8.355   0.969 -0.5553  0.4131  0.4069
 7541SOL    HW223757   0.319   8.327   0.965 -0.3194 -0.7430 -0.9938
 7542SOL     OW23758   4.264   0.614   5.291 -0.3357  0.4492 -0.1486
 7542SOL    HW123759   4.327   0.674   5.329  0.7943 -0.8881  0.1594
 7542SOL    HW223760   4.307   0.578   5.214 -0.0479 -1.6291  0.9105
 7543SOL     OW23761   2.732   3.529   2.770  0.7402  0.9202  0.0022
 7543SOL    HW123762   2.660   3.544   2.708  0.3505  2.0174  0.7096
 7543SOL    HW223763   2.793   3.474   2.721 -0.0455  0.8994 -0.9999
 7544SOL     OW23764   6.129   1.210   1.863 -0.1182 -0.3188  0.4066
 7544SOL    HW123765   6.175   1.129   1.841 -0.4857 -0.2664 -0.5971
 7544SOL    HW223766   6.056   1.181   1.918  0.6938 -0.4723  1.4535
 7545SOL     OW23767   8.073   8.096   2.801 -0.0387 -0.8922 -0.2731
 7545SOL    HW123768   8.023   8.036   2.855  1.0365 -1.2451  0.3453
 7545SOL    HW223769   8.007   8.157   2.766 -0.9414 -1.5730  0.2057
 7546SOL     OW23770   8.092   1.837   4.287  0.3064  0.1880  0.3184
 7546SOL    HW123771   8.033   1.846   4.213  0.7766  0.4066 -0.0321
 7546SOL    HW223772   8.118   1.927   4.308 -1.0184  0.2780  1.7324
 7547SOL     OW23773   0.889   8.173   1.197 -0.0259 -0.4605  0.1310
 7547SOL    HW123774   0.919   8.157   1.107  0.8209 -0.0177  0.3286
 7547SOL    HW223775   0.969   8.182   1.248 -0.4423 -2.6640  1.3118
 7548SOL     OW23776   1.322   7.066   3.500 -0.2723 -0.4663  0.2162
 7548SOL    HW123777   1.360   6.987   3.461 -0.6671 -0.2093 -0.7370
 7548SOL    HW223778   1.393   7.106   3.550  0.1334 -1.0384  0.0975
 7549SOL     OW23779   4.738   8.964   0.707 -0.6912 -0.0818 -0.0424
 7549SOL    HW123780   4.717   8.950   0.799  0.8834 -0.3639  0.3078
 7549SOL    HW223781   4.743   8.876   0.670 -1.1671  0.0237 -0.3525
 7550SOL     OW23782   0.843   2.367   4.873 -0.8792 -0.4482 -0.1039
 7550SOL    HW123783   0.863   2.460   4.882  1.9428 -1.0141  0.3626
 7550SOL    HW223784   0.915   2.331   4.821 -0.1280 -2.8860  2.3608
 7551SOL     OW23785   6.081   8.032   4.148 -0.1437 -0.0795  0.0905
 7551SOL    HW123786   6.133   8.094   4.097  0.5314 -0.0730  0.7646
 7551SOL    HW223787   6.082   7.951   4.097 -1.5041  0.6006 -1.0721
 7552SOL     OW23788   1.743   5.514   5.618 -0.4576  0.5282 -0.3324
 7552SOL    HW123789   1.725   5.546   5.530 -1.5689  1.3363  0.1575
 7552SOL    HW223790   1.835   5.534   5.634 -0.9226  2.8843 -0.3141
 7553SOL     OW23791   2.551   0.102   9.030  0.0067  0.4110  0.0763
 7553SOL    HW123792   2.582   0.141   9.112  2.9178  0.6823 -1.0276
 7553SOL    HW223793   2.534   0.177   8.973 -0.8053  0.1940  0.0221
 7554SOL     OW23794   5.012   3.455   7.625  0.2039 -0.6204  0.6423
 7554SOL    HW123795   4.993   3.442   7.718 -0.2547  1.2659  0.8592
 7554SOL    HW223796   4.926   3.470   7.585  0.4294 -1.1009 -0.0294
 7555SOL     OW23797   8.704   7.456   1.857  0.3188 -0.6328  0.3167
 7555SOL    HW123798   8.780   7.506   1.829 -0.6611 -0.0735 -1.5201
 7555SOL    HW223799   8.674   7.411   1.778 -1.0745 -1.0830  1.0566
 7556SOL     OW23800   1.401   3.524   3.900 -0.1423 -0.2601 -0.2757
 7556SOL    HW123801   1.344   3.501   3.826 -0.2369  0.6213 -0.4923
 7556SOL    HW223802   1.486   3.542   3.859  0.6959 -2.7456  0.1564
 7557SOL     OW23803   0.127   7.975   0.655  0.4606 -0.7631  0.1624
 7557SOL    HW123804   0.214   7.988   0.692  0.5582 -0.1829 -0.2743
 7557SOL    HW223805   0.142   7.927   0.574  0.3699 -0.6840  0.0986
 7558SOL     OW23806   7.026   3.483   4.822  0.1629  0.0448 -0.3278
 7558SOL    HW123807   6.961   3.553   4.820  0.0529  0.0081  1.1330
 7558SOL    HW223808   7.001   3.425   4.749 -1.1646  0.2713 -0.0799
 7559SOL     OW23809   0.276   5.470   6.000  0.2184  0.8789  0.5382
 7559SOL    HW123810   0.254   5.463   5.908  0.0947  1.6814  0.4974
 7559SOL    HW223811   0.201   5.433   6.046  0.3908  0.2481  0.3147
 7560SOL     OW23812   4.440   6.393   9.013 -0.2206 -0.7389  0.2988
 7560SOL    HW123813   4.378   6.429   9.076  0.1311 -0.3009  0.3981
 7560SOL    HW223814   4.435   6.298   9.025 -2.5485 -0.9012 -1.2535
 7561SOL     OW23815   3.531   1.845   5.918 -0.2318 -0.2837 -0.1095
 7561SOL    HW123816   3.543   1.793   5.839 -1.1182  1.6780 -1.6035
 7561SOL    HW223817   3.617   1.884   5.934 -0.7435  1.8259 -2.0370
 7562SOL     OW23818   4.982   6.899   7.158 -0.0404  0.3282 -0.5017
 7562SOL    HW123819   4.959   6.892   7.066 -0.6029 -0.0256 -0.3361
 7562SOL    HW223820   5.044   6.827   7.173  1.0800  1.1710 -0.9014
 7563SOL     OW23821   5.035   6.126   6.647  0.9251  0.5964  0.2518
 7563SOL    HW123822   4.954   6.167   6.679  0.8614  1.4117 -0.8899
 7563SOL    HW223823   5.080   6.196   6.600  0.9190 -0.5713 -1.6082
 7564SOL     OW23824   2.894   1.817   8.688 -0.1989  0.2530 -0.6429
 7564SOL    HW123825   2.929   1.905   8.676  1.6965 -0.6152 -1.7456
 7564SOL    HW223826   2.966   1.767   8.725 -0.7147 -1.2513 -1.5914
 7565SOL     OW23827   7.880   1.622   4.602 -0.5689  0.1130  0.4065
 7565SOL    HW123828   7.836   1.574   4.672 -1.0765  0.0951  0.0825
 7565SOL    HW223829   7.809   1.651   4.544 -0.4074  2.2043  1.1720
 7566SOL     OW23830   6.019   6.733   4.796  0.2237  0.0485  0.1957
 7566SOL    HW123831   6.017   6.701   4.886  2.4776  1.0011  0.6306
 7566SOL    HW223832   5.932   6.771   4.782 -0.0564  0.1672  2.0709
 7567SOL     OW23833   8.277   2.862   1.391  0.4729 -0.3914 -0.0026
 7567SOL    HW123834   8.290   2.797   1.322  0.8157 -0.9964  0.6243
 7567SOL    HW223835   8.288   2.946   1.346  0.5844 -0.7689 -0.7045
 7568SOL     OW23836   0.158   6.588   4.703 -0.1125  0.1410 -0.1229
 7568SOL    HW123837   0.076   6.596   4.655  0.7195  0.8515 -1.4931
 7568SOL    HW223838   0.158   6.498   4.736 -1.8667  0.4140  0.7798
 7569SOL     OW23839   6.778   1.375   7.516  0.8778 -0.6976 -0.0578
 7569SOL    HW123840   6.849   1.368   7.579  2.2583 -2.1568 -1.6980
 7569SOL    HW223841   6.755   1.285   7.495  0.0959 -0.2460 -1.2494
 7570SOL     OW23842   6.598   8.490   1.240 -0.1743 -0.1341 -0.6339
 7570SOL    HW123843   6.648   8.563   1.202 -2.4277  0.5486 -2.5515
 7570SOL    HW223844   6.576   8.435   1.165 -1.4304 -0.9433  0.3017
 7571SOL     OW23845   7.145   4.219   3.246  0.1218  0.5010 -0.0965
 7571SOL    HW123846   7.199   4.219   3.167 -1.1429 -1.2783 -1.0243
 7571SOL    HW223847   7.198   4.172   3.311  0.7731  1.1318 -0.1583
 7572SOL     OW23848   0.973   5.569   7.070 -0.0546 -0.2279 -0.3727
 7572SOL    HW123849   0.944   5.582   6.980  0.9056  1.9388 -0.4262
 7572SOL    HW223850   1.061   5.607   7.073  0.1657 -0.7847  1.3458
 7573SOL     OW23851   6.972   4.144   4.446 -0.0706  0.0090  0.0110
 7573SOL    HW123852   6.969   4.229   4.491 -0.8363  0.0857 -0.1615
 7573SOL    HW223853   6.908   4.154   4.374  0.2221 -0.5351 -0.3250
 7574SOL     OW23854   5.533   2.067   1.201  0.1548  0.3813  0.6917
 7574SOL    HW123855   5.565   1.983   1.170  3.4088  1.7636 -0.0724
 7574SOL    HW223856   5.532   2.123   1.123  0.0311  1.6026  1.5413
 7575SOL     OW23857   6.620   2.321   7.895  0.2698 -0.3503  0.1100
 7575SOL    HW123858   6.623   2.402   7.944 -0.3689 -0.0521 -0.3208
 7575SOL    HW223859   6.612   2.348   7.803  0.8701 -0.8954 -0.1163
 7576SOL     OW23860   3.562   3.849   5.905  0.2361  0.1269  0.0652
 7576SOL    HW123861   3.497   3.847   5.834  0.4596 -1.6937 -0.1484
 7576SOL    HW223862   3.546   3.932   5.950  1.5177  2.4608 -3.3869
 7577SOL     OW23863   4.378   5.669   0.935 -0.0208  0.0069 -0.0379
 7577SOL    HW123864   4.312   5.600   0.930 -0.4768  0.4952 -2.7580
 7577SOL    HW223865   4.391   5.684   1.028  0.4155 -3.9810  0.7149
 7578SOL     OW23866   0.153   3.263   2.764 -0.1819  0.5360  0.1461
 7578SOL    HW123867   0.062   3.291   2.769  0.0721  1.2531  1.1068
 7578SOL    HW223868   0.178   3.277   2.673 -0.9753  0.5059 -0.0801
 7579SOL     OW23869   8.201   7.377   0.778  0.0179  0.1728  0.6456
 7579SOL    HW123870   8.267   7.316   0.744 -1.7239 -1.4670  0.0642
 7579SOL    HW223871   8.248   7.460   0.786  1.4621 -0.1900 -2.4891
 7580SOL     OW23872   1.779   2.090   7.232 -0.8032 -0.6183  0.5329
 7580SOL    HW123873   1.700   2.038   7.221  0.3098 -2.0043 -1.6941
 7580SOL    HW223874   1.849   2.025   7.243  0.3573  0.4561 -0.1901
 7581SOL     OW23875   5.950   4.047   5.208 -0.4177  0.4508  0.4658
 7581SOL    HW123876   5.967   4.115   5.143  0.4388  0.8361  1.0853
 7581SOL    HW223877   5.887   4.086   5.268  0.1174  0.7330  0.8543
 7582SOL     OW23878   3.187   8.115   8.210  0.6643 -0.3234  0.4339
 7582SOL    HW123879   3.214   8.146   8.297  0.0204 -1.5450  1.0997
 7582SOL    HW223880   3.139   8.034   8.228  0.3997 -0.5182 -1.0631
 7583SOL     OW23881   6.845   0.387   2.632  0.1219  0.1210  0.2926
 7583SOL    HW123882   6.873   0.340   2.711 -1.8000 -1.8846 -0.1146
 7583SOL    HW223883   6.795   0.462   2.665 -0.9426 -0.8794  1.0448
 7584SOL     OW23884   5.116   3.314   4.661 -0.1048 -0.0622 -0.3029
 7584SOL    HW123885   5.066   3.384   4.620 -0.9331 -1.2007 -1.3390
 7584SOL    HW223886   5.186   3.294   4.598  0.0783 -0.2193 -0.0555
 7585SOL     OW23887   7.228   8.659   6.168 -0.3615  0.3625 -0.0460
 7585SOL    HW123888   7.142   8.688   6.196 -0.3837 -0.5265  0.8423
 7585SOL    HW223889   7.281   8.739   6.166 -0.6631  0.6165  1.4162
 7586SOL     OW23890   4.328   1.894   5.097 -0.0059 -0.0774 -0.5037
 7586SOL    HW123891   4.333   1.828   5.028 -1.3567 -0.5870 -0.1376
 7586SOL    HW223892   4.241   1.884   5.135  1.2770 -1.0230  2.4923
 7587SOL     OW23893   2.492   4.041   2.903  0.1655  0.3760 -0.3460
 7587SOL    HW123894   2.557   4.103   2.934 -1.1521  0.5027  2.4948
 7587SOL    HW223895   2.540   3.959   2.890  0.8318  0.2199  2.5259
 7588SOL     OW23896   0.180   3.468   0.810  0.1338 -0.2645  0.2446
 7588SOL    HW123897   0.175   3.455   0.715 -2.3328  1.1666  0.0884
 7588SOL    HW223898   0.114   3.408   0.846 -0.4678  0.7348  0.8378
 7589SOL     OW23899   4.307   2.741   6.292  0.0709 -0.5135  0.2313
 7589SOL    HW123900   4.235   2.679   6.282 -1.2025  1.0673 -1.3046
 7589SOL    HW223901   4.339   2.727   6.380 -0.2119 -3.2354 -0.0078
 7590SOL     OW23902   4.575   8.123   1.133 -0.3439  0.1850  0.5911
 7590SOL    HW123903   4.654   8.079   1.164  0.5814  0.3640 -1.3495
 7590SOL    HW223904   4.506   8.096   1.194  1.0564 -0.5495  1.9037
 7591SOL     OW23905   1.724   2.473   8.341 -0.5365 -0.8468  0.6237
 7591SOL    HW123906   1.796   2.431   8.295 -0.5962  0.4815 -0.7496
 7591SOL    HW223907   1.653   2.476   8.278 -0.3280  1.8342  0.3940
 7592SOL     OW23908   8.183   6.719   0.764 -0.6498  1.0740 -0.2481
 7592SOL    HW123909   8.110   6.739   0.823 -0.2878 -0.0670  0.6321
 7592SOL    HW223910   8.148   6.650   0.706 -1.1800  2.5587 -1.7839
 7593SOL     OW23911   6.859   3.204   4.870 -0.2398 -0.2808 -0.2077
 7593SOL    HW123912   6.854   3.188   4.776 -2.0814  1.5150 -0.4944
 7593SOL    HW223913   6.768   3.218   4.896  0.2454 -0.6287  1.8371
 7594SOL     OW23914   0.271   1.292   2.911 -0.4202  0.0407 -0.0571
 7594SOL    HW123915   0.248   1.200   2.922  2.5523 -0.7091  0.8480
 7594SOL    HW223916   0.317   1.295   2.828 -0.4458  0.7074 -0.0517
 7595SOL     OW23917   6.834   7.337   6.088 -0.1203  0.4574 -0.5563
 7595SOL    HW123918   6.801   7.278   6.156  1.5668 -0.7789 -0.7205
 7595SOL    HW223919   6.790   7.309   6.008  0.4689 -0.4630 -0.5810
 7596SOL     OW23920   7.839   6.125   1.346  0.1739  0.1483 -0.8623
 7596SOL    HW123921   7.837   6.046   1.399  2.5133 -0.5045 -1.6208
 7596SOL    HW223922   7.922   6.167   1.368 -1.4082  2.9999  0.2588
 7597SOL     OW23923   7.324   7.654   4.683 -0.1380  0.1195 -0.4376
 7597SOL    HW123924   7.243   7.704   4.685 -0.4993 -0.4339 -0.9293
 7597SOL    HW223925   7.372   7.683   4.761 -0.5214  0.9093 -0.4806
 7598SOL     OW23926   3.164   5.544   0.237  0.1818 -0.1796 -0.0294
 7598SOL    HW123927   3.117   5.584   0.164  1.1414 -0.7275 -0.9621
 7598SOL    HW223928   3.171   5.452   0.214 -1.1390 -0.7597  1.6411
 7599SOL     OW23929   4.357   7.934   6.341 -0.0560  0.4865 -0.0737
 7599SOL    HW123930   4.331   7.961   6.430 -0.1058  0.0595  0.0415
 7599SOL    HW223931   4.370   8.017   6.294  0.2497  0.7217  0.4139
 7600SOL     OW23932   1.607   0.132   0.931 -0.6396 -0.4425 -0.0588
 7600SOL    HW123933   1.644   0.215   0.960 -0.9896  0.3258 -1.6905
 7600SOL    HW223934   1.661   0.065   0.973 -0.1160  0.6004  0.9820
 7601SOL     OW23935   5.780   7.308   1.318  0.0414  0.4106 -0.0264
 7601SOL    HW123936   5.806   7.399   1.308 -0.5753  0.5929  0.0011
 7601SOL    HW223937   5.731   7.306   1.400  0.9255 -0.1479  0.5131
 7602SOL     OW23938   7.826   6.979   3.631  0.7143  0.1118  0.7032
 7602SOL    HW123939   7.790   6.890   3.632 -1.8883  1.0416 -0.2408
 7602SOL    HW223940   7.918   6.968   3.657  0.8178 -2.9715 -0.4711
 7603SOL     OW23941   2.276   4.523   2.489 -0.7093 -0.4501  0.0966
 7603SOL    HW123942   2.311   4.454   2.546  0.1636  0.9924  1.3697
 7603SOL    HW223943   2.283   4.603   2.541 -0.4685  0.8328 -1.8149
 7604SOL     OW23944   5.354   3.378   4.887 -0.2465  0.1599  0.3322
 7604SOL    HW123945   5.390   3.309   4.830  0.9339 -1.3493  2.7141
 7604SOL    HW223946   5.260   3.359   4.892 -0.7851  1.5902 -2.6436
 7605SOL     OW23947   0.224   7.506   8.218 -0.6832 -0.3133 -0.3504
 7605SOL    HW123948   0.208   7.489   8.125  0.9234  0.8176 -0.8750
 7605SOL    HW223949   0.292   7.573   8.219  0.0176 -0.9731  1.6499
 7606SOL     OW23950   1.684   2.092   1.790 -0.4340  0.7312 -0.1979
 7606SOL    HW123951   1.666   2.159   1.855  1.4297  2.0731 -0.9604
 7606SOL    HW223952   1.668   2.135   1.706 -0.8094 -0.3090 -0.6727
 7607SOL     OW23953   3.873   1.886   3.062 -0.5919 -0.6268 -0.7930
 7607SOL    HW123954   3.792   1.841   3.038 -2.0154 -0.5242  3.0746
 7607SOL    HW223955   3.855   1.978   3.043 -0.9119 -0.7532 -1.1118
 7608SOL     OW23956   6.504   7.231   8.814 -0.1217  0.0759  0.1788
 7608SOL    HW123957   6.537   7.174   8.744  2.5247  0.1572  1.2438
 7608SOL    HW223958   6.421   7.191   8.840 -0.6632 -0.5415 -2.2665
 7609SOL     OW23959   3.719   8.135   3.122 -0.4489 -0.3045  0.1945
 7609SOL    HW123960   3.764   8.072   3.066  0.0312  0.2623 -0.0726
 7609SOL    HW223961   3.762   8.218   3.103  1.1466 -0.4047  2.9159
 7610SOL     OW23962   3.164   0.504   1.945 -0.1316  0.4226 -0.2101
 7610SOL    HW123963   3.213   0.446   1.888 -0.8640 -0.4906  0.0754
 7610SOL    HW223964   3.231   0.557   1.989  0.4442  1.0409 -1.7739
 7611SOL     OW23965   1.180   2.744   4.326 -0.3197 -0.0882  0.1047
 7611SOL    HW123966   1.275   2.738   4.335 -0.1886  0.5868 -0.7391
 7611SOL    HW223967   1.150   2.653   4.327  0.2800 -0.2869  0.8505
 7612SOL     OW23968   2.352   8.713   7.250  0.1620  0.2521  0.4247
 7612SOL    HW123969   2.260   8.717   7.224 -0.5239  0.7991  2.7076
 7612SOL    HW223970   2.350   8.712   7.346  2.5520  0.5904  0.5423
 7613SOL     OW23971   7.828   3.288   8.177  0.1167  0.1368  0.3923
 7613SOL    HW123972   7.739   3.304   8.210  0.0724  0.1332  0.2720
 7613SOL    HW223973   7.884   3.306   8.253  0.0599  0.7502  0.2926
 7614SOL     OW23974   6.287   4.767   5.967 -0.4798  0.2747  0.6625
 7614SOL    HW123975   6.285   4.811   5.882  0.2878  0.1695  0.5869
 7614SOL    HW223976   6.237   4.686   5.953 -2.2173  1.2493  0.8977
 7615SOL     OW23977   4.717   2.359   5.961  0.7213 -0.8595  0.4219
 7615SOL    HW123978   4.761   2.384   5.881  0.1200 -1.2634 -0.0440
 7615SOL    HW223979   4.677   2.440   5.993 -0.2655 -0.9764 -0.4763
 7616SOL     OW23980   4.913   5.526   8.030  0.1556  0.4057  0.3947
 7616SOL    HW123981   4.939   5.611   7.993  1.3178 -0.0279  0.1940
 7616SOL    HW223982   4.908   5.467   7.954  1.7793 -0.2980  0.8053
 7617SOL     OW23983   1.875   7.734   5.298 -0.0399  0.0455 -0.4449
 7617SOL    HW123984   1.861   7.666   5.363 -0.7088 -1.0184 -1.6596
 7617SOL    HW223985   1.875   7.816   5.348 -0.6179 -0.7314  0.8649
 7618SOL     OW23986   0.308   0.580   8.933 -0.4389 -0.6261  0.1802
 7618SOL    HW123987   0.230   0.612   8.980 -1.4027 -0.7385 -1.2989
 7618SOL    HW223988   0.326   0.648   8.868 -0.3266 -1.3919 -0.6041
 7619SOL     OW23989   1.896   7.636   2.395  0.3810  0.1505  0.3631
 7619SOL    HW123990   1.933   7.724   2.399  2.3821 -0.4303 -1.9932
 7619SOL    HW223991   1.853   7.632   2.309 -2.3802 -0.2912  1.6722
 7620SOL     OW23992   8.353   7.967   4.525 -0.1771 -0.2182 -0.1842
 7620SOL    HW123993   8.374   8.012   4.444  2.2752  0.6880  0.8620
 7620SOL    HW223994   8.262   7.991   4.543  0.0843  1.7533 -1.2828
 7621SOL     OW23995   2.247   2.340   4.519 -0.1575  0.1156  0.2006
 7621SOL    HW123996   2.272   2.399   4.590  0.2254 -0.0024  0.1633
 7621SOL    HW223997   2.283   2.381   4.440 -1.1979  0.6267 -0.0270
 7622SOL     OW23998   4.589   1.182   1.709  0.4586  0.1668 -0.0966
 7622SOL    HW123999   4.660   1.211   1.652  1.1040  0.0451  0.6283
 7622SOL    HW224000   4.631   1.161   1.792 -0.5450  0.9387  0.6332
 7623SOL     OW24001   2.660   1.841   3.131 -0.8084  0.5710  0.1353
 7623SOL    HW124002   2.623   1.768   3.181 -0.3314  0.8155  0.8582
 7623SOL    HW224003   2.600   1.852   3.058 -0.9680 -0.4497  0.0966
 7624SOL     OW24004   7.130   2.495   1.426 -0.1983  0.6824  0.1631
 7624SOL    HW124005   7.080   2.526   1.351 -1.1056  1.6175  1.1310
 7624SOL    HW224006   7.208   2.455   1.387 -0.8805  0.6926 -1.2936
 7625SOL     OW24007   4.457   8.788   5.376  0.1671  0.1955  0.2659
 7625SOL    HW124008   4.428   8.765   5.464  1.6782 -1.2084  0.4679
 7625SOL    HW224009   4.552   8.770   5.377  0.4291  1.2933 -1.2943
 7626SOL     OW24010   8.140   5.959   6.605 -0.4549 -0.1330  0.6789
 7626SOL    HW124011   8.142   6.018   6.529  0.6886 -0.1967  0.6352
 7626SOL    HW224012   8.195   5.885   6.580 -1.1024 -0.7737  1.0993
 7627SOL     OW24013   6.918   8.686   1.097  0.1804  0.1115  0.4932
 7627SOL    HW124014   6.920   8.689   1.192  2.4167 -0.2173  0.5170
 7627SOL    HW224015   6.972   8.760   1.069  0.1421 -0.2087 -0.4993
 7628SOL     OW24016   6.359   8.621   1.054 -0.9674  0.2344  0.4684
 7628SOL    HW124017   6.413   8.580   0.987  1.6541  0.4363  2.3323
 7628SOL    HW224018   6.305   8.684   1.007  1.2901  0.8821 -1.3703
 7629SOL     OW24019   4.314   5.268   6.825 -0.0364  0.1173 -0.3982
 7629SOL    HW124020   4.223   5.277   6.795 -0.2983 -1.1467 -0.0248
 7629SOL    HW224021   4.310   5.205   6.897  1.0548  0.5470  0.0576
 7630SOL     OW24022   4.844   3.882   6.299  0.2297 -0.9707 -0.1789
 7630SOL    HW124023   4.893   3.908   6.221  0.7451 -1.5501 -0.0552
 7630SOL    HW224024   4.791   3.808   6.270  0.3866 -1.1561  0.0055
 7631SOL     OW24025   7.323   2.919   1.507  0.0410 -0.0893 -0.6330
 7631SOL    HW124026   7.239   2.885   1.536  0.2820 -0.4288 -0.3236
 7631SOL    HW224027   7.319   3.013   1.527 -0.2952 -0.0892 -0.7012
 7632SOL     OW24028   0.446   0.334   6.532 -0.0770  0.3570 -0.0783
 7632SOL    HW124029   0.476   0.307   6.619 -0.0435  0.4735 -0.0525
 7632SOL    HW224030   0.449   0.255   6.479 -1.8568 -0.1478  0.5037
 7633SOL     OW24031   0.953   3.778   3.956  0.5799 -0.1746 -0.0336
 7633SOL    HW124032   0.946   3.683   3.941 -1.2931 -0.1249  0.2702
 7633SOL    HW224033   0.886   3.816   3.899 -1.0958  0.6502  2.3097
 7634SOL     OW24034   4.131   1.506   6.700  0.2081 -0.0544  0.3943
 7634SOL    HW124035   4.118   1.412   6.683 -0.5472 -0.3252  2.2232
 7634SOL    HW224036   4.225   1.516   6.711  0.1295 -1.1407  2.7283
 7635SOL     OW24037   3.093   0.374   2.870  0.6619 -0.3149  0.0021
 7635SOL    HW124038   3.124   0.305   2.928  0.8433 -1.1858 -1.0941
 7635SOL    HW224039   3.011   0.340   2.834  1.7147 -0.8456 -2.0413
 7636SOL     OW24040   3.430   1.592   6.295 -0.7071 -0.0541 -0.6391
 7636SOL    HW124041   3.395   1.603   6.383  1.1512  3.0187 -0.1192
 7636SOL    HW224042   3.520   1.564   6.308 -0.2897  0.8191 -1.4954
 7637SOL     OW24043   7.851   1.417   5.533 -0.0326 -0.1254  0.7050
 7637SOL    HW124044   7.938   1.378   5.521 -0.5257 -0.9937 -0.1620
 7637SOL    HW224045   7.796   1.344   5.562 -0.6316  0.2697  0.5769
 7638SOL     OW24046   8.162   1.841   0.009  0.3604 -0.4129 -0.0040
 7638SOL    HW124047   8.098   1.796   0.066  0.7693  1.3421  1.9362
 7638SOL    HW224048   8.109   1.876  -0.062 -1.0689  1.5978  1.9223
 7639SOL     OW24049   8.411   5.949   1.869 -0.0589 -0.1813 -0.2594
 7639SOL    HW124050   8.481   5.999   1.911  0.7550 -1.1668 -0.4147
 7639SOL    HW224051   8.445   5.928   1.782 -0.6833 -0.3916 -0.4608
 7640SOL     OW24052   0.319   7.810   1.203 -0.4948 -0.2031  0.1587
 7640SOL    HW124053   0.336   7.788   1.112  1.1257  0.8076  0.1716
 7640SOL    HW224054   0.225   7.796   1.214 -0.6996 -0.4695 -1.6112
 7641SOL     OW24055   1.329   0.371   2.397 -0.5703  0.7316 -0.2020
 7641SOL    HW124056   1.377   0.441   2.353  0.8575 -0.5587 -0.7896
 7641SOL    HW224057   1.249   0.360   2.344  1.0256 -0.6678 -2.5312
 7642SOL     OW24058   6.433   8.269   7.012 -0.3080 -0.4924 -0.0488
 7642SOL    HW124059   6.519   8.227   7.008  0.0139  0.1271  0.1277
 7642SOL    HW224060   6.376   8.213   6.960  1.0896  1.1073 -3.6381
 7643SOL     OW24061   1.029   8.118   0.949  0.1236  0.3410 -0.1810
 7643SOL    HW124062   1.100   8.079   1.000  1.3400  0.8905 -1.3802
 7643SOL    HW224063   0.995   8.046   0.896  2.0535  0.7073 -2.0480
 7644SOL     OW24064   0.410   0.642   5.931  0.3470  0.4650  0.3321
 7644SOL    HW124065   0.358   0.645   6.011  1.5304 -1.9178  1.2845
 7644SOL    HW224066   0.368   0.573   5.878 -0.9591  2.5896 -1.5939
 7645SOL     OW24067   5.929   7.035   6.416  0.4337 -0.7869 -0.0358
 7645SOL    HW124068   5.997   6.981   6.458  1.7216 -1.4854 -2.7420
 7645SOL    HW224069   5.851   6.980   6.418  0.4700 -0.8154  1.3417
 7646SOL     OW24070   0.070   5.621   3.198  0.2293  0.1770 -0.3362
 7646SOL    HW124071   0.124   5.556   3.243  0.7229  0.4451 -0.5292
 7646SOL    HW224072   0.132   5.690   3.173 -0.4781  1.3956  1.0929
 7647SOL     OW24073   8.429   5.494   4.518 -0.3127  0.1794 -0.3953
 7647SOL    HW124074   8.385   5.435   4.457  0.1859 -0.1628 -0.4394
 7647SOL    HW224075   8.389   5.475   4.603 -0.1749 -0.2168 -0.4129
 7648SOL     OW24076   6.883   5.021   6.815 -0.2937 -0.6392  0.4118
 7648SOL    HW124077   6.882   4.948   6.752  1.9435 -0.5074  0.1345
 7648SOL    HW224078   6.839   5.093   6.770 -2.2489 -1.6600  0.5655
 7649SOL     OW24079   6.966   6.051   8.211 -0.4723  0.3360 -0.1629
 7649SOL    HW124080   6.930   6.053   8.300  1.9496  1.5414  0.8998
 7649SOL    HW224081   6.978   5.958   8.193  0.5118  0.0796  1.5123
 7650SOL     OW24082   1.885   6.411   7.543 -0.1507 -0.3961  0.5885
 7650SOL    HW124083   1.842   6.484   7.498 -1.5434 -1.6503 -0.2334
 7650SOL    HW224084   1.813   6.363   7.585  0.6495 -1.6310  0.6016
 7651SOL     OW24085   4.565   7.923   6.023  0.2215 -0.1674 -0.0186
 7651SOL    HW124086   4.481   7.910   6.065 -0.8169 -0.3497 -2.0287
 7651SOL    HW224087   4.571   8.017   6.008  0.4468 -0.1395  0.2349
 7652SOL     OW24088   7.411   4.093   2.197  0.2537  0.4099  0.9278
 7652SOL    HW124089   7.414   4.185   2.225 -0.7401  0.6771  0.2138
 7652SOL    HW224090   7.503   4.066   2.195  0.6895  1.8225 -0.2057
 7653SOL     OW24091   1.025   7.298   0.457 -0.1253  0.3218 -0.5660
 7653SOL    HW124092   1.018   7.369   0.521 -1.3713 -0.2045 -0.0828
 7653SOL    HW224093   1.116   7.302   0.426  0.1783  1.3037  0.3991
 7654SOL     OW24094   3.374   3.007   0.012  0.0835 -0.2419 -0.5861
 7654SOL    HW124095   3.379   2.997   0.107  1.2525 -0.3700 -0.6520
 7654SOL    HW224096   3.448   3.064  -0.010 -2.3030  2.9979 -1.0238
 7655SOL     OW24097   7.141   4.741   7.564 -0.3363  0.5116  0.2138
 7655SOL    HW124098   7.091   4.814   7.601  1.2865  1.6357  0.3114
 7655SOL    HW224099   7.096   4.719   7.483 -1.4658  0.9121  0.7185
 7656SOL     OW24100   1.192   5.137   8.233 -0.0463 -0.5778  0.5642
 7656SOL    HW124101   1.204   5.229   8.254 -0.0243 -0.6165  0.7253
 7656SOL    HW224102   1.098   5.128   8.218  0.0035 -0.4539  0.1742
 7657SOL     OW24103   6.333   5.137   3.226  0.3075 -0.1946 -0.4671
 7657SOL    HW124104   6.341   5.204   3.157 -2.1706  0.8541  0.1671
 7657SOL    HW224105   6.340   5.186   3.308  2.3682 -1.3199  0.1086
 7658SOL     OW24106   2.727   2.543   3.030  0.2107  0.4234 -0.5214
 7658SOL    HW124107   2.767   2.456   3.022  0.2196  0.1723  1.6562
 7658SOL    HW224108   2.788   2.592   3.084 -1.6050  0.5043  1.5993
 7659SOL     OW24109   6.294   4.688   3.293  0.3400  0.7093 -0.0220
 7659SOL    HW124110   6.233   4.621   3.325 -1.7296  3.2878  1.8077
 7659SOL    HW224111   6.252   4.724   3.215  0.0240  1.7045  0.5842
 7660SOL     OW24112   5.442   0.156   7.388 -0.1961 -0.1872  0.4500
 7660SOL    HW124113   5.429   0.185   7.478 -1.9571 -0.4088  0.2982
 7660SOL    HW224114   5.466   0.064   7.395 -0.2648 -0.1863  0.6930
 7661SOL     OW24115   8.707   3.061   4.203  0.1989 -0.5618  0.5054
 7661SOL    HW124116   8.691   2.985   4.147 -0.1003  0.8122 -1.3775
 7661SOL    HW224117   8.621   3.100   4.214  0.6725  0.9299 -0.7489
 7662SOL     OW24118   2.977   7.820   4.104  0.1642  0.9331  0.2188
 7662SOL    HW124119   3.056   7.784   4.145 -1.0071 -0.8964  0.9841
 7662SOL    HW224120   2.910   7.814   4.171 -0.9654  1.1813 -0.8594
 7663SOL     OW24121   1.056   6.275   1.458  0.5738 -0.0272  0.3417
 7663SOL    HW124122   1.147   6.295   1.479  1.3932 -1.7723 -1.2308
 7663SOL    HW224123   1.021   6.356   1.421  1.6370  0.5157  0.4864
 7664SOL     OW24124   1.513   5.847   4.279 -0.2007 -0.1695  0.4521
 7664SOL    HW124125   1.598   5.873   4.314 -0.0613 -0.8531  0.6346
 7664SOL    HW224126   1.526   5.759   4.246 -1.3324 -1.1307  2.3854
 7665SOL     OW24127   0.208   1.473   5.322 -0.9129  0.5485  0.4259
 7665SOL    HW124128   0.230   1.538   5.256 -1.0314  1.2717  1.0780
 7665SOL    HW224129   0.186   1.394   5.272 -0.1576  0.8173 -0.3512
 7666SOL     OW24130   2.229   8.709   4.410  0.0020  0.2158 -0.5050
 7666SOL    HW124131   2.310   8.719   4.359 -0.6092  2.3136 -1.1820
 7666SOL    HW224132   2.255   8.656   4.485  2.5192  2.3552  0.3008
 7667SOL     OW24133   7.506   1.075   0.044 -0.2856 -0.0694  0.2982
 7667SOL    HW124134   7.599   1.097   0.047 -0.0234 -0.9561 -0.7813
 7667SOL    HW224135   7.494   1.035  -0.042 -1.3932 -1.1623  0.9400
 7668SOL     OW24136   2.470   1.586   8.376 -0.5253 -0.3439  0.7156
 7668SOL    HW124137   2.537   1.538   8.328 -1.0283 -2.7353  2.2081
 7668SOL    HW224138   2.507   1.597   8.464 -0.6478  1.6400  0.5692
 7669SOL     OW24139   4.302   7.313   7.375 -0.1028 -0.4688 -0.1507
 7669SOL    HW124140   4.381   7.359   7.403  1.1559 -1.1325 -2.3645
 7669SOL    HW224141   4.268   7.273   7.456  1.6824  0.0181  0.9093
 7670SOL     OW24142   5.428   0.126   3.033  0.1141 -0.0953 -0.5669
 7670SOL    HW124143   5.390   0.064   3.095 -0.2386  0.4196 -0.2503
 7670SOL    HW224144   5.377   0.115   2.953  0.9382 -1.1599 -0.9618
 7671SOL     OW24145   7.583   7.999   2.338 -0.8053 -0.0848  0.0427
 7671SOL    HW124146   7.558   8.018   2.248  0.0475  0.4635 -0.0849
 7671SOL    HW224147   7.512   8.037   2.391 -0.1777  1.6284 -0.3021
 7672SOL     OW24148   5.500   1.230   1.858  0.2833 -0.6280  0.0811
 7672SOL    HW124149   5.578   1.247   1.805  1.7533  0.9449  2.5369
 7672SOL    HW224150   5.513   1.142   1.894 -0.0311 -1.1196 -0.9677
 7673SOL     OW24151   5.401   7.438   1.494  0.0169  0.1420  0.5489
 7673SOL    HW124152   5.482   7.390   1.479 -1.9209 -3.1053 -0.3907
 7673SOL    HW224153   5.388   7.490   1.415  0.5246 -0.3814  0.1195
 7674SOL     OW24154   7.057   2.039   6.669 -0.2381  0.3744  0.3549
 7674SOL    HW124155   6.995   2.041   6.742 -0.4183 -2.4209  0.3624
 7674SOL    HW224156   7.003   2.022   6.592  0.2857  0.1079  0.0382
 7675SOL     OW24157   4.085   1.194   1.021  0.0052 -0.0915 -0.4999
 7675SOL    HW124158   4.121   1.124   0.968  0.5594  0.6173 -1.0798
 7675SOL    HW224159   3.991   1.191   1.004  0.0210 -0.7181 -0.4846
 7676SOL     OW24160   3.182   3.488   7.913  0.5117  0.1365 -0.7880
 7676SOL    HW124161   3.271   3.523   7.907  0.8647 -0.3004  1.1678
 7676SOL    HW224162   3.190   3.413   7.971 -0.8905 -0.8897 -1.8595
 7677SOL     OW24163   1.780   6.123   7.435  0.1340  0.1759 -0.2256
 7677SOL    HW124164   1.725   6.047   7.451 -0.2206  0.1513 -1.4605
 7677SOL    HW224165   1.758   6.184   7.506 -0.3284 -0.4522  0.1803
 7678SOL     OW24166   6.969   0.114   0.092  0.2781 -0.3101  0.1111
 7678SOL    HW124167   7.035   0.086   0.029  0.3764 -1.7740  0.8366
 7678SOL    HW224168   6.902   0.157   0.038  0.7272 -0.8463 -0.9033
 7679SOL     OW24169   6.272   7.013   7.976 -0.1706  0.7774  0.0529
 7679SOL    HW124170   6.294   7.106   7.988 -1.9958  1.1346  1.0788
 7679SOL    HW224171   6.206   7.013   7.907 -1.5944  0.4916  1.3628
 7680SOL     OW24172   8.103   3.590   3.684  0.1917 -0.3048  0.1931
 7680SOL    HW124173   8.143   3.548   3.608 -0.9678  0.1376 -0.6966
 7680SOL    HW224174   8.131   3.681   3.679  1.4152 -0.5923  1.2307
 7681SOL     OW24175   0.475   4.943   0.397  0.0636  0.4289 -0.2660
 7681SOL    HW124176   0.480   5.038   0.395 -1.4604  0.5247 -0.8121
 7681SOL    HW224177   0.456   4.922   0.489 -3.7613  0.9766 -0.8042
 7682SOL     OW24178   8.879   4.249   6.593 -0.2690  0.3645 -0.0223
 7682SOL    HW124179   8.860   4.236   6.500 -0.2774 -0.6391  0.1131
 7682SOL    HW224180   8.806   4.300   6.626 -1.2614 -0.9262 -0.1512
 7683SOL     OW24181   8.638   4.707   1.266 -0.0374  0.3810  0.6321
 7683SOL    HW124182   8.567   4.764   1.297 -1.1159 -1.0683  0.9606
 7683SOL    HW224183   8.595   4.646   1.207  0.6918 -1.2620  1.7255
 7684SOL     OW24184   3.343   1.600   0.753 -0.6375  0.1862  0.1457
 7684SOL    HW124185   3.368   1.687   0.720 -1.3638  0.5246  0.4601
 7684SOL    HW224186   3.251   1.590   0.727 -0.5843 -0.4513  0.1929
 7685SOL     OW24187   5.204   5.070   2.318  0.7539 -0.1391  0.2433
 7685SOL    HW124188   5.239   4.987   2.350  0.7753 -0.1846  0.1050
 7685SOL    HW224189   5.111   5.053   2.305  0.7989 -0.2091  0.0030
 7686SOL     OW24190   7.406   6.757   1.156 -0.7887 -0.4996  0.2670
 7686SOL    HW124191   7.350   6.834   1.151 -0.1624 -0.0610 -0.0024
 7686SOL    HW224192   7.346   6.686   1.181 -1.7993 -0.3883 -1.6720
 7687SOL     OW24193   2.726   3.994   5.609  0.0274 -0.7640  0.3693
 7687SOL    HW124194   2.780   3.977   5.532 -0.0180  0.7015 -0.0142
 7687SOL    HW224195   2.768   3.946   5.680  0.2758 -1.8394 -0.4835
 7688SOL     OW24196   8.139   8.424   1.960  0.2857 -0.6713  0.3077
 7688SOL    HW124197   8.202   8.383   2.019  0.1882 -1.1076  0.1135
 7688SOL    HW224198   8.188   8.436   1.878  0.1974 -0.7654  0.2410
 7689SOL     OW24199   8.683   2.518   4.459 -0.3069  0.0418  0.8814
 7689SOL    HW124200   8.608   2.485   4.409  0.2319  1.2041 -0.8073
 7689SOL    HW224201   8.750   2.451   4.446  0.1438  0.7653 -0.8635
 7690SOL     OW24202   5.830   6.627   8.748 -0.3831 -0.5202  0.3260
 7690SOL    HW124203   5.913   6.655   8.787  0.6895 -0.6286 -1.7272
 7690SOL    HW224204   5.835   6.656   8.657 -1.7592 -2.2409 -0.3554
 7691SOL     OW24205   1.823   6.363   8.365 -0.1169  0.2944  0.5169
 7691SOL    HW124206   1.880   6.299   8.323 -0.9552  0.1159 -0.3814
 7691SOL    HW224207   1.808   6.327   8.453  1.2095  0.3983  0.8129
 7692SOL     OW24208   7.787   6.364   4.005 -0.2783  0.1389  0.8848
 7692SOL    HW124209   7.748   6.316   3.932  1.7775 -0.4453  0.1006
 7692SOL    HW224210   7.731   6.441   4.016 -2.1586 -1.1055  0.4867
 7693SOL     OW24211   6.970   4.826   7.841 -0.2576 -0.0090  0.1849
 7693SOL    HW124212   6.999   4.896   7.784 -0.1547 -0.9730 -0.9815
 7693SOL    HW224213   6.893   4.789   7.797  0.1785 -1.1534  0.3511
 7694SOL     OW24214   7.099   8.156   5.980 -0.0314 -0.3024 -0.2917
 7694SOL    HW124215   7.152   8.233   5.994 -1.8459  0.8642  0.4860
 7694SOL    HW224216   7.153   8.083   6.010  0.3760  1.0200  2.4454
 7695SOL     OW24217   8.506   1.614   1.878  0.0225  0.7222  0.6523
 7695SOL    HW124218   8.548   1.557   1.814  1.2172  2.3059 -0.0420
 7695SOL    HW224219   8.512   1.566   1.960 -0.6944 -0.9368 -0.2275
 7696SOL     OW24220   2.233   4.047   3.004 -0.6546 -0.1302 -0.0581
 7696SOL    HW124221   2.234   3.952   3.021 -0.3875  0.0026  0.7160
 7696SOL    HW224222   2.316   4.064   2.961 -0.5829 -0.2057  0.0494
 7697SOL     OW24223   1.342   2.239   6.235  0.2892  0.1919  0.5689
 7697SOL    HW124224   1.400   2.186   6.180  1.7510  1.4705  0.8168
 7697SOL    HW224225   1.311   2.177   6.302  0.4186 -0.8017 -0.2647
 7698SOL     OW24226   6.455   6.203   2.690 -0.0006  0.3118 -0.9977
 7698SOL    HW124227   6.479   6.167   2.775 -0.9090  0.9812 -0.4362
 7698SOL    HW224228   6.525   6.266   2.671  0.3485 -0.0339 -0.8753
 7699SOL     OW24229   2.394   0.216   8.276 -0.0743 -0.6440  0.0962
 7699SOL    HW124230   2.318   0.176   8.320  0.0401 -1.7905 -0.7080
 7699SOL    HW224231   2.436   0.268   8.345 -1.9166  0.5395  0.4158
 7700SOL     OW24232   4.869   8.474   1.538  0.0230  0.1258 -0.4766
 7700SOL    HW124233   4.801   8.509   1.480  0.2837  1.4349 -0.0268
 7700SOL    HW224234   4.946   8.527   1.520  0.0589  0.7134  1.1640
 7701SOL     OW24235   6.665   1.807   5.326  0.2385 -0.1201 -0.2165
 7701SOL    HW124236   6.620   1.725   5.308 -1.9302  0.5045  1.9102
 7701SOL    HW224237   6.637   1.832   5.414  2.8909  1.6003  0.2553
 7702SOL     OW24238   1.822   5.874   3.491  0.0874  0.0563 -0.3072
 7702SOL    HW124239   1.886   5.854   3.422 -0.2785  1.2478 -1.0347
 7702SOL    HW224240   1.741   5.834   3.461 -0.0467  0.4895 -0.5452
 7703SOL     OW24241   6.861   3.004   6.952  0.5181  0.2161  0.4379
 7703SOL    HW124242   6.863   3.099   6.941  0.7710  0.4648  2.3427
 7703SOL    HW224243   6.833   2.970   6.867  2.0710  1.8838 -0.7906
 7704SOL     OW24244   2.685   5.252   0.072 -0.1754  0.0702 -0.4792
 7704SOL    HW124245   2.738   5.307   0.014 -1.8069  1.4120 -0.7657
 7704SOL    HW224246   2.621   5.210   0.014  0.4994 -1.5234 -0.1360
 7705SOL     OW24247   4.396   0.609   8.437 -0.0130  0.1396  0.1315
 7705SOL    HW124248   4.343   0.684   8.412 -0.0070 -0.5327 -2.1169
 7705SOL    HW224249   4.342   0.560   8.499 -0.6489  1.1682  0.4039
 7706SOL     OW24250   2.848   6.320   1.065 -0.3981  0.4624  0.0698
 7706SOL    HW124251   2.820   6.288   1.151 -1.2428  0.4775 -0.1915
 7706SOL    HW224252   2.771   6.308   1.009 -0.1918  1.4057 -0.4355
 7707SOL     OW24253   5.423   2.456   2.058  0.0021 -0.0146  0.2143
 7707SOL    HW124254   5.348   2.450   2.000  0.1380 -1.3794  0.1463
 7707SOL    HW224255   5.497   2.476   2.000  0.5262 -3.4140 -0.5070
 7708SOL     OW24256   3.510   7.524   5.813 -0.2642 -0.3393 -0.4291
 7708SOL    HW124257   3.554   7.600   5.850 -1.5483 -0.6000  1.8783
 7708SOL    HW224258   3.417   7.538   5.833 -1.0120 -0.9035 -3.0548
 7709SOL     OW24259   0.324   2.133   5.731  0.2882 -0.4046  0.1493
 7709SOL    HW124260   0.270   2.077   5.787 -0.2062  0.4931  0.5975
 7709SOL    HW224261   0.268   2.152   5.656  0.4692 -0.5365 -0.0198
 7710SOL     OW24262   2.054   8.745   0.144 -0.0187  0.2490  0.2032
 7710SOL    HW124263   2.081   8.661   0.107  1.8756  1.1995 -0.6713
 7710SOL    HW224264   2.103   8.751   0.226 -0.1622  0.4962  0.2699
 7711SOL     OW24265   7.716   3.743   7.112  0.2445  0.1037  0.2114
 7711SOL    HW124266   7.745   3.682   7.179 -1.9616  0.7509  1.8704
 7711SOL    HW224267   7.792   3.798   7.094  1.2970 -1.0215  1.0770
 7712SOL     OW24268   8.132   8.007   2.034  0.7329  0.2703 -0.3501
 7712SOL    HW124269   8.067   7.990   2.102  2.6538 -0.7353  1.3521
 7712SOL    HW224270   8.156   7.921   2.001  1.1094  0.6325 -1.0579
 7713SOL     OW24271   7.958   2.450   8.187  0.5234 -0.4598  0.3400
 7713SOL    HW124272   7.937   2.543   8.179 -0.3410 -0.7002 -0.2498
 7713SOL    HW224273   8.011   2.431   8.110 -2.0771 -1.1922 -1.3800
 7714SOL     OW24274   6.794   0.105   4.438  0.7301  0.1819  0.1234
 7714SOL    HW124275   6.771   0.012   4.433  0.4937  0.2407  0.1400
 7714SOL    HW224276   6.722   0.150   4.393  0.8670  0.3535  0.0757
 7715SOL     OW24277   7.168   6.481   5.813  0.6100 -0.8283 -0.5170
 7715SOL    HW124278   7.105   6.456   5.882  2.5554 -1.3620  1.1713
 7715SOL    HW224279   7.250   6.441   5.841  1.5723 -0.7157 -3.0057
 7716SOL     OW24280   4.560   0.416   4.748  0.0229  0.2659  0.0350
 7716SOL    HW124281   4.617   0.482   4.788 -0.1757  0.8216 -0.5827
 7716SOL    HW224282   4.611   0.336   4.750  0.7235  0.6924 -0.2397
 7717SOL     OW24283   4.233   5.995   4.807 -0.2201  0.7496 -0.4810
 7717SOL    HW124284   4.251   5.988   4.900  1.5620 -0.9313 -0.8858
 7717SOL    HW224285   4.282   6.072   4.778  0.7880  0.1781 -0.3386
 7718SOL     OW24286   8.960   5.578   8.717 -0.5530  0.3072 -0.0028
 7718SOL    HW124287   8.978   5.615   8.630  0.3653 -2.4006 -1.0733
 7718SOL    HW224288   9.044   5.540   8.745 -1.2156 -0.2080  1.3708
 7719SOL     OW24289   1.477   1.400   3.195 -0.8441  0.4133  0.8682
 7719SOL    HW124290   1.517   1.487   3.204  1.0661 -0.2056 -0.8317
 7719SOL    HW224291   1.551   1.339   3.205 -1.9837 -0.9820  1.0616
 7720SOL     OW24292   6.920   6.467   2.947 -0.0613  0.0812 -0.7447
 7720SOL    HW124293   6.857   6.471   3.018 -0.0912  0.6519 -0.8053
 7720SOL    HW224294   6.998   6.511   2.980  0.1134 -0.1285 -0.8717
 7721SOL     OW24295   1.303   7.607   3.537  0.4742  0.7985  0.2795
 7721SOL    HW124296   1.298   7.602   3.441  3.1771  0.6807  0.0740
 7721SOL    HW224297   1.230   7.553   3.567  0.4026 -0.3333 -1.7145
 7722SOL     OW24298   6.292   0.564   0.705  0.2197 -0.0898 -0.3448
 7722SOL    HW124299   6.315   0.547   0.797 -1.5995  2.0974  0.5948
 7722SOL    HW224300   6.253   0.482   0.675 -1.0835 -0.2200  1.5178
 7723SOL     OW24301   2.953   0.284   7.440 -0.5689  0.0993  0.1894
 7723SOL    HW124302   2.978   0.295   7.349  0.7239 -0.5086  0.4401
 7723SOL    HW224303   2.992   0.201   7.466  0.0679  0.7906  1.5953
 7724SOL     OW24304   2.516   4.388   4.784  0.2764  0.4951 -0.1558
 7724SOL    HW124305   2.426   4.416   4.766 -0.1934 -1.2247 -0.6291
 7724SOL    HW224306   2.557   4.384   4.698  0.2366 -0.5522 -0.1318
 7725SOL     OW24307   1.171   0.953   4.036 -0.2212  0.0786  0.8652
 7725SOL    HW124308   1.239   0.900   3.994  2.8384  2.5425  2.2924
 7725SOL    HW224309   1.172   0.926   4.127 -0.8286  0.4674  0.9927
 7726SOL     OW24310   5.753   5.870   1.353  0.2401 -0.0930  0.0617
 7726SOL    HW124311   5.782   5.872   1.262 -1.7796 -0.3281 -0.6198
 7726SOL    HW224312   5.728   5.960   1.373  1.4783  0.1346  0.6913
 7727SOL     OW24313   5.410   7.053   6.449  0.1756 -0.2847 -1.0128
 7727SOL    HW124314   5.426   7.055   6.544 -0.4011  0.8876 -0.9238
 7727SOL    HW224315   5.319   7.023   6.441 -1.2084  3.3491 -0.9273
 7728SOL     OW24316   4.175   5.039   3.190  0.2125 -0.3231  0.8605
 7728SOL    HW124317   4.221   5.086   3.259  0.8680  0.1488  0.1186
 7728SOL    HW224318   4.171   5.101   3.117 -0.2479 -0.8927  0.3907
 7729SOL     OW24319   3.431   0.108   2.449 -0.3595 -0.0122  0.4098
 7729SOL    HW124320   3.485   0.153   2.385 -4.5320  2.1410 -2.0022
 7729SOL    HW224321   3.436   0.016   2.424  1.0579  0.2909 -0.5352
 7730SOL     OW24322   6.516   1.685   0.644  0.4598  0.0874 -0.4143
 7730SOL    HW124323   6.546   1.726   0.562 -0.3341 -0.1725 -0.8421
 7730SOL    HW224324   6.570   1.725   0.712 -0.1758  1.7217 -0.8348
 7731SOL     OW24325   8.303   6.519   8.896 -0.4029 -0.2282 -0.6749
 7731SOL    HW124326   8.327   6.430   8.923 -0.7970  0.0726  0.7186
 7731SOL    HW224327   8.237   6.506   8.827 -0.9730 -1.0222  0.0033
 7732SOL     OW24328   5.325   0.988   0.752  0.1855  0.2796  0.0806
 7732SOL    HW124329   5.242   1.020   0.717  0.3826  2.1456  1.1812
 7732SOL    HW224330   5.373   0.958   0.675 -0.9233  0.5181 -0.7422
 7733SOL     OW24331   4.375   5.762   1.212 -0.0260  0.2792  0.0270
 7733SOL    HW124332   4.423   5.727   1.287 -0.0010  0.9987  0.3531
 7733SOL    HW224333   4.322   5.833   1.248  0.8596  1.4014 -0.8415
 7734SOL     OW24334   4.031   4.954   4.508 -0.4957 -0.1321 -0.0460
 7734SOL    HW124335   4.054   5.038   4.467  0.1609 -1.0296 -1.6216
 7734SOL    HW224336   4.055   4.965   4.600  0.4976  1.0983 -0.4172
 7735SOL     OW24337   5.409   6.037   1.238 -0.0959 -0.1634 -0.8007
 7735SOL    HW124338   5.483   6.084   1.277  1.0637 -2.1114 -0.5170
 7735SOL    HW224339   5.364   5.998   1.313  0.4127 -1.4904 -1.1579
 7736SOL     OW24340   0.441   2.427   3.910 -0.7429 -0.1889  0.0492
 7736SOL    HW124341   0.445   2.521   3.922  0.7192 -0.3906  1.2773
 7736SOL    HW224342   0.523   2.393   3.945 -0.4773 -1.7770 -1.8873
 7737SOL     OW24343   4.922   0.983   0.828 -0.7042 -0.0439  0.4933
 7737SOL    HW124344   4.936   0.927   0.905  0.4470 -0.5014 -0.0185
 7737SOL    HW224345   4.836   0.958   0.795 -1.5771  0.7144  2.0668
 7738SOL     OW24346   7.569   1.388   3.857 -0.1488  0.0719 -0.1986
 7738SOL    HW124347   7.484   1.421   3.885 -0.3009 -1.3447  1.1613
 7738SOL    HW224348   7.632   1.449   3.894 -0.5214  0.5194 -0.2865
 7739SOL     OW24349   5.614   3.885   2.683 -0.4307 -0.2731  0.0501
 7739SOL    HW124350   5.614   3.926   2.596  1.0989  1.2928  0.7401
 7739SOL    HW224351   5.537   3.829   2.682  0.8101 -2.2252 -3.1857
 7740SOL     OW24352   6.177   3.529   1.642 -0.0857 -0.5273  0.2836
 7740SOL    HW124353   6.255   3.522   1.587  0.4674 -1.0163  1.1091
 7740SOL    HW224354   6.182   3.617   1.679  1.6967 -1.5141  2.6412
 7741SOL     OW24355   3.232   1.018   8.144  0.5644 -0.4108  0.1004
 7741SOL    HW124356   3.278   0.937   8.123  0.4973 -0.1076 -1.3666
 7741SOL    HW224357   3.269   1.082   8.083 -0.6293  0.2254  0.0185
 7742SOL     OW24358   2.354   7.863   8.281  0.0234 -0.4078 -0.1543
 7742SOL    HW124359   2.286   7.836   8.219  1.4506 -0.5251 -1.7367
 7742SOL    HW224360   2.426   7.802   8.265  0.8492  0.2685  0.8503
 7743SOL     OW24361   7.081   0.906   2.931 -0.3464 -0.1324  0.0879
 7743SOL    HW124362   7.064   0.976   2.868  0.7224 -0.7733 -0.9496
 7743SOL    HW224363   7.096   0.828   2.877  0.1161 -0.8093  1.1590
 7744SOL     OW24364   2.130   3.271   6.388  0.3513  0.3672  0.0144
 7744SOL    HW124365   2.156   3.195   6.440  1.1617  0.7930  0.2479
 7744SOL    HW224366   2.207   3.328   6.390 -0.5204  1.5670  0.5520
 7745SOL     OW24367   4.225   3.020   5.236  0.3507  0.0025  0.5761
 7745SOL    HW124368   4.183   3.096   5.195  0.6440 -0.1815 -0.0764
 7745SOL    HW224369   4.306   3.055   5.273  0.7775 -0.0943 -0.2406
 7746SOL     OW24370   5.494   7.085   1.731 -0.0607  1.0275  0.0485
 7746SOL    HW124371   5.540   7.088   1.815  0.0290 -1.0589  0.1176
 7746SOL    HW224372   5.521   7.002   1.692 -3.5369 -0.2056 -0.0148
 7747SOL     OW24373   5.636   7.636   0.001  0.2893  0.1673 -0.0148
 7747SOL    HW124374   5.710   7.614  -0.055  0.5844  1.0258  0.0292
 7747SOL    HW224375   5.571   7.568  -0.018  0.7165 -0.0514 -0.7479
 7748SOL     OW24376   2.929   2.674   0.012  0.1959  0.5204  0.2673
 7748SOL    HW124377   2.943   2.599  -0.046 -3.0942 -0.5704  0.6590
 7748SOL    HW224378   2.991   2.740  -0.018 -1.0005 -0.1153 -4.3046
 7749SOL     OW24379   4.929   4.652   8.780  0.1649  0.2156  0.1417
 7749SOL    HW124380   4.914   4.558   8.786  0.9317  0.0900  0.1232
 7749SOL    HW224381   4.911   4.685   8.868 -0.5526  0.1260  0.0386
 7750SOL     OW24382   0.101   2.945   0.105 -0.5100  0.2348 -0.8380
 7750SOL    HW124383   0.117   2.894   0.025 -0.3470 -0.2008 -0.5318
 7750SOL    HW224384   0.010   2.973   0.097 -0.3758  0.5416 -1.3682
 7751SOL     OW24385   1.418   6.344   7.516  0.0309 -0.8651  0.2633
 7751SOL    HW124386   1.451   6.318   7.430 -1.1103 -0.3896 -0.3319
 7751SOL    HW224387   1.403   6.438   7.509 -1.4611 -1.0647  0.4985
 7752SOL     OW24388   6.815   5.025   3.568 -0.5884 -0.0342  0.4117
 7752SOL    HW124389   6.862   5.108   3.571 -0.2195 -0.2665  1.1279
 7752SOL    HW224390   6.879   4.961   3.536 -0.7500 -0.1255  0.2668
 7753SOL     OW24391   7.726   7.817   7.229  0.2439  0.1647 -0.8337
 7753SOL    HW124392   7.798   7.842   7.171  2.4712  0.2339  1.7754
 7753SOL    HW224393   7.686   7.742   7.186  2.6084 -0.5936 -1.8964
 7754SOL     OW24394   3.026   8.022   5.099 -0.2531  0.0156  0.1835
 7754SOL    HW124395   3.045   8.070   5.180 -0.4376 -1.7749  1.3606
 7754SOL    HW224396   3.085   8.061   5.034  0.1525  1.2705  1.2517
 7755SOL     OW24397   8.401   5.747   4.652  0.0851 -0.2727  0.5299
 7755SOL    HW124398   8.413   5.655   4.676  0.5799  0.0155  1.4687
 7755SOL    HW224399   8.399   5.793   4.736 -1.4056  0.4437  0.1197
 7756SOL     OW24400   4.857   7.995   5.370  0.4486 -0.2062  0.1471
 7756SOL    HW124401   4.904   7.964   5.293  2.0899 -2.3548  1.9200
 7756SOL    HW224402   4.914   8.062   5.408  1.0615 -1.2025  1.0412
 7757SOL     OW24403   1.290   1.571   6.284 -0.0964 -0.0797 -0.3385
 7757SOL    HW124404   1.287   1.476   6.287 -0.6582 -0.0372  1.6985
 7757SOL    HW224405   1.244   1.594   6.203  0.6304 -1.5263 -1.1965
 7758SOL     OW24406   1.745   3.448   5.701  0.1716 -0.2734 -0.0886
 7758SOL    HW124407   1.725   3.394   5.777  0.5994  0.3740  0.4892
 7758SOL    HW224408   1.781   3.529   5.737  1.1882 -0.2969 -0.9940
 7759SOL     OW24409   4.089   8.415   0.358 -0.0395 -0.6682 -0.8293
 7759SOL    HW124410   4.040   8.370   0.289  1.6392 -1.6913 -1.4141
 7759SOL    HW224411   4.129   8.344   0.409 -0.6118  0.0913  0.7559
 7760SOL     OW24412   8.337   2.100   6.724 -0.0599 -0.0688 -0.0619
 7760SOL    HW124413   8.257   2.050   6.743  0.1233 -0.3076  0.0923
 7760SOL    HW224414   8.325   2.130   6.634  0.7586 -2.1926 -0.9419
 7761SOL     OW24415   0.141   5.757   4.365 -0.1109 -0.1246 -0.1991
 7761SOL    HW124416   0.060   5.799   4.393 -0.2486 -0.1615 -0.5467
 7761SOL    HW224417   0.177   5.719   4.446 -0.8791 -0.8696 -0.1974
 7762SOL     OW24418   7.932   7.163   3.842  0.1070  0.1670 -0.1460
 7762SOL    HW124419   7.842   7.170   3.873 -0.3157 -0.0506 -1.2565
 7762SOL    HW224420   7.960   7.075   3.869  0.0466  0.3061  0.3633
 7763SOL     OW24421   8.983   7.187   2.738  0.6799  0.5223  0.7281
 7763SOL    HW124422   8.992   7.094   2.719 -1.1010  0.7581 -1.6630
 7763SOL    HW224423   9.043   7.230   2.678  0.7618  0.9931  1.1394
 7764SOL     OW24424   4.297   5.380   8.181 -0.4414  0.1232 -0.3964
 7764SOL    HW124425   4.229   5.337   8.234  1.8841  0.3013  3.1078
 7764SOL    HW224426   4.347   5.308   8.143 -0.5667 -0.0964 -0.1480
 7765SOL     OW24427   0.230   6.635   8.685  0.1967  0.6017  0.3404
 7765SOL    HW124428   0.309   6.681   8.656 -0.2716  1.1565 -0.0841
 7765SOL    HW224429   0.252   6.542   8.678  1.2468  0.7420  1.4623
 7766SOL     OW24430   5.926   8.675   1.246  0.1948 -0.4385 -0.4733
 7766SOL    HW124431   6.007   8.726   1.240  1.4499 -2.5085 -3.0851
 7766SOL    HW224432   5.956   8.584   1.252 -1.9774 -1.1229  1.9182
 7767SOL     OW24433   7.902   2.293   2.863  0.2917 -0.0482 -0.4439
 7767SOL    HW124434   7.968   2.285   2.794  0.8236 -0.3471  0.0957
 7767SOL    HW224435   7.838   2.355   2.828 -0.2635 -1.3462 -1.8517
 7768SOL     OW24436   6.740   1.293   4.324  0.0528 -0.0574 -0.6853
 7768SOL    HW124437   6.649   1.267   4.330  0.1928 -0.8442 -1.7079
 7768SOL    HW224438   6.738   1.379   4.282 -0.2210 -0.0510 -0.6576
 7769SOL     OW24439   0.338   0.242   3.327 -0.1975  0.3297  0.4002
 7769SOL    HW124440   0.282   0.170   3.354 -0.7320  0.1600 -1.0673
 7769SOL    HW224441   0.282   0.320   3.334 -0.0578  0.4099  0.6389
 7770SOL     OW24442   1.422   6.020   1.792 -0.6046 -0.2608  0.0858
 7770SOL    HW124443   1.351   5.959   1.776 -0.5924 -0.7743  1.7879
 7770SOL    HW224444   1.498   5.964   1.811 -0.0003  0.2878 -0.6145
 7771SOL     OW24445   1.248   1.652   3.840 -0.6970  0.1913  0.2209
 7771SOL    HW124446   1.177   1.704   3.876 -2.3371 -1.7438 -0.0434
 7771SOL    HW224447   1.205   1.590   3.782  1.0737 -1.7458  0.8634
 7772SOL     OW24448   4.970   2.279   7.247  0.2313  0.2358  0.4414
 7772SOL    HW124449   4.893   2.278   7.304 -1.7388 -0.1410 -2.0562
 7772SOL    HW224450   4.998   2.188   7.242 -0.2785  0.0935  0.0049
 7773SOL     OW24451   2.326   7.783   6.282  0.2366  0.0480  0.0122
 7773SOL    HW124452   2.289   7.696   6.267 -0.4466  0.3929 -0.3569
 7773SOL    HW224453   2.414   7.766   6.316  0.0615 -0.7853  0.0769
 7774SOL     OW24454   4.220   3.362   3.402  0.0373  0.1160  0.4603
 7774SOL    HW124455   4.255   3.364   3.313  1.9291  2.7675  1.1622
 7774SOL    HW224456   4.173   3.445   3.412  0.3825  0.1466  2.1204
 7775SOL     OW24457   5.749   0.214   7.316  0.1197 -0.0930  0.0167
 7775SOL    HW124458   5.795   0.279   7.369  0.3859  0.8628 -1.3471
 7775SOL    HW224459   5.666   0.200   7.361  0.2051  0.9253  0.5053
 7776SOL     OW24460   3.604   5.537   7.397  0.2630 -0.0202  0.1020
 7776SOL    HW124461   3.631   5.595   7.469  0.0822  2.1040 -1.4478
 7776SOL    HW224462   3.687   5.508   7.358  0.3571 -0.9813  0.9686
 7777SOL     OW24463   7.207   8.524   0.286 -0.5326  0.1728 -0.3065
 7777SOL    HW124464   7.303   8.522   0.279 -0.4735  0.3847  0.3023
 7777SOL    HW224465   7.191   8.554   0.376 -1.1711  0.2919 -0.4562
 7778SOL     OW24466   3.306   8.879   0.655 -0.4159 -0.8421  0.1249
 7778SOL    HW124467   3.213   8.899   0.646 -0.5008 -0.6185  1.2858
 7778SOL    HW224468   3.329   8.913   0.742  0.9659 -0.0454 -0.5255
 7779SOL     OW24469   8.753   2.485   5.333  0.2277 -0.4068  0.1612
 7779SOL    HW124470   8.800   2.490   5.417 -0.0363 -0.1591  0.2952
 7779SOL    HW224471   8.779   2.401   5.296 -0.3177 -0.8994  0.8866
 7780SOL     OW24472   7.275   1.245   4.389 -0.1311  0.0163  0.2337
 7780SOL    HW124473   7.184   1.247   4.361  0.2400 -1.1397 -1.1530
 7780SOL    HW224474   7.276   1.188   4.466 -0.5916  0.1358  0.3270
 7781SOL     OW24475   0.048   0.812   1.037  0.4666 -0.6486 -0.3963
 7781SOL    HW124476   0.074   0.720   1.036 -0.0200 -0.7922 -0.5462
 7781SOL    HW224477   0.121   0.858   0.998 -0.5459 -1.3487 -3.4126
 7782SOL     OW24478   0.521   7.755   2.943  0.9298 -0.0870  0.3329
 7782SOL    HW124479   0.456   7.692   2.912  0.5227  0.6276 -0.3078
 7782SOL    HW224480   0.525   7.741   3.038  0.4057 -0.6600  0.2739
 7783SOL     OW24481   8.978   8.175   1.839 -0.0585  0.7162 -0.0015
 7783SOL    HW124482   8.901   8.119   1.826 -0.1287  0.4764  1.2986
 7783SOL    HW224483   8.998   8.209   1.752 -1.4638  0.5645 -0.4024
 7784SOL     OW24484   3.783   2.395   5.140  0.8973 -0.1089 -0.1928
 7784SOL    HW124485   3.852   2.328   5.137 -1.2709 -2.4558 -1.1674
 7784SOL    HW224486   3.702   2.346   5.154 -0.7191  2.4473  0.0687
 7785SOL     OW24487   8.901   1.296   1.165  0.1756  0.0266 -0.4634
 7785SOL    HW124488   8.990   1.323   1.187  0.8672 -2.4906  0.2613
 7785SOL    HW224489   8.851   1.311   1.245  0.8581 -1.8705  0.3805
 7786SOL     OW24490   8.014   0.787   0.370 -0.0672 -0.5102 -0.6261
 7786SOL    HW124491   8.076   0.850   0.407  0.8037 -0.9978 -1.1946
 7786SOL    HW224492   7.977   0.831   0.294 -0.7541 -0.0509 -0.0258
 7787SOL     OW24493   5.583   3.532   8.885 -0.2473 -0.0826  0.2275
 7787SOL    HW124494   5.604   3.443   8.856  1.2636  0.2455  0.2331
 7787SOL    HW224495   5.503   3.522   8.937  0.1080 -1.5054  0.5436
 7788SOL     OW24496   5.050   7.843   6.723 -0.1093  0.2622 -0.0892
 7788SOL    HW124497   4.958   7.840   6.697 -0.1131 -2.7670 -0.0087
 7788SOL    HW224498   5.048   7.861   6.817 -0.8129 -2.1994  0.4275
 7789SOL     OW24499   0.605   0.457   3.453  0.2111 -0.1214  0.1003
 7789SOL    HW124500   0.647   0.509   3.384  1.1877 -0.6589  0.2725
 7789SOL    HW224501   0.539   0.515   3.490 -1.1651 -0.1684 -2.0429
 7790SOL     OW24502   8.266   5.712   0.029 -0.4857 -0.1334 -0.3864
 7790SOL    HW124503   8.227   5.767   0.097 -1.4483 -0.1199 -0.9297
 7790SOL    HW224504   8.218   5.629   0.036  1.2547 -1.0977  0.7309
 7791SOL     OW24505   2.402   6.640   6.747 -0.4577 -0.0032  0.9069
 7791SOL    HW124506   2.369   6.638   6.837 -1.0688 -2.3916  0.6978
 7791SOL    HW224507   2.356   6.713   6.706 -1.4000  0.1059  2.1059
 7792SOL     OW24508   0.390   5.768   7.438 -0.2485  0.1606  0.1277
 7792SOL    HW124509   0.362   5.855   7.409  0.6160  0.1534 -0.7826
 7792SOL    HW224510   0.412   5.779   7.530  1.3435  1.3015 -0.3410
 7793SOL     OW24511   8.262   4.661   4.361  0.0581 -0.2860 -0.1433
 7793SOL    HW124512   8.170   4.652   4.387 -0.1036  1.9797  0.3169
 7793SOL    HW224513   8.310   4.666   4.444  0.1848  1.6063 -0.2875
 7794SOL     OW24514   3.717   2.918   5.808  0.3074 -0.1204 -0.8946
 7794SOL    HW124515   3.725   2.948   5.899  0.4965  0.2698 -1.0391
 7794SOL    HW224516   3.802   2.882   5.787  0.5795  0.6924 -1.2348
 7795SOL     OW24517   0.812   3.434   6.203  0.1453 -0.4109  0.4035
 7795SOL    HW124518   0.842   3.501   6.264 -0.2848 -0.6674  0.9149
 7795SOL    HW224519   0.721   3.418   6.228  0.1181 -0.8912  0.0246
 7796SOL     OW24520   7.442   1.847   3.605 -0.5394  0.1727  0.3502
 7796SOL    HW124521   7.492   1.781   3.653  0.9011  1.3521  0.5640
 7796SOL    HW224522   7.436   1.812   3.516 -1.0337 -0.8754  0.7794
 7797SOL     OW24523   7.917   2.260   1.494 -0.4614  0.3286  0.8036
 7797SOL    HW124524   7.903   2.340   1.444  0.3919  0.6123  0.9917
 7797SOL    HW224525   7.844   2.257   1.556  0.0153  1.4952  1.4670
 7798SOL     OW24526   8.306   4.909   2.391 -0.0536  0.1173  0.2679
 7798SOL    HW124527   8.216   4.897   2.422 -1.2415 -0.2414 -2.9474
 7798SOL    HW224528   8.308   4.999   2.359  0.1973 -0.3403 -1.0812
 7799SOL     OW24529   8.239   2.087   0.301  0.5406  0.2339  0.6545
 7799SOL    HW124530   8.198   2.072   0.386  2.3295  2.3143  1.9858
 7799SOL    HW224531   8.285   2.005   0.283 -1.3084 -0.8920  0.7508
 7800SOL     OW24532   0.787   0.937   4.782  0.0622  0.3707 -0.0878
 7800SOL    HW124533   0.801   1.008   4.719 -0.7369  0.9361  0.3593
 7800SOL    HW224534   0.700   0.954   4.819 -0.2448 -0.9756 -0.1404
 7801SOL     OW24535   8.519   3.596   5.164  0.0645 -0.2566 -0.1721
 7801SOL    HW124536   8.496   3.683   5.195  2.0182  0.1166  0.3706
 7801SOL    HW224537   8.464   3.537   5.216 -0.2720  0.5874  0.4553
 7802SOL     OW24538   6.185   2.952   3.071 -0.3780 -0.2297 -0.2587
 7802SOL    HW124539   6.252   2.973   3.006 -0.3447  0.5416  0.0150
 7802SOL    HW224540   6.109   3.005   3.045 -0.5940 -0.4342 -0.0532
 7803SOL     OW24541   1.859   8.758   8.902 -0.0909  0.7584 -0.0290
 7803SOL    HW124542   1.848   8.798   8.989 -1.3186  0.1310  0.1268
 7803SOL    HW224543   1.925   8.690   8.915 -0.1180  0.8031  0.3747
 7804SOL     OW24544   0.626   2.351   0.782  0.1438  0.0738 -0.7518
 7804SOL    HW124545   0.679   2.279   0.816  0.2690  0.0170 -1.0658
 7804SOL    HW224546   0.655   2.428   0.832 -1.4062 -0.4340  1.0348
 7805SOL     OW24547   4.081   4.083   7.386 -0.3608 -0.5125 -0.0790
 7805SOL    HW124548   4.147   4.087   7.316  0.2558  0.7433  0.5456
 7805SOL    HW224549   4.130   4.100   7.466 -1.2512 -0.8018  0.5447
 7806SOL     OW24550   1.126   0.898   6.792  0.2224 -0.6883  0.6850
 7806SOL    HW124551   1.173   0.931   6.868  0.0419 -1.8292  1.3123
 7806SOL    HW224552   1.033   0.911   6.813  0.1767 -0.8550  0.5882
 7807SOL     OW24553   0.508   1.646   1.080  0.4058 -0.1644  0.1443
 7807SOL    HW124554   0.539   1.663   0.991  0.7569 -0.2460  0.2495
 7807SOL    HW224555   0.416   1.671   1.078  0.8620  1.6670  0.2810
 7808SOL     OW24556   4.400   3.295   3.850 -0.1450  0.5913 -0.1585
 7808SOL    HW124557   4.417   3.222   3.790  0.1467  0.6207 -0.1113
 7808SOL    HW224558   4.469   3.289   3.916 -0.7697  0.2457  0.4732
 7809SOL     OW24559   6.684   6.522   4.174  0.1174 -0.2597  0.0825
 7809SOL    HW124560   6.686   6.615   4.152  2.5908  0.1512  1.5657
 7809SOL    HW224561   6.603   6.510   4.224 -0.8399  0.7828 -1.1615
 7810SOL     OW24562   4.575   0.839   3.384  0.7768  0.7646  0.3703
 7810SOL    HW124563   4.495   0.880   3.352 -1.4554 -1.6538  2.3542
 7810SOL    HW224564   4.568   0.747   3.358  2.8116  0.4120  0.8290
 7811SOL     OW24565   1.343   4.439   0.868  0.5093 -0.0764  0.5157
 7811SOL    HW124566   1.422   4.474   0.909  0.6327  2.2680 -1.4913
 7811SOL    HW224567   1.271   4.487   0.910  0.3472 -0.4116  0.6205
 7812SOL     OW24568   5.588   4.847   2.251 -0.0900  0.4258  0.1750
 7812SOL    HW124569   5.604   4.930   2.206  0.5730  0.2545  0.0802
 7812SOL    HW224570   5.662   4.839   2.312  0.4138 -0.5772 -0.5376
 7813SOL     OW24571   5.919   1.259   4.074  0.0054  0.1950  0.1106
 7813SOL    HW124572   5.941   1.228   4.162 -0.0660 -0.0984  0.0276
 7813SOL    HW224573   5.862   1.334   4.088  1.1953  1.0751  0.3303
 7814SOL     OW24574   0.237   0.032   2.222  0.5096  0.4505 -0.6890
 7814SOL    HW124575   0.273   0.042   2.134  1.3628  0.5387 -0.3432
 7814SOL    HW224576   0.172  -0.038   2.214  1.1183 -0.0672 -1.2387
 7815SOL     OW24577   2.385   0.611   8.786 -0.6360 -0.0032  0.0114
 7815SOL    HW124578   2.304   0.563   8.804 -1.6486  1.4919 -0.4049
 7815SOL    HW224579   2.390   0.615   8.691  0.8129 -1.4612 -0.0191
 7816SOL     OW24580   9.086   8.026   5.152  0.0665  0.5063  0.2837
 7816SOL    HW124581   9.010   8.033   5.094 -0.2755 -0.3545  0.6054
 7816SOL    HW224582   9.148   7.971   5.104  0.2091  0.6469  0.3052
 7817SOL     OW24583   5.392   4.637   8.133 -0.3832  0.3057 -0.1787
 7817SOL    HW124584   5.435   4.610   8.051  0.6429  1.2120  0.0303
 7817SOL    HW224585   5.302   4.606   8.125 -0.6532  1.4368 -2.2032
 7818SOL     OW24586   7.553   4.867   7.413  0.0975  0.3655 -0.0121
 7818SOL    HW124587   7.540   4.960   7.432 -1.1596 -0.0868  1.5637
 7818SOL    HW224588   7.628   4.841   7.467  0.7090  0.5261 -0.7603
 7819SOL     OW24589   6.061   5.743   8.531  0.0981  0.0715  0.3471
 7819SOL    HW124590   6.116   5.797   8.589 -1.2346  0.2255  1.5175
 7819SOL    HW224591   6.106   5.659   8.528 -0.3881 -0.3521  2.6579
 7820SOL     OW24592   4.081   4.960   4.795 -0.1198 -0.1673  0.4165
 7820SOL    HW124593   4.099   4.884   4.851 -1.3979 -0.6313  0.2408
 7820SOL    HW224594   4.162   5.011   4.797  0.9743 -1.8146  0.0774
 7821SOL     OW24595   5.159   1.092   3.394 -0.2617 -0.8022 -0.7250
 7821SOL    HW124596   5.131   1.055   3.310 -0.9363 -0.6214 -0.5899
 7821SOL    HW224597   5.077   1.109   3.441  0.0619  0.2552 -0.5291
 7822SOL     OW24598   3.103   8.899   8.671  0.3772  0.5028 -0.0624
 7822SOL    HW124599   3.161   8.949   8.728  1.1725  1.7030 -1.8279
 7822SOL    HW224600   3.156   8.826   8.639  0.4657  0.7585 -0.5148
 7823SOL     OW24601   3.900   2.040   2.162  0.3439 -0.2908  0.2877
 7823SOL    HW124602   3.918   1.988   2.240 -2.1755 -0.5045  0.8164
 7823SOL    HW224603   3.828   1.994   2.119  0.2558  0.9847 -0.9976
 7824SOL     OW24604   8.406   0.772   2.988 -0.0510 -0.2330  0.4064
 7824SOL    HW124605   8.418   0.681   3.013  0.7803  0.2733  2.0184
 7824SOL    HW224606   8.480   0.792   2.931 -0.3516 -0.6209 -0.1195
 7825SOL     OW24607   5.417   7.319   4.730  0.3237 -0.0767  0.6075
 7825SOL    HW124608   5.479   7.392   4.722 -0.0234  0.6458  3.3781
 7825SOL    HW224609   5.331   7.361   4.730 -0.1121 -0.8828 -1.2118
 7826SOL     OW24610   6.083   5.295   3.620  0.1116  0.0393  0.4492
 7826SOL    HW124611   6.000   5.266   3.658 -0.2797 -1.8157 -1.6301
 7826SOL    HW224612   6.142   5.221   3.633  0.6111  0.2571 -0.4955
 7827SOL     OW24613   5.269   4.845   2.853  0.7786  0.4014  0.3676
 7827SOL    HW124614   5.216   4.770   2.827  3.0749 -0.9480 -0.7453
 7827SOL    HW224615   5.212   4.896   2.910 -1.6061 -1.0195 -0.6016
 7828SOL     OW24616   2.562   6.682   7.867 -0.1319 -0.2593  0.2942
 7828SOL    HW124617   2.632   6.635   7.914 -1.0830 -0.5518  1.4538
 7828SOL    HW224618   2.525   6.616   7.808 -0.7653 -0.6895  1.1558
 7829SOL     OW24619   1.039   4.620   0.614  0.7593  0.5549  0.5324
 7829SOL    HW124620   1.072   4.680   0.546 -0.5088  0.8097  0.1092
 7829SOL    HW224621   1.059   4.533   0.580 -1.8406  0.5514 -1.3696
 7830SOL     OW24622   2.621   0.843   1.053  0.1018 -0.5007 -0.5834
 7830SOL    HW124623   2.579   0.924   1.023 -0.3840 -1.0251 -1.4017
 7830SOL    HW224624   2.686   0.871   1.116  0.9023  0.6630 -1.8558
 7831SOL     OW24625   8.094   3.977   3.130 -0.0107  0.1713 -0.2218
 7831SOL    HW124626   8.166   3.939   3.080  1.1100  0.1153  1.3581
 7831SOL    HW224627   8.128   4.061   3.161 -0.9189  0.5079 -0.1167
 7832SOL     OW24628   6.559   2.016   7.911  0.3295  0.2092  0.5029
 7832SOL    HW124629   6.605   2.087   7.956 -2.2418  1.8282  0.7602
 7832SOL    HW224630   6.548   2.047   7.821  0.4074 -0.5246  0.2274
 7833SOL     OW24631   0.915   8.397   3.201  0.0481  0.1418 -0.3003
 7833SOL    HW124632   0.874   8.402   3.115 -1.0566  1.5996  0.2763
 7833SOL    HW224633   0.968   8.317   3.197  1.2698  0.9532 -2.8563
 7834SOL     OW24634   2.398   1.839   8.554 -0.0557  0.7033 -0.6999
 7834SOL    HW124635   2.361   1.764   8.601  0.1466 -0.1623 -1.8713
 7834SOL    HW224636   2.482   1.808   8.520  0.0708  1.4892 -1.1469
 7835SOL     OW24637   0.755   1.476   5.489  0.0993 -0.0862 -0.9858
 7835SOL    HW124638   0.691   1.453   5.421 -2.6989  2.4245  0.5532
 7835SOL    HW224639   0.791   1.560   5.461 -1.1289  1.0096  0.5371
 7836SOL     OW24640   3.300   2.224   0.541  0.0007 -0.1271 -0.1558
 7836SOL    HW124641   3.360   2.295   0.566 -0.3559 -0.0785  0.5819
 7836SOL    HW224642   3.263   2.252   0.458 -0.3868  0.7187  0.2853
 7837SOL     OW24643   5.402   7.327   5.528 -0.2651 -0.6024  0.4718
 7837SOL    HW124644   5.362   7.319   5.615  0.5604 -2.9783  0.7076
 7837SOL    HW224645   5.492   7.297   5.540  0.3370  0.4795 -0.9379
 7838SOL     OW24646   0.624   4.252   4.134 -0.5864 -0.1527 -0.1573
 7838SOL    HW124647   0.584   4.210   4.058  1.0097  0.4704 -1.3872
 7838SOL    HW224648   0.575   4.335   4.143 -2.3097 -1.2275  0.9690
 7839SOL     OW24649   5.366   1.080   5.401 -0.4330 -0.3346  0.3323
 7839SOL    HW124650   5.425   1.052   5.472 -1.0459 -0.7640  0.6829
 7839SOL    HW224651   5.385   1.021   5.329 -1.7472 -1.7713  1.0788
 7840SOL     OW24652   5.117   0.347   0.668  0.0497  0.2624  0.0445
 7840SOL    HW124653   5.211   0.339   0.683 -0.1589 -2.0796  0.5994
 7840SOL    HW224654   5.083   0.259   0.685 -2.0215  0.6132 -1.7684
 7841SOL     OW24655   5.253   3.423   6.535 -0.1598 -0.5804 -0.5808
 7841SOL    HW124656   5.181   3.444   6.476  0.2464 -0.7097 -1.1291
 7841SOL    HW224657   5.215   3.360   6.597 -0.4552 -0.8200 -0.9999
 7842SOL     OW24658   0.478   5.511   9.059 -0.2949  0.4999 -0.2372
 7842SOL    HW124659   0.501   5.497   9.151 -0.4088  0.7415 -0.1690
 7842SOL    HW224660   0.560   5.498   9.011 -0.5528 -1.1748 -0.2726
 7843SOL     OW24661   2.905   3.962   0.355  0.2797  0.4833 -0.2903
 7843SOL    HW124662   2.989   3.918   0.365 -0.8130 -1.3807  1.3489
 7843SOL    HW224663   2.904   4.028   0.424 -0.4298 -1.0086  1.2087
 7844SOL     OW24664   7.171   7.734   7.385 -0.4466 -0.3109  0.2812
 7844SOL    HW124665   7.112   7.791   7.434 -1.1984 -1.9272  1.3663
 7844SOL    HW224666   7.259   7.756   7.418 -0.5979  0.9885 -0.1582
 7845SOL     OW24667   0.028   8.359   8.069 -0.0242 -0.4875  0.7400
 7845SOL    HW124668   0.043   8.269   8.039  1.1489 -0.0708  0.0211
 7845SOL    HW224669   0.103   8.379   8.124  0.5707  0.6049 -0.4312
 7846SOL     OW24670   1.039   8.275   8.287 -0.1141 -0.0185  0.0874
 7846SOL    HW124671   1.087   8.198   8.316  0.1708  0.1341  0.0189
 7846SOL    HW224672   1.083   8.303   8.207  0.0859  0.5022  0.3741
 7847SOL     OW24673   7.889   4.471   4.237 -0.5206 -0.1158 -0.5118
 7847SOL    HW124674   7.949   4.404   4.268 -1.5287 -0.6354  0.3689
 7847SOL    HW224675   7.802   4.439   4.262 -1.1609  0.6949 -1.6001
 7848SOL     OW24676   2.290   5.429   3.613  0.0417  0.0374 -0.2813
 7848SOL    HW124677   2.292   5.440   3.518  2.0118  0.8436 -0.1900
 7848SOL    HW224678   2.368   5.378   3.633  0.2938  0.8847  1.0055
 7849SOL     OW24679   6.661   6.674   4.969  0.0380 -0.2600  0.0535
 7849SOL    HW124680   6.717   6.600   4.948  1.6910  0.8714  0.2917
 7849SOL    HW224681   6.636   6.660   5.061 -0.8060 -1.2198 -0.3157
 7850SOL     OW24682   2.400   0.187   8.004 -0.5259  0.0812 -0.2319
 7850SOL    HW124683   2.416   0.194   8.098  0.7021 -2.3379 -0.1734
 7850SOL    HW224684   2.336   0.256   7.985  0.2022  1.5027  2.0951
 7851SOL     OW24685   7.946   0.994   7.570 -0.3705 -0.1120 -0.2964
 7851SOL    HW124686   7.988   0.916   7.534  0.3294 -0.1110  0.4854
 7851SOL    HW224687   7.870   0.962   7.617 -1.0057 -0.1607 -1.3279
 7852SOL     OW24688   5.630   7.340   1.062 -0.2246  0.3064  0.3648
 7852SOL    HW124689   5.550   7.288   1.057 -1.0485  1.6520 -2.8666
 7852SOL    HW224690   5.700   7.276   1.078 -1.3472 -1.7022 -2.0822
 7853SOL     OW24691   0.225   0.949   1.303  0.2225 -0.1697  0.2244
 7853SOL    HW124692   0.135   0.963   1.332 -0.0178 -2.0965  0.5454
 7853SOL    HW224693   0.230   0.855   1.285  2.8606 -0.6284  2.6255
 7854SOL     OW24694   3.589   7.419   2.465  0.1985  0.1424  0.1910
 7854SOL    HW124695   3.516   7.435   2.525  0.2781 -0.8439  0.5723
 7854SOL    HW224696   3.559   7.454   2.381 -0.4378  0.3679  0.5018
 7855SOL     OW24697   7.662   0.220   7.072 -0.3662  0.1513 -0.5620
 7855SOL    HW124698   7.619   0.171   7.001  0.5593  1.9827 -2.5062
 7855SOL    HW224699   7.723   0.157   7.111 -2.0465 -1.3700 -0.2433
 7856SOL     OW24700   7.325   2.339   1.307 -0.4717 -0.2356 -0.0379
 7856SOL    HW124701   7.355   2.354   1.217  0.1349 -1.4466 -0.0591
 7856SOL    HW224702   7.320   2.244   1.315 -1.1827 -0.1286  1.0055
 7857SOL     OW24703   8.204   8.974   2.326 -0.4235 -0.1782  0.9131
 7857SOL    HW124704   8.291   9.011   2.342 -0.0519 -0.4338 -0.4344
 7857SOL    HW224705   8.221   8.889   2.286 -1.2890  0.4363 -0.8503
 7858SOL     OW24706   5.294   2.591   4.741 -0.3248  0.1616 -0.9323
 7858SOL    HW124707   5.278   2.683   4.723 -1.1248  0.0469 -0.8382
 7858SOL    HW224708   5.211   2.559   4.777 -0.1987 -0.6993 -1.3958
 7859SOL     OW24709   7.450   4.124   5.706 -0.1557  0.6658  0.3641
 7859SOL    HW124710   7.472   4.189   5.639  0.5949 -0.9659 -1.0668
 7859SOL    HW224711   7.358   4.141   5.727 -0.0721  1.9613 -0.2065
 7860SOL     OW24712   7.893   5.619   3.386  0.2865  0.3886 -0.4492
 7860SOL    HW124713   7.859   5.536   3.351  2.5769 -0.5894 -0.5250
 7860SOL    HW224714   7.904   5.674   3.309  2.2093 -0.6070 -0.9735
 7861SOL     OW24715   7.363   5.776   6.258  0.0820  0.2864 -0.3539
 7861SOL    HW124716   7.446   5.732   6.275 -0.7744 -0.7291  1.5088
 7861SOL    HW224717   7.355   5.841   6.328 -2.1387 -1.8814  1.5868
 7862SOL     OW24718   0.246   3.416   7.594  0.1779  0.3984  0.2500
 7862SOL    HW124719   0.196   3.336   7.609 -1.9406  1.8294  1.3235
 7862SOL    HW224720   0.269   3.413   7.501  0.8579 -1.7879  0.4296
 7863SOL     OW24721   1.339   3.830   6.549  0.3423  0.3115  0.0038
 7863SOL    HW124722   1.402   3.884   6.502 -1.2881  0.0220 -2.7219
 7863SOL    HW224723   1.320   3.758   6.489 -0.9119 -0.8294  1.6711
 7864SOL     OW24724   2.858   7.787   0.982  0.2165 -0.1130 -0.3106
 7864SOL    HW124725   2.868   7.692   0.980 -0.5632 -0.1866 -1.4249
 7864SOL    HW224726   2.942   7.821   0.953  0.5663 -0.4551  0.2953
 7865SOL     OW24727   4.080   2.319   3.060 -0.7070 -0.2309  0.1256
 7865SOL    HW124728   4.052   2.238   3.018 -0.8645 -0.6009  0.9229
 7865SOL    HW224729   4.013   2.382   3.037 -0.9810 -0.5213  0.1207
 7866SOL     OW24730   2.690   7.230   5.910 -0.4804 -0.0756 -0.5168
 7866SOL    HW124731   2.779   7.200   5.893 -0.3596 -0.9904  1.4671
 7866SOL    HW224732   2.682   7.312   5.860  0.9129 -0.7744 -1.9750
 7867SOL     OW24733   8.865   8.211   0.760  0.2181 -0.2749 -0.1535
 7867SOL    HW124734   8.957   8.233   0.777  0.0043 -0.2146  0.9828
 7867SOL    HW224735   8.870   8.140   0.696  0.9724  1.3282 -1.9774
 7868SOL     OW24736   4.207   8.114   4.157 -0.0533 -0.3690 -0.0422
 7868SOL    HW124737   4.257   8.194   4.147 -0.4549  0.0166  0.9315
 7868SOL    HW224738   4.207   8.097   4.251 -0.1024 -1.4282 -0.2193
 7869SOL     OW24739   8.423   3.086   2.610  0.2562  0.5723 -0.2901
 7869SOL    HW124740   8.339   3.070   2.568  1.1820 -1.8107 -1.4379
 7869SOL    HW224741   8.470   3.143   2.549  0.2091  0.2159 -0.6630
 7870SOL     OW24742   3.292   5.176   1.093 -0.1272 -0.0450 -0.1519
 7870SOL    HW124743   3.337   5.096   1.067 -0.2474 -0.4773  0.9108
 7870SOL    HW224744   3.232   5.195   1.021  0.8046 -0.1896 -0.9867
 7871SOL     OW24745   6.600   7.589   0.869  0.0185 -0.5956  0.3399
 7871SOL    HW124746   6.536   7.589   0.940 -0.3013  1.5822  0.1089
 7871SOL    HW224747   6.683   7.611   0.913 -0.1689  0.6923  0.0861
 7872SOL     OW24748   1.460   4.998   8.625  0.6905  0.1662 -0.1613
 7872SOL    HW124749   1.469   5.046   8.707  0.4022  1.2946 -0.7751
 7872SOL    HW224750   1.393   4.931   8.644  1.7618 -0.6243  0.9593
 7873SOL     OW24751   4.989   3.228   2.643 -0.0785 -0.0832 -0.8195
 7873SOL    HW124752   4.938   3.158   2.603  1.0915 -1.0502 -0.6985
 7873SOL    HW224753   5.005   3.290   2.573 -2.1642  0.7161 -0.6449
 7874SOL     OW24754   5.138   1.320   5.791  0.4310  0.7574 -0.6442
 7874SOL    HW124755   5.159   1.362   5.875  2.3020  0.9369 -1.1476
 7874SOL    HW224756   5.102   1.235   5.815 -0.5195  1.4139  0.3499
 7875SOL     OW24757   0.014   4.897   4.663  0.1882 -0.5041  0.4249
 7875SOL    HW124758  -0.033   4.974   4.696 -0.3886 -0.7840  0.2653
 7875SOL    HW224759   0.102   4.929   4.647  0.0543  0.0356  0.7176
 7876SOL     OW24760   7.805   0.336   0.866 -0.0399 -0.4434 -0.4502
 7876SOL    HW124761   7.824   0.414   0.918 -0.1091 -0.8052  0.1225
 7876SOL    HW224762   7.802   0.368   0.775  0.8520  0.0508 -0.3147
 7877SOL     OW24763   0.791   8.419   8.051 -0.6990 -0.1243 -0.1464
 7877SOL    HW124764   0.853   8.357   8.089 -1.5796  0.7624  2.9916
 7877SOL    HW224765   0.847   8.490   8.018  0.0875 -0.8305 -0.3821
 7878SOL     OW24766   8.094   0.150   7.649 -0.4122  1.1787 -0.0190
 7878SOL    HW124767   8.159   0.098   7.696  0.1781  1.9769  0.0782
 7878SOL    HW224768   8.009   0.114   7.675 -0.0140  0.2176 -0.0393
 7879SOL     OW24769   7.084   4.234   2.120  0.1587 -0.3292 -0.2788
 7879SOL    HW124770   7.160   4.260   2.068  0.9984 -1.4031  0.3721
 7879SOL    HW224771   7.066   4.144   2.093  1.2738 -1.3122  1.9505
 7880SOL     OW24772   2.139   0.409   7.206  0.2218  0.4941 -0.3010
 7880SOL    HW124773   2.063   0.388   7.261 -0.6436  0.1788 -1.5678
 7880SOL    HW224774   2.187   0.327   7.198  0.3516  0.5423 -0.0098
 7881SOL     OW24775   5.613   2.595   5.473 -0.3321 -0.6719  0.1043
 7881SOL    HW124776   5.570   2.650   5.408  2.0358  0.0215 -1.0211
 7881SOL    HW224777   5.608   2.506   5.437 -0.6847 -0.5788 -0.0788
 7882SOL     OW24778   6.261   8.845   7.860  0.2449  0.5403  0.3958
 7882SOL    HW124779   6.337   8.797   7.828  0.5228  1.1365  0.1518
 7882SOL    HW224780   6.297   8.911   7.918 -0.0294  1.2163 -0.1848
 7883SOL     OW24781   8.431   5.396   2.436 -0.0297 -0.4104  0.0368
 7883SOL    HW124782   8.486   5.353   2.502 -0.5721 -1.2791 -0.0600
 7883SOL    HW224783   8.368   5.447   2.486 -0.6164 -1.2908  0.2121
 7884SOL     OW24784   6.423   5.283   7.324 -0.3509  0.3141 -0.2326
 7884SOL    HW124785   6.447   5.306   7.414  1.9769 -1.4379 -0.2991
 7884SOL    HW224786   6.413   5.188   7.326  0.5295  0.1534 -1.9792
 7885SOL     OW24787   6.116   2.899   3.410 -0.2215 -0.1992 -0.2719
 7885SOL    HW124788   6.195   2.848   3.392  0.1559  0.0655  0.6012
 7885SOL    HW224789   6.148   2.981   3.446 -0.9220 -0.7360  1.7061
 7886SOL     OW24790   4.335   3.409   2.551  0.0863  0.2631 -0.2233
 7886SOL    HW124791   4.258   3.446   2.509 -0.6125 -1.2863 -0.3797
 7886SOL    HW224792   4.408   3.436   2.495 -0.3084  1.8233 -0.0203
 7887SOL     OW24793   4.604   5.185   6.195  0.0518  0.0604 -0.1920
 7887SOL    HW124794   4.667   5.240   6.148  1.2327  0.2830  1.5485
 7887SOL    HW224795   4.600   5.104   6.144  0.0668  0.8702 -1.5196
 7888SOL     OW24796   8.547   4.512   0.333  0.0890 -0.5709 -0.7086
 7888SOL    HW124797   8.625   4.555   0.368 -0.7236 -1.1423  2.0297
 7888SOL    HW224798   8.556   4.421   0.359 -1.1840 -0.7830 -0.9419
 7889SOL     OW24799   2.211   0.937   1.104 -0.8171  0.5443  0.5603
 7889SOL    HW124800   2.242   1.018   1.144  0.1155 -0.4103  1.8261
 7889SOL    HW224801   2.290   0.891   1.077 -1.1314 -1.1584  2.3260
 7890SOL     OW24802   5.297   1.797   0.906  0.4659  0.2637  0.5792
 7890SOL    HW124803   5.311   1.843   0.824  0.5950  1.6059  1.3271
 7890SOL    HW224804   5.380   1.807   0.954 -0.0520  0.6523  1.4136
 7891SOL     OW24805   8.996   3.777   8.912  0.1224  0.1862 -0.4470
 7891SOL    HW124806   8.908   3.740   8.910 -0.1940  0.8992 -0.1854
 7891SOL    HW224807   9.047   3.714   8.964 -0.6389  0.5766  0.8175
 7892SOL     OW24808   4.383   1.713   4.885 -0.1653  0.6127 -0.1575
 7892SOL    HW124809   4.306   1.743   4.836 -2.0539 -0.6846  1.8137
 7892SOL    HW224810   4.449   1.697   4.818 -1.9368  0.8062 -2.0650
 7893SOL     OW24811   0.016   5.989   7.255  0.1230 -0.6832 -0.1292
 7893SOL    HW124812   0.091   5.993   7.196  0.1626 -0.0002 -0.0481
 7893SOL    HW224813  -0.056   5.956   7.201  0.0998  0.1554 -0.6347
 7894SOL     OW24814   7.327   7.547   2.402 -0.1988  0.2475  0.0526
 7894SOL    HW124815   7.402   7.489   2.387 -1.6719 -1.6634 -0.4244
 7894SOL    HW224816   7.256   7.507   2.351 -1.7795  1.4588  1.2033
 7895SOL     OW24817   8.182   5.575   8.089  0.0038  0.3196 -0.3373
 7895SOL    HW124818   8.206   5.491   8.129 -3.4107 -0.2895  0.7489
 7895SOL    HW224819   8.214   5.640   8.151 -0.3303 -0.3781  0.6031
 7896SOL     OW24820   6.416   4.139   0.880  0.5746 -0.4176 -0.1230
 7896SOL    HW124821   6.397   4.173   0.967  0.4217  0.0981 -0.3582
 7896SOL    HW224822   6.508   4.113   0.884  0.7663  0.2621 -0.0221
 7897SOL     OW24823   3.574   4.857   7.803 -0.2959  0.3469  0.8151
 7897SOL    HW124824   3.550   4.894   7.718  0.8403  1.9295  1.1521
 7897SOL    HW224825   3.650   4.907   7.831  1.2305 -2.1308  1.4253
 7898SOL     OW24826   4.629   6.305   0.532 -0.0263  0.3113 -0.1651
 7898SOL    HW124827   4.555   6.260   0.572 -0.8921  1.7362 -0.1203
 7898SOL    HW224828   4.608   6.398   0.539  2.3617  0.8597  1.0652
 7899SOL     OW24829   9.050   3.139   5.076 -0.8851 -0.0424  0.8068
 7899SOL    HW124830   9.038   3.209   5.141 -0.7975  0.6754  0.0572
 7899SOL    HW224831   9.036   3.059   5.126  2.3041  0.2956  2.4796
 7900SOL     OW24832   7.248   6.805   3.399  0.8261 -0.0189  0.0234
 7900SOL    HW124833   7.199   6.743   3.452  0.6242 -0.2816 -0.4674
 7900SOL    HW224834   7.190   6.827   3.326  1.5324 -0.5571 -0.7240
 7901SOL     OW24835   0.117   6.246   1.259  0.9519  0.2945  0.2617
 7901SOL    HW124836   0.171   6.224   1.183 -0.8737 -0.6916 -0.8141
 7901SOL    HW224837   0.072   6.164   1.281 -0.7876  1.2855  0.5296
 7902SOL     OW24838   7.693   8.278   7.229 -0.0470 -0.5484  0.1928
 7902SOL    HW124839   7.766   8.291   7.169 -0.3922 -1.3004 -0.4105
 7902SOL    HW224840   7.727   8.301   7.315  0.5395  0.2690 -0.2512
 7903SOL     OW24841   2.837   4.631   4.580 -0.2389 -0.0179 -0.5651
 7903SOL    HW124842   2.831   4.671   4.494  0.4506  0.6235 -0.3212
 7903SOL    HW224843   2.929   4.637   4.604 -0.6108  0.9938  0.7682
 7904SOL     OW24844   3.928   6.154   2.704 -0.0241  0.1755 -0.2542
 7904SOL    HW124845   3.949   6.246   2.716 -0.1195  0.2441 -0.6008
 7904SOL    HW224846   3.916   6.120   2.793 -1.5182  0.8545 -0.1776
 7905SOL     OW24847   5.542   3.764   7.480 -0.7353 -0.3484  0.5660
 7905SOL    HW124848   5.534   3.799   7.568 -0.4398  2.3660 -0.4092
 7905SOL    HW224849   5.451   3.758   7.448 -0.7190  1.1252  0.1921
 7906SOL     OW24850   8.702   5.231   3.825  0.0960  0.1332  0.1770
 7906SOL    HW124851   8.664   5.295   3.883  1.0844  0.8954  0.0116
 7906SOL    HW224852   8.658   5.245   3.741  1.0163  1.3167 -0.1373
 7907SOL     OW24853   5.312   1.074   7.350 -0.0380 -0.3919  0.0304
 7907SOL    HW124854   5.255   0.999   7.337  0.1493 -0.5273 -0.0224
 7907SOL    HW224855   5.255   1.150   7.341 -0.3310 -0.5385  0.6341
 7908SOL     OW24856   5.511   1.824   7.728  0.3597 -0.3163  0.0938
 7908SOL    HW124857   5.486   1.914   7.744  1.6128  0.0669 -0.0031
 7908SOL    HW224858   5.509   1.782   7.814  2.0647  0.4208  0.5206
 7909SOL     OW24859   4.178   2.566   4.567  0.3026  0.1273 -0.0097
 7909SOL    HW124860   4.094   2.609   4.548  0.7522 -0.1314 -3.0701
 7909SOL    HW224861   4.168   2.478   4.532  1.4112 -0.3847  0.9000
 7910SOL     OW24862   4.860   2.186   4.350 -0.1578  0.2850 -0.3866
 7910SOL    HW124863   4.771   2.208   4.325  0.0281  1.7092  0.0710
 7910SOL    HW224864   4.915   2.236   4.290  0.3400 -0.6042 -0.6878
 7911SOL     OW24865   2.692   2.602   5.189  0.0333 -0.5026  0.2284
 7911SOL    HW124866   2.739   2.676   5.227  0.1681 -1.0824  1.2527
 7911SOL    HW224867   2.610   2.597   5.239 -0.2892 -0.6091 -0.3066
 7912SOL     OW24868   6.944   7.697   1.338  0.1616 -0.2483  0.3011
 7912SOL    HW124869   6.900   7.781   1.355 -1.7125 -1.3305  1.1430
 7912SOL    HW224870   6.889   7.632   1.382  2.1492 -1.8259  0.5808
 7913SOL     OW24871   7.472   4.061   7.998  0.1922  0.3000 -1.0898
 7913SOL    HW124872   7.476   4.151   7.966  0.2166  0.2580 -1.2030
 7913SOL    HW224873   7.382   4.051   8.030  0.4358  0.6506 -0.2511
 7914SOL     OW24874   1.041   7.047   2.197  0.4643 -0.2262  0.0651
 7914SOL    HW124875   0.956   7.057   2.153 -0.1391 -0.2698  1.1892
 7914SOL    HW224876   1.048   7.124   2.254  0.4314 -1.0229  1.1746
 7915SOL     OW24877   3.176   8.643   8.406  0.3721 -0.2888  0.3852
 7915SOL    HW124878   3.210   8.678   8.488  1.2346 -2.5468  1.0603
 7915SOL    HW224879   3.099   8.591   8.432  0.8912 -1.3558 -0.1537
 7916SOL     OW24880   6.782   3.567   7.889  0.0484  0.4191  0.0845
 7916SOL    HW124881   6.807   3.479   7.919 -1.3272  0.0245  0.1472
 7916SOL    HW224882   6.754   3.555   7.799 -1.1692  0.5701  0.4172
 7917SOL     OW24883   7.549   3.726   8.497  0.3931 -0.1490 -0.4530
 7917SOL    HW124884   7.603   3.649   8.516 -2.0604 -1.9533 -0.3213
 7917SOL    HW224885   7.611   3.799   8.498  2.7562 -2.0197 -0.0541
 7918SOL     OW24886   6.881   0.371   7.259  0.2015  0.0099  0.3260
 7918SOL    HW124887   6.813   0.429   7.226 -0.2978 -1.3931 -1.2603
 7918SOL    HW224888   6.957   0.428   7.273 -0.9765  1.4324  1.1974
 7919SOL     OW24889   6.614   6.587   5.240  0.9349  0.1729 -0.2958
 7919SOL    HW124890   6.520   6.602   5.233  0.9379  0.6422  0.4596
 7919SOL    HW224891   6.622   6.499   5.276  0.7617  0.3162  0.1064
 7920SOL     OW24892   3.415   2.304   1.194 -0.5298 -0.2054  0.1805
 7920SOL    HW124893   3.505   2.300   1.161 -0.7992  1.3164 -0.8251
 7920SOL    HW224894   3.424   2.295   1.289  0.5309 -1.5533 -0.0058
 7921SOL     OW24895   5.337   8.483   8.785 -0.8607  0.4755  0.4515
 7921SOL    HW124896   5.334   8.399   8.831 -0.8021 -0.1550 -0.6660
 7921SOL    HW224897   5.391   8.466   8.708 -0.5706  1.6334  0.3912
 7922SOL     OW24898   4.757   2.375   2.457 -0.5852  0.7722  0.1593
 7922SOL    HW124899   4.732   2.343   2.371  1.5012 -1.1205  0.1675
 7922SOL    HW224900   4.684   2.350   2.514 -0.3707 -1.3779 -0.4206
 7923SOL     OW24901   2.743   4.759   2.593  0.9966  0.0776  0.5606
 7923SOL    HW124902   2.681   4.826   2.624  0.4038  0.5204 -1.4341
 7923SOL    HW224903   2.687   4.689   2.560  1.4656  0.6731 -1.6951
 7924SOL     OW24904   0.217   1.748   5.151 -0.1488  0.4087  0.1681
 7924SOL    HW124905   0.263   1.827   5.176  2.4229 -1.0220  0.2631
 7924SOL    HW224906   0.214   1.751   5.055  1.0153  0.0873  0.1118
 7925SOL     OW24907   0.686   3.243   5.403  0.2959  0.4288 -0.4351
 7925SOL    HW124908   0.650   3.313   5.458 -1.6624 -1.2799  0.5903
 7925SOL    HW224909   0.781   3.253   5.411  0.0810  1.0474  2.2579
 7926SOL     OW24910   6.091   3.201   5.410  0.0297  0.3430 -0.0260
 7926SOL    HW124911   6.097   3.184   5.316  3.0604 -0.7664  0.2613
 7926SOL    HW224912   6.007   3.162   5.435 -1.1264  1.1593 -2.2978
 7927SOL     OW24913   8.950   0.715   5.347 -0.3158 -0.1965 -0.0187
 7927SOL    HW124914   8.899   0.634   5.337 -0.8811  0.1785 -0.2126
 7927SOL    HW224915   9.035   0.685   5.379  0.0001 -1.0143 -1.4955
 7928SOL     OW24916   7.019   8.749   4.004  0.4388 -0.6004 -0.2815
 7928SOL    HW124917   7.002   8.836   3.968  0.0422 -0.2624  0.6921
 7928SOL    HW224918   6.937   8.701   3.992  0.9102 -1.1322 -1.5711
 7929SOL     OW24919   5.812   8.115   6.038  1.1853 -0.1719  0.6131
 7929SOL    HW124920   5.870   8.039   6.033 -1.3953 -2.2394 -1.3842
 7929SOL    HW224921   5.810   8.149   5.949  0.2427  0.5345  0.8866
 7930SOL     OW24922   1.140   5.927   7.301 -0.4460  0.1931  0.1469
 7930SOL    HW124923   1.067   5.986   7.281 -0.5233  0.0393 -0.0324
 7930SOL    HW224924   1.117   5.887   7.385 -0.5597  0.1612  0.1008
 7931SOL     OW24925   7.093   2.978   7.679 -0.0836  0.2177  0.4083
 7931SOL    HW124926   7.063   3.020   7.598  0.2299  1.6404  0.9833
 7931SOL    HW224927   7.129   2.894   7.651  1.1382  1.1807 -1.1047
 7932SOL     OW24928   6.696   7.233   1.631 -0.0907 -0.2459  0.5893
 7932SOL    HW124929   6.697   7.320   1.589 -0.9174 -0.2040  0.6361
 7932SOL    HW224930   6.787   7.216   1.653  0.2407  0.1329 -0.4086
 7933SOL     OW24931   0.482   2.055   6.630 -0.0793 -0.6821 -0.5307
 7933SOL    HW124932   0.396   2.044   6.588 -0.5517 -0.5686  0.3854
 7933SOL    HW224933   0.462   2.078   6.721  0.9195  0.1034 -0.4859
 7934SOL     OW24934   6.929   8.824   3.521  0.0890  0.3232 -1.1003
 7934SOL    HW124935   6.930   8.768   3.443 -0.1505 -0.7486 -0.3646
 7934SOL    HW224936   6.941   8.763   3.594  1.7201  1.4419 -0.3596
 7935SOL     OW24937   5.663   6.381   1.532  0.2368 -0.0191  0.5445
 7935SOL    HW124938   5.669   6.421   1.618  0.5135  0.8476  0.1313
 7935SOL    HW224939   5.685   6.452   1.471 -1.8662 -0.0815 -0.3536
 7936SOL     OW24940   8.015   2.829   3.302 -0.3332  0.3443  0.0035
 7936SOL    HW124941   7.954   2.852   3.372  0.4715 -0.2151  0.9134
 7936SOL    HW224942   7.975   2.754   3.258  0.2008 -0.7385  1.3093
 7937SOL     OW24943   8.209   5.963   7.694 -0.0285  0.5253  0.0341
 7937SOL    HW124944   8.182   6.033   7.753  0.3326 -0.5226  1.4872
 7937SOL    HW224945   8.178   5.991   7.608  0.4964  2.6853  0.4841
 7938SOL     OW24946   2.530   5.705   4.008  0.7004 -0.0288  0.6592
 7938SOL    HW124947   2.509   5.798   4.022 -0.2695 -0.4411  2.1298
 7938SOL    HW224948   2.471   5.678   3.937  1.9099  0.7580 -0.7227
 7939SOL     OW24949   2.977   3.432   1.998 -0.2667  0.1951 -0.1676
 7939SOL    HW124950   3.033   3.382   1.939  0.4157 -2.3673  2.3679
 7939SOL    HW224951   3.032   3.504   2.028 -0.3112  0.9652 -1.8278
 7940SOL     OW24952   2.940   0.632   8.667  0.5422  0.5819 -0.0799
 7940SOL    HW124953   2.898   0.608   8.585  1.1766 -2.0635  0.2946
 7940SOL    HW224954   2.974   0.720   8.652  1.2339 -0.0972 -2.8762
 7941SOL     OW24955   1.273   4.719   6.539 -0.2541 -0.0917  0.3155
 7941SOL    HW124956   1.362   4.742   6.515 -0.3515 -1.6040 -1.7904
 7941SOL    HW224957   1.240   4.668   6.464 -3.3003  1.4121  0.4745
 7942SOL     OW24958   0.013   7.361   6.784 -0.1848  0.2347  0.1682
 7942SOL    HW124959  -0.024   7.438   6.828 -1.4248 -0.3357  0.1719
 7942SOL    HW224960   0.103   7.357   6.816 -0.3352  1.2276  0.7790
 7943SOL     OW24961   0.190   2.003   0.362  0.1311  0.8521  0.0263
 7943SOL    HW124962   0.213   2.089   0.326  1.6851  0.3652 -0.2196
 7943SOL    HW224963   0.168   1.951   0.285 -0.3957  0.8987  0.1406
 7944SOL     OW24964   5.500   9.016   7.996 -0.1330  0.5869  0.6209
 7944SOL    HW124965   5.584   8.977   8.021  0.0508  0.3416 -0.3355
 7944SOL    HW224966   5.435   8.948   8.015  0.1101  0.0528 -0.4033
 7945SOL     OW24967   1.577   1.479   1.447  0.0279 -0.7362  0.6264
 7945SOL    HW124968   1.615   1.405   1.495  0.4624 -0.6719  0.3922
 7945SOL    HW224969   1.627   1.482   1.366 -0.7343 -0.8795  0.1431
 7946SOL     OW24970   5.988   7.350   6.149  0.7168 -0.0844  0.0593
 7946SOL    HW124971   6.082   7.351   6.171  0.2712 -1.6811  2.5261
 7946SOL    HW224972   5.968   7.257   6.135 -0.6620  0.1197  0.5443
 7947SOL     OW24973   4.525   0.970   8.105 -0.2988  0.0663  0.0992
 7947SOL    HW124974   4.444   0.922   8.086  0.9518 -2.2044  0.1141
 7947SOL    HW224975   4.561   0.992   8.019  1.3012 -3.0550 -0.1736
 7948SOL     OW24976   6.471   0.046   7.690 -0.3410  0.0030  0.8806
 7948SOL    HW124977   6.559   0.084   7.692 -0.7436  0.9648  0.6380
 7948SOL    HW224978   6.482  -0.041   7.727  0.3931  0.7945  2.6497
 7949SOL     OW24979   3.896   7.406   6.473  0.2869 -0.2285 -0.3239
 7949SOL    HW124980   3.869   7.497   6.461 -1.7759 -0.8170 -0.4905
 7949SOL    HW224981   3.824   7.354   6.437  2.1945 -1.9683 -1.9070
 7950SOL     OW24982   0.655   1.830   1.716  0.1965  0.0448 -0.2788
 7950SOL    HW124983   0.608   1.754   1.683  0.0115  0.0220  0.0343
 7950SOL    HW224984   0.696   1.869   1.639  1.3176 -1.0684 -0.2681
 7951SOL     OW24985   7.662   3.204   4.055  0.1566 -0.4890  0.0640
 7951SOL    HW124986   7.747   3.223   4.016 -0.6363 -2.5587 -3.0084
 7951SOL    HW224987   7.653   3.109   4.050 -2.2111 -0.3643  0.6017
 7952SOL     OW24988   3.157   1.259   2.305 -0.2702 -0.0251  0.3358
 7952SOL    HW124989   3.091   1.322   2.277  0.0348  0.5313  0.8173
 7952SOL    HW224990   3.198   1.228   2.224 -2.1492 -1.5784 -0.0981
 7953SOL     OW24991   7.852   1.004   1.481 -0.3644  0.2141 -0.3220
 7953SOL    HW124992   7.829   1.048   1.400 -1.1300 -0.0076 -0.2329
 7953SOL    HW224993   7.948   1.003   1.482 -0.3484  1.1189 -0.7273
 7954SOL     OW24994   0.882   2.583   6.555  0.3118 -0.0585  0.0031
 7954SOL    HW124995   0.813   2.518   6.572 -0.3086  0.4341 -0.5835
 7954SOL    HW224996   0.837   2.667   6.559  1.3600  0.4515  2.0792
 7955SOL     OW24997   0.367   8.234   2.657  0.2149 -0.2830  0.1217
 7955SOL    HW124998   0.295   8.256   2.599 -1.5818 -0.0417  2.2813
 7955SOL    HW224999   0.422   8.312   2.658  0.2208 -0.2633 -1.1408
 7956SOL     OW25000   8.851   0.377   6.496 -0.6658 -0.7293 -0.4949
 7956SOL    HW125001   8.932   0.363   6.447  0.0848 -0.6297  0.6708
 7956SOL    HW225002   8.815   0.458   6.460  1.1738  0.7443  0.7481
 7957SOL     OW25003   2.818   3.980   4.185 -0.0396  0.2325 -0.5627
 7957SOL    HW125004   2.737   3.932   4.174 -0.8123  1.6240 -1.2110
 7957SOL    HW225005   2.850   3.995   4.096  0.4687  0.4556 -0.3488
 7958SOL     OW25006   5.764   9.085   3.859 -0.3363 -0.3506  0.5798
 7958SOL    HW125007   5.778   9.063   3.767 -1.6617  1.9256 -0.2500
 7958SOL    HW225008   5.698   9.023   3.889 -1.4984  0.2119 -0.6837
 7959SOL     OW25009   3.850   1.587   6.985  0.0491 -0.5545  0.2019
 7959SOL    HW125010   3.854   1.679   6.961  0.4495 -0.2048  1.5132
 7959SOL    HW225011   3.757   1.569   6.999 -0.0076 -0.2929  0.1619
 7960SOL     OW25012   2.708   5.747   5.916  0.0849  0.0554 -0.2033
 7960SOL    HW125013   2.764   5.721   5.989 -2.5660 -0.2014  1.9281
 7960SOL    HW225014   2.667   5.828   5.946 -0.4403  0.4105 -1.8035
 7961SOL     OW25015   6.241   0.252   1.845 -0.2123  0.4433  0.2518
 7961SOL    HW125016   6.330   0.269   1.815 -0.0218 -0.1004  0.4820
 7961SOL    HW225017   6.247   0.167   1.890 -0.9753  0.0823 -0.3036
 7962SOL     OW25018   5.105   6.692   5.597  0.3128  0.1079  0.5966
 7962SOL    HW125019   5.024   6.690   5.546  0.8260 -0.3558 -0.2245
 7962SOL    HW225020   5.099   6.772   5.649 -0.8645 -0.1517  0.8782
 7963SOL     OW25021   8.764   5.124   2.329 -0.0719  0.2682  0.2749
 7963SOL    HW125022   8.763   5.120   2.424  1.2408 -1.0092  0.2790
 7963SOL    HW225023   8.673   5.110   2.303 -0.5023  0.9500  1.3201
 7964SOL     OW25024   2.243   3.454   8.762 -0.2192 -0.4927 -0.6187
 7964SOL    HW125025   2.303   3.490   8.828 -0.3584 -3.5017  1.3350
 7964SOL    HW225026   2.298   3.433   8.687  0.7860 -1.0586  0.2523
 7965SOL     OW25027   2.876   2.995   5.213 -0.1657 -0.0689 -0.0124
 7965SOL    HW125028   2.933   2.960   5.146 -0.0465 -0.1592  0.1361
 7965SOL    HW225029   2.850   2.919   5.266  0.7310  0.1681  0.7932
 7966SOL     OW25030   9.018   0.999   7.298 -0.0734  0.1870  0.2734
 7966SOL    HW125031   9.057   0.931   7.242 -1.5719 -2.0271  1.7644
 7966SOL    HW225032   9.093   1.042   7.339  0.9323 -1.5507  0.3605
 7967SOL     OW25033   6.261   8.332   3.824 -0.0957  0.6208  0.3534
 7967SOL    HW125034   6.295   8.377   3.747  1.0435 -0.3559  0.2602
 7967SOL    HW225035   6.232   8.247   3.792 -0.3885  0.5256  0.8560
 7968SOL     OW25036   0.051   6.463   6.956  0.3522  0.4829  0.3741
 7968SOL    HW125037   0.025   6.507   7.037 -2.2602  0.1486 -0.2132
 7968SOL    HW225038   0.097   6.530   6.906  0.1115  1.3037  1.2181
 7969SOL     OW25039   1.758   8.980   6.368 -0.1418  0.3721  0.0041
 7969SOL    HW125040   1.748   9.001   6.461  0.9977 -2.0701  0.7460
 7969SOL    HW225041   1.814   9.050   6.334 -0.7462  1.4192  1.0763
 7970SOL     OW25042   2.457   1.061   1.534  0.5716  0.1330  0.1999
 7970SOL    HW125043   2.370   1.085   1.502  0.2341 -0.3258  0.7558
 7970SOL    HW225044   2.517   1.110   1.478 -0.0272 -0.0080 -0.5874
 7971SOL     OW25045   8.008   8.269   8.690  0.4153  0.1406  0.0131
 7971SOL    HW125046   7.917   8.242   8.686  0.5985 -0.4321 -0.4546
 7971SOL    HW225047   8.047   8.214   8.757  0.6750 -0.4136 -0.5879
 7972SOL     OW25048   6.063   5.087   4.550  0.2109  0.2508  0.1096
 7972SOL    HW125049   6.133   5.122   4.495  0.4324  0.7046  0.6729
 7972SOL    HW225050   6.059   5.146   4.625 -0.5264  0.0145  0.2700
 7973SOL     OW25051   8.759   6.456   2.314 -0.1143  0.5046 -0.2033
 7973SOL    HW125052   8.796   6.383   2.365 -0.7577  1.0951  1.1525
 7973SOL    HW225053   8.836   6.500   2.277  0.5505  1.1242  1.7609
 7974SOL     OW25054   4.924   5.547   0.842  0.2781  0.8033 -0.2872
 7974SOL    HW125055   4.929   5.642   0.846  0.7855  0.8246 -1.1269
 7974SOL    HW225056   4.867   5.529   0.768  0.2934  0.4540 -0.2172
 7975SOL     OW25057   5.181   2.622   1.955 -0.0991  0.7963  0.4212
 7975SOL    HW125058   5.086   2.611   1.946  0.0554 -0.9582  0.6683
 7975SOL    HW225059   5.192   2.678   2.032 -0.9173 -0.1690  1.2692
 7976SOL     OW25060   3.326   6.593   3.267  0.6770  0.4741  0.2552
 7976SOL    HW125061   3.239   6.562   3.244  1.7686 -1.7946 -1.1314
 7976SOL    HW225062   3.364   6.622   3.184  2.1716 -1.1301  0.3345
 7977SOL     OW25063   0.551   7.858   0.830 -0.3991 -0.4067 -0.3013
 7977SOL    HW125064   0.577   7.839   0.740  0.6446  2.1596 -0.6206
 7977SOL    HW225065   0.633   7.878   0.875 -1.1123  0.5198  0.6379
 7978SOL     OW25066   7.067   7.273   1.146  0.4091  0.1587  0.3470
 7978SOL    HW125067   7.119   7.345   1.111  0.3191  0.8060  1.4858
 7978SOL    HW225068   7.052   7.296   1.237  1.1412 -1.7383  1.0090
 7979SOL     OW25069   5.709   4.943   1.039 -0.5207 -0.3970  0.6758
 7979SOL    HW125070   5.627   4.990   1.022 -1.1563 -1.0214  1.8458
 7979SOL    HW225071   5.699   4.859   0.994 -0.0295 -0.0144 -0.1486
 7980SOL     OW25072   4.473   2.963   3.169 -0.0359 -0.2092  0.2203
 7980SOL    HW125073   4.546   2.998   3.118  0.7477  0.7733  1.9010
 7980SOL    HW225074   4.498   2.873   3.190  1.4345  0.5479  1.9713
 7981SOL     OW25075   5.950   0.999   8.584  0.9818  0.4441 -0.1104
 7981SOL    HW125076   6.008   1.075   8.582 -1.3369  2.3172 -1.1748
 7981SOL    HW225077   5.869   1.031   8.625 -0.0820 -1.4436 -0.6088
 7982SOL     OW25078   7.853   8.039   7.796  0.1020  0.4783 -0.0704
 7982SOL    HW125079   7.788   8.006   7.734 -0.4043 -0.3786  0.8899
 7982SOL    HW225080   7.808   8.040   7.880  1.2530  0.1000  0.5740
 7983SOL     OW25081   3.259   5.257   6.398 -0.1485 -0.3003  0.3620
 7983SOL    HW125082   3.239   5.164   6.387  0.2166 -0.3972  0.5022
 7983SOL    HW225083   3.184   5.292   6.445 -0.8247 -0.2848 -0.6744
 7984SOL     OW25084   2.993   6.964   2.399  0.4841 -0.3304  0.5172
 7984SOL    HW125085   3.046   6.907   2.343  1.0178 -1.3213  1.9670
 7984SOL    HW225086   2.937   7.012   2.338  2.9782  0.7559 -1.1134
 7985SOL     OW25087   7.683   4.461   5.766 -0.0036  0.2626 -0.0832
 7985SOL    HW125088   7.612   4.454   5.701 -0.6805  1.0105  0.5478
 7985SOL    HW225089   7.726   4.376   5.764 -0.5326  0.0004 -0.9322
 7986SOL     OW25090   8.755   2.823   8.723 -0.5353  0.5740 -0.2118
 7986SOL    HW125091   8.668   2.843   8.758 -0.1006  0.9137  0.6876
 7986SOL    HW225092   8.767   2.730   8.742  0.5567  1.1911  2.5298
 7987SOL     OW25093   7.338   5.788   7.488  0.4388 -0.4416  0.0908
 7987SOL    HW125094   7.243   5.788   7.496  0.4656 -1.3576  0.4907
 7987SOL    HW225095   7.355   5.775   7.395  0.1771  1.1620 -0.2059
 7988SOL     OW25096   2.460   2.385   0.129 -0.2058  0.3785 -0.0672
 7988SOL    HW125097   2.419   2.414   0.210  1.9107 -0.6954  1.4780
 7988SOL    HW225098   2.444   2.291   0.126  2.4661 -0.1863  0.8864
 7989SOL     OW25099   5.023   0.307   6.638 -0.5440 -0.4572  0.8039
 7989SOL    HW125100   5.098   0.329   6.692 -0.3719 -0.6585  0.6497
 7989SOL    HW225101   4.963   0.380   6.648 -0.3294 -0.3002  0.9343
 7990SOL     OW25102   0.374   7.502   0.651  0.0539  0.1913  0.0195
 7990SOL    HW125103   0.384   7.414   0.616  0.3715 -0.1747  1.0130
 7990SOL    HW225104   0.412   7.499   0.739  0.5577  1.4557 -0.1252
 7991SOL     OW25105   5.154   2.175   5.345 -0.5797  0.3384  0.2036
 7991SOL    HW125106   5.182   2.086   5.323 -1.2178  0.1224  0.2530
 7991SOL    HW225107   5.145   2.174   5.440  1.4044  1.0495  0.4525
 7992SOL     OW25108   4.358   8.676   3.904  0.5798 -0.3441 -0.7227
 7992SOL    HW125109   4.294   8.613   3.872  0.4986 -1.0695  0.7838
 7992SOL    HW225110   4.377   8.731   3.828 -1.6017 -0.2734 -1.2918
 7993SOL     OW25111   2.812   4.026   0.800 -0.1175 -0.0923 -0.1388
 7993SOL    HW125112   2.792   3.933   0.809  0.7497 -0.2829 -0.1114
 7993SOL    HW225113   2.905   4.029   0.781 -0.3003  0.7300 -1.0179
 7994SOL     OW25114   4.831   0.945   4.509  1.0576  0.5794  0.0027
 7994SOL    HW125115   4.905   0.910   4.559  0.1449 -0.6281  0.5641
 7994SOL    HW225116   4.776   0.988   4.574  0.7017  0.4760 -0.2248
 7995SOL     OW25117   8.929   0.240   1.119  0.0529  0.6033 -0.0965
 7995SOL    HW125118   8.920   0.306   1.188 -1.8440 -0.0101  0.2750
 7995SOL    HW225119   8.870   0.269   1.050 -1.4061 -1.0832  0.3960
 7996SOL     OW25120   6.969   1.610   0.197  0.2068  0.4366  0.0121
 7996SOL    HW125121   6.891   1.595   0.251 -0.1101  0.7668 -0.3423
 7996SOL    HW225122   6.958   1.698   0.163  0.1647  0.0738 -0.9629
 7997SOL     OW25123   4.918   2.292   5.343  1.0787 -0.1640  0.4080
 7997SOL    HW125124   4.839   2.239   5.332  1.2512 -0.1055 -1.5484
 7997SOL    HW225125   4.990   2.231   5.328  1.3753  0.0743  0.8300
 7998SOL     OW25126   1.972   5.652   0.442  0.4520  0.1024  0.1877
 7998SOL    HW125127   1.903   5.674   0.504 -0.2259 -0.9097 -0.1750
 7998SOL    HW225128   2.011   5.572   0.476  1.5795  0.7389  0.4666
 7999SOL     OW25129   0.410   8.358   8.019  0.5475  0.0994 -0.2429
 7999SOL    HW125130   0.341   8.382   7.957  0.8613 -0.0238 -0.6399
 7999SOL    HW225131   0.411   8.431   8.082 -0.9174 -0.5719  0.6135
 8000SOL     OW25132   8.470   5.698   2.686 -1.0387  0.7933 -0.6731
 8000SOL    HW125133   8.438   5.778   2.643 -0.7045  0.9303 -0.6781
 8000SOL    HW225134   8.561   5.719   2.709 -1.5499  1.1486  1.1600
 8001SOL     OW25135   1.429   7.966   6.816  0.5099  0.7509 -0.2737
 8001SOL    HW125136   1.458   8.044   6.863 -1.4793  1.7252 -0.5764
 8001SOL    HW225137   1.416   7.996   6.726 -0.1954  0.0426 -0.4109
 8002SOL     OW25138   0.230   4.744   2.413  0.3973 -0.1455 -0.3868
 8002SOL    HW125139   0.280   4.826   2.404  1.1989 -0.6373 -0.5496
 8002SOL    HW225140   0.252   4.712   2.500  0.8031 -0.6399 -0.6627
 8003SOL     OW25141   4.488   3.335   1.287  0.2607  0.4673 -0.0129
 8003SOL    HW125142   4.433   3.276   1.234  0.5811 -0.1192  0.2956
 8003SOL    HW225143   4.577   3.307   1.269  0.3587 -0.1368  1.2623
 8004SOL     OW25144   7.787   1.407   4.304  0.0334  0.3952 -0.0315
 8004SOL    HW125145   7.853   1.400   4.235 -0.3217 -1.5707 -0.2262
 8004SOL    HW225146   7.708   1.370   4.265 -0.3116 -0.2703  1.2545
 8005SOL     OW25147   0.213   4.050   8.528  0.1074 -0.2671 -0.4958
 8005SOL    HW125148   0.141   4.008   8.575  0.2957  0.0816  0.1159
 8005SOL    HW225149   0.234   4.128   8.580  0.0369  0.3636 -1.3859
 8006SOL     OW25150   8.657   5.476   1.496  0.4634  0.0812 -0.4496
 8006SOL    HW125151   8.624   5.532   1.425 -0.1822 -0.3525 -0.4989
 8006SOL    HW225152   8.705   5.536   1.553 -1.2094  0.9165  0.1363
 8007SOL     OW25153   4.560   1.250   4.033  0.2629  0.4757  0.1354
 8007SOL    HW125154   4.607   1.264   3.951 -1.2034  0.7366 -0.6945
 8007SOL    HW225155   4.626   1.218   4.094  1.5633  1.1312 -0.8931
 8008SOL     OW25156   5.398   1.816   5.956 -0.0837 -0.4060 -0.5073
 8008SOL    HW125157   5.326   1.791   6.013  0.7933  0.9122  1.2740
 8008SOL    HW225158   5.465   1.850   6.015  0.8675  1.0758 -2.3301
 8009SOL     OW25159   6.834   4.783   8.652  0.3087  0.4192 -0.1893
 8009SOL    HW125160   6.776   4.814   8.582  0.2146  1.4500  0.3384
 8009SOL    HW225161   6.861   4.696   8.622 -1.4898 -0.1022 -0.4746
 8010SOL     OW25162   3.515   6.314   8.019 -0.3975  0.0959 -0.3287
 8010SOL    HW125163   3.453   6.310   8.092  0.8749 -0.7781  0.7401
 8010SOL    HW225164   3.584   6.374   8.048 -0.2353  0.3148 -1.1223
 8011SOL     OW25165   4.066   8.322   3.266  0.9964 -0.3787 -0.4818
 8011SOL    HW125166   4.077   8.327   3.361  1.7230 -2.2815 -0.4290
 8011SOL    HW225167   4.149   8.287   3.234  0.2590 -1.1034 -1.6748
 8012SOL     OW25168   6.269   3.491   3.302  0.0731 -0.7803 -0.4847
 8012SOL    HW125169   6.337   3.441   3.258  1.4790  0.8615 -0.2729
 8012SOL    HW225170   6.291   3.485   3.395 -1.1367 -1.7111 -0.2315
 8013SOL     OW25171   7.933   2.085   0.608 -0.0537 -0.2061  0.7832
 8013SOL    HW125172   7.867   2.090   0.539 -0.7958  0.2785  1.5178
 8013SOL    HW225173   7.938   2.173   0.643 -1.1046 -0.8243  2.6328
 8014SOL     OW25174   0.030   5.909   8.525 -0.5300  0.0189  0.5048
 8014SOL    HW125175   0.071   5.947   8.447 -1.8666 -0.0073 -0.2403
 8014SOL    HW225176  -0.017   5.982   8.565 -2.0604 -0.5269 -0.2272
 8015SOL     OW25177   3.283   2.127   2.062 -0.8072 -0.3473  0.2502
 8015SOL    HW125178   3.266   2.089   2.148 -0.3465  1.7703  1.3604
 8015SOL    HW225179   3.367   2.172   2.072  0.8345 -2.5098 -2.2470
 8016SOL     OW25180   4.386   3.783   0.780 -0.5677 -0.0767  0.1445
 8016SOL    HW125181   4.347   3.700   0.809 -1.0799  0.0517 -0.1555
 8016SOL    HW225182   4.346   3.799   0.695 -0.9531  0.7883  0.4758
 8017SOL     OW25183   8.366   3.127   5.996  0.0223  0.0474 -0.5459
 8017SOL    HW125184   8.435   3.073   5.959 -2.8522 -2.2075 -3.2059
 8017SOL    HW225185   8.319   3.161   5.920 -0.6118  3.2336  1.1160
 8018SOL     OW25186   3.670   7.379   1.290 -0.1905  0.0169  0.6737
 8018SOL    HW125187   3.728   7.454   1.305 -0.1912  0.0072  0.7259
 8018SOL    HW225188   3.591   7.417   1.251 -0.3830  0.1049  1.1396
 8019SOL     OW25189   7.167   2.691   0.782 -0.2240  0.2505 -0.6180
 8019SOL    HW125190   7.257   2.700   0.752 -0.2381 -0.4115 -0.8713
 8019SOL    HW225191   7.167   2.730   0.870  0.6211 -0.8974 -0.0714
 8020SOL     OW25192   1.525   4.721   3.036  0.5161  0.3462 -0.0617
 8020SOL    HW125193   1.513   4.709   2.942  1.7430  0.7055 -0.2787
 8020SOL    HW225194   1.476   4.649   3.076  1.3140 -0.7729 -1.0405
 8021SOL     OW25195   7.294   8.171   8.741  0.5092 -0.0433  0.9434
 8021SOL    HW125196   7.201   8.164   8.718  0.2116  1.3989  1.5887
 8021SOL    HW225197   7.340   8.152   8.659 -0.3693 -0.2558  0.4836
 8022SOL     OW25198   8.633   1.897   5.682 -0.6563 -0.1896  0.1783
 8022SOL    HW125199   8.557   1.939   5.643  1.2010  0.0742 -3.6212
 8022SOL    HW225200   8.704   1.961   5.673  0.7227 -1.5810  0.6658
 8023SOL     OW25201   6.547   7.141   6.929  0.4486  0.8562 -0.1152
 8023SOL    HW125202   6.453   7.155   6.914  0.7313  2.5630 -0.5499
 8023SOL    HW225203   6.566   7.056   6.889 -1.0849  0.0017  0.8623
 8024SOL     OW25204   8.474   1.035   3.147  0.2544 -0.3026  0.1673
 8024SOL    HW125205   8.415   0.966   3.115 -0.0245 -0.5530  1.1788
 8024SOL    HW225206   8.416   1.103   3.180  0.4700  1.4029 -2.6296
 8025SOL     OW25207   3.192   5.985   2.209 -0.4347 -0.1497 -0.0396
 8025SOL    HW125208   3.274   6.029   2.235 -0.9652  1.0977 -0.4250
 8025SOL    HW225209   3.146   5.970   2.292  0.4625 -1.5048  0.2585
 8026SOL     OW25210   1.349   6.956   4.803 -0.4153  0.1969 -1.1714
 8026SOL    HW125211   1.310   6.942   4.889  0.2658  0.0704 -0.8819
 8026SOL    HW225212   1.360   6.868   4.767 -1.5094  0.2815 -1.7646
 8027SOL     OW25213   7.768   1.529   2.302  0.0394  0.3838 -0.0563
 8027SOL    HW125214   7.773   1.504   2.209 -0.1446 -1.1459  0.3254
 8027SOL    HW225215   7.683   1.573   2.310 -0.1989  0.0197 -0.5096
 8028SOL     OW25216   3.666   0.943   6.716 -0.1930  0.0749 -0.0714
 8028SOL    HW125217   3.677   0.860   6.670 -0.7057 -0.2858  0.4452
 8028SOL    HW225218   3.573   0.964   6.705 -0.1813  0.3066  0.2677
 8029SOL     OW25219   7.546   3.603   5.284 -0.6141 -0.1628  0.0948
 8029SOL    HW125220   7.476   3.611   5.348 -0.3045 -0.2607  0.4460
 8029SOL    HW225221   7.622   3.572   5.334  0.8894  3.7025  0.5411
 8030SOL     OW25222   5.609   7.733   1.493 -0.9921 -0.0779  0.3177
 8030SOL    HW125223   5.586   7.774   1.410  1.8684 -1.4167 -1.2473
 8030SOL    HW225224   5.703   7.745   1.501 -1.1118 -0.3370  3.2384
 8031SOL     OW25225   7.663   2.156   8.003  0.0636  0.0989  0.0044
 8031SOL    HW125226   7.740   2.111   8.039 -0.2546  0.2224  0.8582
 8031SOL    HW225227   7.690   2.247   7.993  0.4784 -0.1164 -1.0590
 8032SOL     OW25228   0.102   4.066   7.050  0.2959  0.0760 -0.4265
 8032SOL    HW125229   0.189   4.051   7.012  1.1158  0.0398  1.3651
 8032SOL    HW225230   0.068   4.142   7.002  2.2066  1.4319  0.2287
 8033SOL     OW25231   1.599   0.873   5.797  0.1763  0.2345 -0.6683
 8033SOL    HW125232   1.553   0.800   5.838  0.0402 -0.1897 -1.5554
 8033SOL    HW225233   1.632   0.925   5.871 -1.3144  0.2957 -0.0248
 8034SOL     OW25234   8.600   7.760   2.393  0.6637  0.4356 -0.4570
 8034SOL    HW125235   8.608   7.665   2.392 -0.4712  0.3083 -2.4275
 8034SOL    HW225236   8.519   7.776   2.441  1.0802  0.4453  0.2519
 8035SOL     OW25237   0.936   5.365   7.742 -0.3528  0.3033  0.1015
 8035SOL    HW125238   0.859   5.415   7.715 -1.5704 -0.2295  2.3690
 8035SOL    HW225239   0.911   5.326   7.826  2.2892 -0.1094  0.7785
 8036SOL     OW25240   3.788   4.759   7.462 -0.0858 -0.0997  0.7322
 8036SOL    HW125241   3.799   4.799   7.375 -4.7980  2.1395  0.8707
 8036SOL    HW225242   3.782   4.665   7.444 -0.8093  0.2798 -1.4059
 8037SOL     OW25243   6.186   3.738   2.568  0.2617 -0.3284  0.3406
 8037SOL    HW125244   6.134   3.757   2.647 -0.6349  3.1561 -0.8895
 8037SOL    HW225245   6.136   3.670   2.523 -1.5884  0.6701  0.7638
 8038SOL     OW25246   1.984   4.532   2.449 -0.3214 -0.4783 -0.4421
 8038SOL    HW125247   1.961   4.444   2.422  0.9126 -0.5288 -1.3960
 8038SOL    HW225248   2.079   4.531   2.457 -0.2857  0.7691 -0.5104
 8039SOL     OW25249   3.649   2.540   7.419 -0.4279  0.1477 -0.3728
 8039SOL    HW125250   3.646   2.452   7.380  1.3118 -1.3223  2.4653
 8039SOL    HW225251   3.565   2.549   7.464 -0.3896 -0.2955 -0.2116
 8040SOL     OW25252   2.031   8.973   9.095  0.2106  0.7343 -0.0318
 8040SOL    HW125253   2.062   8.888   9.127 -1.0342 -0.0811 -0.8992
 8040SOL    HW225254   2.105   9.009   9.047  0.0251 -0.9857 -1.7246
 8041SOL     OW25255   8.278   6.637   1.135 -0.4014 -0.2677  0.0653
 8041SOL    HW125256   8.301   6.649   1.043  0.0991 -1.0911  0.0714
 8041SOL    HW225257   8.328   6.703   1.182 -2.5073  1.8250 -0.4468
 8042SOL     OW25258   8.838   3.687   1.975 -0.1765 -0.0304 -0.1022
 8042SOL    HW125259   8.828   3.777   1.942 -0.9489 -0.6498 -1.6835
 8042SOL    HW225260   8.908   3.650   1.922 -1.7765 -1.2020 -1.5374
 8043SOL     OW25261   6.227   1.437   8.760 -0.2148 -0.4215  0.0662
 8043SOL    HW125262   6.219   1.430   8.855 -0.2256  0.9235  0.1865
 8043SOL    HW225263   6.157   1.497   8.734 -0.0717 -0.5924 -0.7572
 8044SOL     OW25264   4.214   7.883   2.747  0.0474 -0.0754 -0.2400
 8044SOL    HW125265   4.197   7.833   2.667  0.6759  1.4186 -1.3684
 8044SOL    HW225266   4.166   7.836   2.816  0.6559 -2.2283 -1.1949
 8045SOL     OW25267   1.539   2.540   6.536  0.0159 -0.3064 -0.7908
 8045SOL    HW125268   1.580   2.510   6.455  0.9900  1.7038 -1.0977
 8045SOL    HW225269   1.517   2.632   6.520 -0.3159 -0.0308  0.9983
 8046SOL     OW25270   7.547   4.875   4.496 -0.2534 -0.5176  0.1550
 8046SOL    HW125271   7.563   4.892   4.589 -1.0317 -1.1463  0.4159
 8046SOL    HW225272   7.547   4.779   4.489 -2.9915 -0.5844  0.0445
 8047SOL     OW25273   6.720   2.675   1.432  0.0381  0.2043  0.2935
 8047SOL    HW125274   6.745   2.762   1.465 -0.1002 -0.0741  1.1575
 8047SOL    HW225275   6.696   2.690   1.341 -0.0813  1.0964  0.4602
 8048SOL     OW25276   5.013   9.095   6.278  0.0953  0.4653 -0.5419
 8048SOL    HW125277   5.108   9.108   6.281  0.2765 -0.6609 -0.6485
 8048SOL    HW225278   4.984   9.109   6.368  0.9813 -2.9824  0.4570
 8049SOL     OW25279   2.517   1.785   2.404 -0.3494  0.0506  0.2643
 8049SOL    HW125280   2.439   1.733   2.383  0.4877 -0.3949 -1.9910
 8049SOL    HW225281   2.494   1.874   2.379 -0.6783  0.2172  1.1322
 8050SOL     OW25282   5.126   6.182   2.594  0.2128 -0.6701  0.3695
 8050SOL    HW125283   5.038   6.190   2.629 -0.3585 -2.2290 -0.6245
 8050SOL    HW225284   5.172   6.125   2.655  0.3865 -0.2870  0.6021
 8051SOL     OW25285   8.079   3.011   6.536  0.7121  0.4456  0.4152
 8051SOL    HW125286   8.005   3.071   6.528  0.3850  0.0061  0.0981
 8051SOL    HW225287   8.041   2.924   6.524  1.2571  0.2065  0.3934
 8052SOL     OW25288   6.191   0.008   1.091  0.7737  1.0595  0.0836
 8052SOL    HW125289   6.206   0.081   1.151  1.5364  0.3914  0.7303
 8052SOL    HW225290   6.167   0.049   1.008 -0.6440  2.0018  0.9069
 8053SOL     OW25291   2.665   6.205   6.856  0.0249  0.1335 -0.4697
 8053SOL    HW125292   2.571   6.224   6.862  0.2365  0.7433  1.4363
 8053SOL    HW225293   2.680   6.138   6.923  1.0177  0.2698 -0.5506
 8054SOL     OW25294   9.014   1.728   5.754  0.0295 -0.4946  0.0640
 8054SOL    HW125295   9.014   1.815   5.792 -0.1158 -0.9247  1.0798
 8054SOL    HW225296   8.923   1.711   5.732  0.0047 -0.5169  0.1813
 8055SOL     OW25297   8.412   3.873   6.505  0.2691  0.3600 -0.0062
 8055SOL    HW125298   8.372   3.798   6.461  1.0579 -0.6106  0.8658
 8055SOL    HW225299   8.348   3.943   6.496 -0.3551 -0.3260 -1.1199
 8056SOL     OW25300   0.725   2.196   3.917 -0.2161 -0.5193 -0.1728
 8056SOL    HW125301   0.742   2.248   3.838  0.7867  0.0286  0.3861
 8056SOL    HW225302   0.703   2.261   3.984 -1.9451 -1.0408 -0.1999
 8057SOL     OW25303   5.470   5.557   6.264  0.3610  0.2918  0.2233
 8057SOL    HW125304   5.447   5.545   6.356 -1.3330  0.7731 -0.0920
 8057SOL    HW225305   5.404   5.619   6.231  2.0153  1.5286 -0.8939
 8058SOL     OW25306   2.802   8.593   2.276 -0.1968  0.2391 -0.1169
 8058SOL    HW125307   2.779   8.547   2.357  1.1267  1.0545  0.7610
 8058SOL    HW225308   2.732   8.658   2.264 -1.4186 -1.1284 -0.7013
 8059SOL     OW25309   6.345   0.750   1.736 -0.0097 -0.8276 -0.0919
 8059SOL    HW125310   6.331   0.736   1.643  1.4927 -1.3838 -0.2571
 8059SOL    HW225311   6.358   0.663   1.772  0.4645 -0.5341  0.4562
 8060SOL     OW25312   3.955   2.560   8.871  0.2960 -0.7625  0.8319
 8060SOL    HW125313   4.041   2.549   8.830  0.3840 -1.9379  1.2746
 8060SOL    HW225314   3.905   2.484   8.841 -0.3504 -0.4727  1.1541
 8061SOL     OW25315   0.957   7.258   1.370 -0.1277  0.0930  0.3064
 8061SOL    HW125316   0.952   7.220   1.283 -0.9430 -0.5445  0.6171
 8061SOL    HW225317   0.901   7.336   1.366  0.7828  0.7532 -0.0581
 8062SOL     OW25318   6.968   7.955   0.762 -0.1970  0.6298 -0.2213
 8062SOL    HW125319   6.958   7.862   0.784 -0.3188  1.0339  1.6361
 8062SOL    HW225320   6.903   8.000   0.816 -0.6024  1.7590 -1.5835
 8063SOL     OW25321   1.919   2.739   7.498 -0.1036  0.2391  0.7812
 8063SOL    HW125322   1.886   2.741   7.588 -1.3458 -0.4070  0.3692
 8063SOL    HW225323   2.003   2.783   7.502 -0.4345  0.7965  2.1417
 8064SOL     OW25324   1.435   6.523   8.440  0.5607  0.1773  0.1731
 8064SOL    HW125325   1.494   6.518   8.364  2.7088  1.9813  1.5748
 8064SOL    HW225326   1.494   6.529   8.515 -1.4707  0.7864  1.8137
 8065SOL     OW25327   3.399   6.089   7.201 -0.3821 -0.5247 -0.3279
 8065SOL    HW125328   3.404   6.181   7.230 -0.6994 -0.5009 -0.3438
 8065SOL    HW225329   3.414   6.038   7.281  1.3903 -0.4746 -0.5917
 8066SOL     OW25330   4.371   3.059   3.717 -0.2603 -0.4923 -0.4516
 8066SOL    HW125331   4.447   3.005   3.695 -0.3429 -0.7360 -0.1498
 8066SOL    HW225332   4.337   3.020   3.798 -0.1205  0.2221 -0.0462
 8067SOL     OW25333   3.901   4.921   9.017  0.2162 -0.2287  0.4292
 8067SOL    HW125334   3.904   4.970   8.935 -1.3350 -0.6493  0.0868
 8067SOL    HW225335   3.944   4.977   9.081 -0.2748  0.9616 -0.2613
 8068SOL     OW25336   4.147   1.855   3.842 -0.4208 -0.0134 -0.3457
 8068SOL    HW125337   4.115   1.833   3.930  1.8999 -1.5504  0.2250
 8068SOL    HW225338   4.192   1.939   3.853 -0.3710 -0.0707 -0.1032
 8069SOL     OW25339   7.107   4.723   4.863  0.5144  0.4784  0.1008
 8069SOL    HW125340   7.127   4.715   4.957  2.2804 -1.8624 -0.3683
 8069SOL    HW225341   7.175   4.781   4.829  1.6234 -0.9139 -0.1418
 8070SOL     OW25342   6.039   7.929   4.413 -0.0184 -0.4055  0.4352
 8070SOL    HW125343   5.983   8.006   4.417 -0.2207 -0.5437  0.2843
 8070SOL    HW225344   6.096   7.945   4.339 -0.4656 -0.6718  0.0276
 8071SOL     OW25345   5.470   1.020   8.763  0.0311 -0.0617 -0.1748
 8071SOL    HW125346   5.403   1.088   8.774 -0.2788 -0.4200  0.2144
 8071SOL    HW225347   5.495   0.997   8.853  0.9818  0.3548 -0.3218
 8072SOL     OW25348   8.385   4.451   7.532  0.1700  0.7325 -0.2200
 8072SOL    HW125349   8.427   4.450   7.618 -2.6531  2.2029  1.3236
 8072SOL    HW225350   8.390   4.542   7.504 -0.2210  0.5513 -0.9068
 8073SOL     OW25351   6.338   6.505   1.129 -0.3677 -0.0701  0.0434
 8073SOL    HW125352   6.405   6.437   1.132  1.0305  1.2379 -0.5357
 8073SOL    HW225353   6.269   6.472   1.186  1.0260 -1.1764  1.1807
 8074SOL     OW25354   7.351   1.837   8.500  0.0261  0.0874  0.2813
 8074SOL    HW125355   7.444   1.838   8.522  0.0954 -0.8502  0.0641
 8074SOL    HW225356   7.341   1.764   8.440 -0.9383 -0.1183  0.6732
 8075SOL     OW25357   5.886   7.234   5.682 -0.3722  0.2182 -0.1633
 8075SOL    HW125358   5.981   7.246   5.678 -0.1446 -1.5806 -0.9400
 8075SOL    HW225359   5.874   7.157   5.738 -1.2583 -0.5586 -1.3695
 8076SOL     OW25360   5.636   5.685   3.338  0.6589 -0.3022  0.4779
 8076SOL    HW125361   5.658   5.609   3.284  1.3395 -0.4906  0.9980
 8076SOL    HW225362   5.710   5.744   3.325  0.2076  0.2037  0.2037
 8077SOL     OW25363   3.648   1.663   3.026 -0.3848 -0.0130  0.1023
 8077SOL    HW125364   3.642   1.675   3.120 -0.4445  0.0791  0.0867
 8077SOL    HW225365   3.599   1.583   3.009 -0.6698  0.1578  0.1075
 8078SOL     OW25366   5.561   4.096   0.291  0.5396 -0.1610  0.2622
 8078SOL    HW125367   5.470   4.126   0.300  0.9235  1.8139 -1.5436
 8078SOL    HW225368   5.599   4.108   0.378 -0.4860  0.5351  0.6381
 8079SOL     OW25369   7.389   3.275   5.786 -0.4016 -0.4000  0.3227
 8079SOL    HW125370   7.468   3.237   5.825 -0.2877 -0.8730 -0.3522
 8079SOL    HW225371   7.371   3.352   5.840  1.3146  0.5111 -0.2951
 8080SOL     OW25372   8.797   6.459   6.563 -0.0100 -0.5421  0.2791
 8080SOL    HW125373   8.843   6.449   6.479  0.5156  0.3680  0.4539
 8080SOL    HW225374   8.819   6.380   6.612  0.2388 -0.7584 -0.1755
 8081SOL     OW25375   2.319   7.990   8.538  0.1003  0.0118 -0.0454
 8081SOL    HW125376   2.353   7.941   8.462  1.1214  0.1368  0.3139
 8081SOL    HW225377   2.229   8.011   8.514  1.0128  2.0055 -2.2431
 8082SOL     OW25378   1.715   8.239   6.136  0.1208  0.3964 -0.0806
 8082SOL    HW125379   1.706   8.318   6.083  1.8503  1.4470  1.0770
 8082SOL    HW225380   1.788   8.192   6.098  0.9415  0.8236  0.9024
 8083SOL     OW25381   2.389   8.401   1.771 -0.3539  0.2331 -0.3012
 8083SOL    HW125382   2.345   8.326   1.730  0.3346  0.5492 -1.6842
 8083SOL    HW225383   2.347   8.478   1.734  0.4591  0.5293 -0.6362
 8084SOL     OW25384   0.119   1.583   5.550 -0.4591  0.1789 -0.5730
 8084SOL    HW125385   0.024   1.573   5.554 -0.8135  3.0069  1.0396
 8084SOL    HW225386   0.142   1.562   5.460 -3.0180  1.8258 -1.7362
 8085SOL     OW25387   4.200   1.864   4.742 -0.5308  0.0878 -0.1116
 8085SOL    HW125388   4.198   1.845   4.648 -2.3624 -1.0733  0.1141
 8085SOL    HW225389   4.126   1.923   4.756 -0.5665 -0.1344  0.6704
 8086SOL     OW25390   2.820   7.558   4.308  0.0517 -0.6837 -0.2309
 8086SOL    HW125391   2.913   7.546   4.287  0.0568 -0.8628 -0.1099
 8086SOL    HW225392   2.802   7.649   4.284  0.0723 -0.8622 -0.9541
 8087SOL     OW25393   7.492   3.511   2.790  0.5020  0.3812 -0.0387
 8087SOL    HW125394   7.475   3.476   2.702 -1.1084 -0.5405  0.5904
 8087SOL    HW225395   7.489   3.434   2.847  0.5991  1.0923  0.9422
 8088SOL     OW25396   4.980   8.061   7.087 -0.0183 -0.4035  0.5381
 8088SOL    HW125397   4.909   8.103   7.038  1.8543  1.0639 -1.0186
 8088SOL    HW225398   4.981   7.971   7.055 -0.4081 -0.1237 -0.2895
 8089SOL     OW25399   2.474   2.620   3.114 -0.0842  0.1234  0.2595
 8089SOL    HW125400   2.556   2.595   3.071  0.6319  0.8910  1.1426
 8089SOL    HW225401   2.443   2.696   3.065  0.1509  0.3156  0.4049
 8090SOL     OW25402   3.581   0.689   6.913  0.0217  0.3807  0.1096
 8090SOL    HW125403   3.535   0.769   6.939 -1.7803 -0.4118 -0.4733
 8090SOL    HW225404   3.631   0.714   6.836  0.1627  1.1547  0.4446
 8091SOL     OW25405   7.727   8.252   1.179 -0.1709 -0.3050  0.1766
 8091SOL    HW125406   7.683   8.316   1.234 -0.4118  0.4810 -0.8779
 8091SOL    HW225407   7.817   8.250   1.212 -0.6741 -0.9904  1.5446
 8092SOL     OW25408   7.226   3.863   7.116  0.1487 -0.2295  0.0045
 8092SOL    HW125409   7.199   3.789   7.171  0.7810 -1.5543 -1.3654
 8092SOL    HW225410   7.304   3.897   7.158 -2.1197  2.1082  2.6870
 8093SOL     OW25411   1.162   2.303   2.368 -0.0508  0.0334 -0.1352
 8093SOL    HW125412   1.141   2.267   2.281 -0.9280  0.4134 -0.0919
 8093SOL    HW225413   1.178   2.396   2.352  0.6321 -0.0598 -0.0114
 8094SOL     OW25414   4.868   3.368   1.478 -0.2388 -0.0218  0.0893
 8094SOL    HW125415   4.823   3.390   1.559 -0.1322 -1.1047  0.4576
 8094SOL    HW225416   4.897   3.277   1.490 -2.8030 -1.3035 -2.2919
 8095SOL     OW25417   4.867   3.030   4.158 -0.8219  0.3413  0.0151
 8095SOL    HW125418   4.778   3.021   4.126 -0.9864 -0.0584  0.5832
 8095SOL    HW225419   4.906   2.944   4.144 -1.8483 -0.9041  3.7781
 8096SOL     OW25420   6.549   1.513   4.003  0.4498 -0.0030  0.0498
 8096SOL    HW125421   6.561   1.437   3.946  2.6234 -0.4746  1.0374
 8096SOL    HW225422   6.462   1.500   4.041 -0.7455 -0.0500 -2.5255
 8097SOL     OW25423   3.837   6.173   4.727  0.0336  0.3823 -0.1476
 8097SOL    HW125424   3.831   6.255   4.776  0.9310 -0.0237  0.6645
 8097SOL    HW225425   3.877   6.199   4.644 -0.3575  0.8777 -0.1888
 8098SOL     OW25426   3.603   7.148   3.546 -0.0083  0.2745 -0.1545
 8098SOL    HW125427   3.636   7.202   3.475  0.1178  2.6433  1.5691
 8098SOL    HW225428   3.516   7.185   3.565  0.0545 -0.1520  1.0326
 8099SOL     OW25429   2.131   0.827   7.034 -0.4281 -0.2244  0.3231
 8099SOL    HW125430   2.225   0.833   7.053 -0.5668  2.2933  0.5784
 8099SOL    HW225431   2.102   0.748   7.080  1.1184  0.3069  2.3494
 8100SOL     OW25432   4.865   1.877   2.362  0.4848  0.5006  0.2183
 8100SOL    HW125433   4.858   1.939   2.290  3.6973  2.5412  1.3979
 8100SOL    HW225434   4.822   1.921   2.436  1.3988  0.6902  0.6634
 8101SOL     OW25435   7.706   5.478   8.344  0.0572 -0.1314 -0.0639
 8101SOL    HW125436   7.793   5.455   8.310  0.0117  0.7892 -0.8599
 8101SOL    HW225437   7.650   5.478   8.266 -0.8052 -1.3184  0.5299
 8102SOL     OW25438   8.765   4.784   2.300 -0.3033  0.5228  0.1058
 8102SOL    HW125439   8.855   4.799   2.328 -0.2450 -0.2944  0.3876
 8102SOL    HW225440   8.772   4.769   2.206 -0.0314 -0.3605  0.2589
 8103SOL     OW25441   5.275   8.247   0.026  0.3016  0.2666 -0.2615
 8103SOL    HW125442   5.296   8.329   0.072  2.6934  0.4453 -1.4894
 8103SOL    HW225443   5.283   8.179   0.093 -1.4590  0.9595  0.7156
 8104SOL     OW25444   0.679   2.609   4.566 -0.0013 -0.3786 -0.0477
 8104SOL    HW125445   0.615   2.672   4.533  0.0982 -0.9043 -1.2972
 8104SOL    HW225446   0.629   2.530   4.585  0.1300 -0.4831 -0.1319
 8105SOL     OW25447   4.334   4.031   1.593  0.1415  0.4500  0.7096
 8105SOL    HW125448   4.361   3.952   1.547 -1.2741 -0.1300  0.8345
 8105SOL    HW225449   4.405   4.094   1.577  0.6102 -0.3750 -0.5750
 8106SOL     OW25450   4.155   6.903   8.091 -0.0502 -0.5094 -0.3222
 8106SOL    HW125451   4.145   6.879   7.998 -1.5243 -2.3955  0.2592
 8106SOL    HW225452   4.078   6.956   8.110  0.8240  0.8332 -0.4227
 8107SOL     OW25453   7.991   3.870   5.855  0.1036  0.0514  0.0921
 8107SOL    HW125454   7.901   3.849   5.880  0.1934 -0.4251  0.0146
 8107SOL    HW225455   8.020   3.795   5.804  1.3438 -0.8407  2.0173
 8108SOL     OW25456   8.164   0.226   2.118 -0.1184 -0.1482 -0.4861
 8108SOL    HW125457   8.220   0.241   2.194  1.0907 -0.3941 -1.3017
 8108SOL    HW225458   8.099   0.162   2.147 -0.1826  0.3769  0.5648
 8109SOL     OW25459   8.686   0.494   8.519 -0.0034 -0.1344  0.0160
 8109SOL    HW125460   8.718   0.537   8.598  2.5451 -0.1061 -0.9465
 8109SOL    HW225461   8.718   0.404   8.527 -0.5337 -0.3812 -0.5611
 8110SOL     OW25462   5.058   7.747   2.268  0.2160  0.1146  0.2607
 8110SOL    HW125463   5.032   7.656   2.251  0.4081 -0.0470  0.7929
 8110SOL    HW225464   5.151   7.750   2.247  1.5422 -1.1424  4.8237
 8111SOL     OW25465   4.478   2.919   7.717 -0.3242  1.0904 -0.4454
 8111SOL    HW125466   4.477   2.989   7.782  1.9046  0.1332  0.7236
 8111SOL    HW225467   4.556   2.936   7.664  1.1396 -1.2080  0.8082
 8112SOL     OW25468   1.626   4.774   0.197  0.0623 -0.7625  0.2894
 8112SOL    HW125469   1.535   4.770   0.228  0.3146 -1.6044  0.9760
 8112SOL    HW225470   1.635   4.697   0.141 -0.0525  0.1241 -0.9865
 8113SOL     OW25471   9.023   4.009   2.231 -0.2239 -0.5776 -0.1828
 8113SOL    HW125472   9.106   4.035   2.191  0.7651 -2.3246  0.6348
 8113SOL    HW225473   8.959   4.016   2.160  0.7342  0.1549 -1.0026
 8114SOL     OW25474   3.742   8.889   8.691 -1.1083 -0.1790 -0.4521
 8114SOL    HW125475   3.704   8.901   8.604  0.9033 -1.3928 -1.5542
 8114SOL    HW225476   3.686   8.822   8.731 -2.8488  1.3159 -0.2262
 8115SOL     OW25477   8.838   4.197   6.327 -0.3809 -0.4296  0.2495
 8115SOL    HW125478   8.806   4.260   6.262 -0.2208 -0.0577  0.5304
 8115SOL    HW225479   8.898   4.140   6.278 -0.6692 -0.4825 -0.0450
 8116SOL     OW25480   0.488   3.927   3.667  0.1067 -0.1290 -0.8128
 8116SOL    HW125481   0.414   3.987   3.657 -0.3404 -0.3739  0.6734
 8116SOL    HW225482   0.561   3.971   3.624 -0.5187  0.8751 -0.8842
 8117SOL     OW25483   8.146   5.155   8.865 -0.1244  0.1238  0.2508
 8117SOL    HW125484   8.087   5.230   8.877  1.8103  1.6578  0.5888
 8117SOL    HW225485   8.174   5.132   8.954 -0.5936 -0.9510  0.1378
 8118SOL     OW25486   2.144   8.488   3.071  0.4453 -0.3939 -0.1107
 8118SOL    HW125487   2.089   8.417   3.038 -0.8413  0.5883 -0.1269
 8118SOL    HW225488   2.191   8.449   3.145 -0.9058 -1.0293  0.4431
 8119SOL     OW25489   4.405   4.074   7.780 -0.0644  0.1212  0.2812
 8119SOL    HW125490   4.498   4.087   7.761 -0.0641  0.5985  0.5980
 8119SOL    HW225491   4.391   4.115   7.865 -0.7995  1.0487 -0.2720
 8120SOL     OW25492   7.528   3.915   5.955 -0.0456 -0.3855  0.5655
 8120SOL    HW125493   7.501   3.946   5.868  1.0139 -0.0364  0.3483
 8120SOL    HW225494   7.471   3.963   6.016 -0.7679 -0.6012  0.0795
 8121SOL     OW25495   4.288   1.208   2.002 -0.2267 -0.0575 -0.0798
 8121SOL    HW125496   4.303   1.182   1.911  1.1880  0.1097  0.0777
 8121SOL    HW225497   4.270   1.126   2.048  0.5861 -0.3393 -0.2454
 8122SOL     OW25498   6.731   3.984   1.280 -0.4592 -0.5957  0.3367
 8122SOL    HW125499   6.761   4.045   1.347  0.2801  1.3738 -1.6645
 8122SOL    HW225500   6.675   4.037   1.223  0.2891 -1.7442 -1.5391
 8123SOL     OW25501   2.810   6.286   5.582  0.1527 -0.0509 -0.2085
 8123SOL    HW125502   2.880   6.288   5.648 -0.0250  0.0435 -0.0214
 8123SOL    HW225503   2.799   6.378   5.556 -0.9466  0.1681  0.8816
 8124SOL     OW25504   2.866   4.662   2.871 -0.4700 -0.4432  0.1273
 8124SOL    HW125505   2.926   4.606   2.822 -1.0400 -0.5726 -0.4393
 8124SOL    HW225506   2.830   4.722   2.806  1.4550  1.8322  1.0041
 8125SOL     OW25507   2.349   3.127   0.504 -0.1035 -0.0615 -0.1976
 8125SOL    HW125508   2.367   3.111   0.597  1.9220  1.1924 -0.3039
 8125SOL    HW225509   2.353   3.040   0.464 -0.5738 -0.5671  0.8076
 8126SOL     OW25510   0.149   4.398   2.135  0.7754 -0.0523  0.3898
 8126SOL    HW125511   0.133   4.377   2.227  1.8573 -0.4726  0.4914
 8126SOL    HW225512   0.228   4.452   2.136  1.6427 -1.2587 -0.3951
 8127SOL     OW25513   5.152   1.612   1.947 -0.4471 -0.0206 -0.3448
 8127SOL    HW125514   5.099   1.600   2.026 -1.3812  0.4910 -0.8703
 8127SOL    HW225515   5.192   1.527   1.931 -0.1343 -0.0976  0.7438
 8128SOL     OW25516   6.402   7.875   3.731  0.2692  0.4054  0.1496
 8128SOL    HW125517   6.408   7.904   3.640  0.6674  0.0453  0.0576
 8128SOL    HW225518   6.359   7.789   3.725  1.7726 -0.3681  0.1463
 8129SOL     OW25519   4.328   8.229   3.726  0.1402 -0.1106  0.0368
 8129SOL    HW125520   4.358   8.183   3.804  1.9904  0.3282 -0.3640
 8129SOL    HW225521   4.365   8.179   3.653 -0.8340 -0.0243 -0.5286
 8130SOL     OW25522   1.268   8.887   5.911 -0.2413 -0.0299 -0.3198
 8130SOL    HW125523   1.319   8.968   5.913 -0.1848 -0.0524 -0.7392
 8130SOL    HW225524   1.278   8.851   5.999  0.6398 -0.1327 -0.4445
 8131SOL     OW25525   0.506   0.371   1.919  0.0054 -0.6281  0.1000
 8131SOL    HW125526   0.433   0.324   1.879 -0.0951 -0.1826 -0.2540
 8131SOL    HW225527   0.467   0.452   1.952 -0.2093 -1.5592  2.3665
 8132SOL     OW25528   8.030   7.093   4.133 -0.1242 -0.2063 -0.3603
 8132SOL    HW125529   8.096   7.154   4.168 -0.0890 -0.2936 -0.2751
 8132SOL    HW225530   8.062   7.072   4.046  1.1528 -1.9837  0.4651
 8133SOL     OW25531   1.090   9.058   8.794 -0.2178 -0.1334 -0.0972
 8133SOL    HW125532   1.127   8.970   8.787  0.1968 -0.0302  0.6711
 8133SOL    HW225533   1.133   9.108   8.725 -1.0717 -0.7280 -1.0877
 8134SOL     OW25534   6.904   7.394   4.215  0.2927  0.1717  0.7197
 8134SOL    HW125535   6.958   7.468   4.242  1.2288 -0.3550  0.3309
 8134SOL    HW225536   6.815   7.419   4.239  0.4390  1.8825 -0.3733
 8135SOL     OW25537   0.055   0.963   6.935  0.7449  0.8368  0.4799
 8135SOL    HW125538  -0.030   0.933   6.904 -0.7451  2.2478  2.8360
 8135SOL    HW225539   0.059   0.933   7.026  2.4435  1.4516  0.6398
 8136SOL     OW25540   7.595   3.603   3.143 -0.0608  0.1771  0.2224
 8136SOL    HW125541   7.536   3.535   3.111 -0.4273  0.0737  1.0727
 8136SOL    HW225542   7.581   3.677   3.084  1.1374 -0.8111 -1.3780
 8137SOL     OW25543   6.024   5.562   3.712 -0.0672  0.0940 -0.1711
 8137SOL    HW125544   6.046   5.471   3.689 -1.7140 -0.6055  0.8545
 8137SOL    HW225545   5.929   5.567   3.701 -0.0019  1.6979 -0.1506
 8138SOL     OW25546   8.319   7.958   9.100 -0.2925 -0.0333 -0.1458
 8138SOL    HW125547   8.368   7.890   9.054 -0.6668 -0.5255  0.1790
 8138SOL    HW225548   8.386   8.014   9.139  0.1370 -2.2989  2.7248
 8139SOL     OW25549   2.731   4.584   8.183  0.0354 -0.2762  0.2471
 8139SOL    HW125550   2.771   4.546   8.261 -1.2383 -0.9868  0.5717
 8139SOL    HW225551   2.652   4.532   8.168 -1.3399  1.7095  0.2396
 8140SOL     OW25552   0.303   0.271   4.326 -0.6006 -0.4534  0.1946
 8140SOL    HW125553   0.228   0.282   4.384  0.8094 -0.0745  2.0237
 8140SOL    HW225554   0.269   0.293   4.239 -2.0697  1.9159  1.2620
 8141SOL     OW25555   2.487   5.176   2.031  0.1367  0.2037 -0.1425
 8141SOL    HW125556   2.564   5.193   2.084 -1.3805  0.9490  1.9705
 8141SOL    HW225557   2.496   5.084   2.005  2.2449  0.5819 -0.9546
 8142SOL     OW25558   0.371   5.699   0.302 -0.1704 -0.1626  0.3446
 8142SOL    HW125559   0.331   5.761   0.241  0.6440 -1.1986 -1.3179
 8142SOL    HW225560   0.464   5.705   0.284  0.1168 -0.3404  1.6823
 8143SOL     OW25561   6.616   4.403   7.093  0.2969  0.3708  0.3025
 8143SOL    HW125562   6.544   4.429   7.035  0.8493  0.8659 -0.1800
 8143SOL    HW225563   6.606   4.309   7.104 -0.3886  0.4274  0.1901
 8144SOL     OW25564   3.518   5.350   2.470 -0.1116 -0.1963  0.0833
 8144SOL    HW125565   3.530   5.294   2.546 -0.8093  0.0344  0.3719
 8144SOL    HW225566   3.585   5.321   2.408  0.3961 -0.4476  0.7417
 8145SOL     OW25567   8.202   8.918   5.034 -0.2733  0.0677  0.0381
 8145SOL    HW125568   8.129   8.962   4.991  0.5950  0.2595 -1.2787
 8145SOL    HW225569   8.183   8.825   5.026 -0.9756  0.1333  0.8098
 8146SOL     OW25570   6.350   7.672   7.922  0.4267 -0.2073  0.1371
 8146SOL    HW125571   6.262   7.710   7.915  0.9765  0.9547 -0.8045
 8146SOL    HW225572   6.364   7.661   8.016 -0.5589 -0.0316  0.3175
 8147SOL     OW25573   0.416   1.851   4.336  0.1058 -0.2256  0.5708
 8147SOL    HW125574   0.477   1.894   4.276  0.4945 -2.4588 -0.7225
 8147SOL    HW225575   0.329   1.881   4.308  0.3327 -0.6216 -0.5996
 8148SOL     OW25576   6.762   0.339   1.493  0.2755  0.2204  0.0890
 8148SOL    HW125577   6.818   0.315   1.566 -0.7972  1.1344  1.2733
 8148SOL    HW225578   6.712   0.415   1.525 -1.6809 -0.5805 -0.8516
 8149SOL     OW25579   6.389   8.957   1.133  0.5216  0.5056 -0.3591
 8149SOL    HW125580   6.402   8.935   1.041  2.1192  2.2180 -0.6141
 8149SOL    HW225581   6.321   9.024   1.133  0.3574  0.3413 -0.2612
 8150SOL     OW25582   3.857   5.367   4.423 -0.1009 -0.3096 -0.3822
 8150SOL    HW125583   3.786   5.423   4.455  0.6454  0.2944  0.2533
 8150SOL    HW225584   3.924   5.428   4.393 -0.1711 -0.8763 -1.7527
 8151SOL     OW25585   8.563   4.588   6.229 -0.0874 -0.0886  0.5395
 8151SOL    HW125586   8.491   4.646   6.207  1.2029  0.6003 -2.3916
 8151SOL    HW225587   8.526   4.500   6.220 -0.1455  0.1651 -3.4161
 8152SOL     OW25588   0.540   6.444   3.961 -0.2777  0.5798 -0.7727
 8152SOL    HW125589   0.487   6.373   3.996 -0.4205  0.0351 -2.0502
 8152SOL    HW225590   0.543   6.509   4.032 -2.5254  0.5708 -0.6044
 8153SOL     OW25591   3.334   7.571   7.793  0.0942  0.3899 -0.3463
 8153SOL    HW125592   3.289   7.655   7.783  0.4534  0.7753  1.0593
 8153SOL    HW225593   3.338   7.557   7.888 -0.4293 -1.4807 -0.5726
 8154SOL     OW25594   7.803   5.504   3.931  0.1627 -0.1902 -0.4716
 8154SOL    HW125595   7.710   5.495   3.908  0.1781  1.9554 -1.6946
 8154SOL    HW225596   7.849   5.477   3.851  0.5393 -0.1679 -0.2592
 8155SOL     OW25597   2.716   4.433   6.086  0.2031 -0.0129 -0.0416
 8155SOL    HW125598   2.668   4.361   6.127  1.1378  0.1906  1.4822
 8155SOL    HW225599   2.667   4.512   6.112 -0.2428 -0.0069 -0.8683
 8156SOL     OW25600   1.644   7.749   0.998  0.8994  0.2496  0.0064
 8156SOL    HW125601   1.587   7.695   0.944 -0.4814  1.3484  0.3011
 8156SOL    HW225602   1.726   7.754   0.949 -0.0166  0.4929 -1.5636
 8157SOL     OW25603   2.665   7.012   1.406 -0.2302  0.0798  0.7759
 8157SOL    HW125604   2.733   7.039   1.345 -0.0717 -0.6359  0.6297
 8157SOL    HW225605   2.651   6.919   1.388 -0.3352 -0.0922  1.6789
 8158SOL     OW25606   4.673   4.005   4.401  0.4511 -0.3093 -0.4513
 8158SOL    HW125607   4.595   3.987   4.349 -0.4863  0.6440  0.5570
 8158SOL    HW225608   4.639   4.020   4.490  1.9110 -1.1050  0.2848
 8159SOL     OW25609   8.084   6.667   7.955 -0.0400 -0.6642  0.2320
 8159SOL    HW125610   8.072   6.598   8.020  1.3483 -0.7420  0.4268
 8159SOL    HW225611   8.173   6.655   7.923 -1.1057 -1.5391 -2.7538
 8160SOL     OW25612   3.525   8.451   3.158 -0.0026 -0.3487  0.3067
 8160SOL    HW125613   3.558   8.541   3.161 -0.5665 -0.1650  2.2661
 8160SOL    HW225614   3.603   8.397   3.170 -0.0079  0.0028  2.1838
 8161SOL     OW25615   4.023   0.015   8.823 -0.1753 -0.3641  0.2345
 8161SOL    HW125616   3.931   0.041   8.820 -0.6734 -1.3709  3.1118
 8161SOL    HW225617   4.028  -0.065   8.771 -1.3244 -1.1548  1.2715
 8162SOL     OW25618   1.418   7.170   7.402 -0.3394  0.0686 -0.3645
 8162SOL    HW125619   1.483   7.160   7.472 -1.0752 -0.9655  0.1906
 8162SOL    HW225620   1.441   7.103   7.338 -1.8402 -1.4742  0.6384
 8163SOL     OW25621   5.705   5.026   1.343 -0.1888  0.2070  0.1981
 8163SOL    HW125622   5.734   5.084   1.272 -2.6882  0.3882 -0.7782
 8163SOL    HW225623   5.703   4.939   1.303 -1.7061  0.3245 -0.0364
 8164SOL     OW25624   8.253   9.072   5.595 -0.1552  0.2069 -0.2120
 8164SOL    HW125625   8.271   9.159   5.560  1.1265  1.1297  2.5098
 8164SOL    HW225626   8.205   9.028   5.525  2.8104  1.5827 -3.3985
 8165SOL     OW25627   5.793   0.145   4.280  0.2825 -0.0217  0.1027
 8165SOL    HW125628   5.714   0.167   4.230  0.8403  0.4686 -0.5956
 8165SOL    HW225629   5.761   0.104   4.360 -0.6373 -0.9226 -0.7071
 8166SOL     OW25630   6.733   3.021   0.742 -0.4414  0.2966 -0.1168
 8166SOL    HW125631   6.669   3.051   0.807 -0.4809 -1.1624  0.5636
 8166SOL    HW225632   6.715   2.928   0.733  0.7057  0.1373 -0.9552
 8167SOL     OW25633   4.937   4.656   5.630  0.0199 -0.7935 -0.2349
 8167SOL    HW125634   5.026   4.685   5.608  0.7834 -0.3397  2.9450
 8167SOL    HW225635   4.924   4.685   5.720 -3.7695 -0.0192 -0.8661
 8168SOL     OW25636   1.769   5.092   6.919 -0.2769  0.1133 -0.0291
 8168SOL    HW125637   1.792   5.185   6.921 -0.2298  0.1106 -0.3993
 8168SOL    HW225638   1.736   5.077   6.831 -1.7807  0.1300  0.4921
 8169SOL     OW25639   6.250   3.167   1.872 -0.1884 -0.1108  0.1316
 8169SOL    HW125640   6.210   3.129   1.950 -0.7789  1.0302  0.4075
 8169SOL    HW225641   6.284   3.092   1.823 -0.2815 -0.8791  1.2204
 8170SOL     OW25642   1.595   3.772   7.564  0.4041 -0.1395  0.0176
 8170SOL    HW125643   1.535   3.706   7.530  0.7838 -1.3956  1.6271
 8170SOL    HW225644   1.557   3.856   7.540 -1.9936 -0.8915  0.9420
 8171SOL     OW25645   6.628   5.907   8.744  0.5735 -0.0556 -0.2746
 8171SOL    HW125646   6.611   5.847   8.817 -0.0335  1.1164  0.5691
 8171SOL    HW225647   6.555   5.894   8.684  0.0925  0.3119  0.2274
 8172SOL     OW25648   2.616   6.340   0.920  0.4101 -0.0093 -0.5396
 8172SOL    HW125649   2.578   6.318   0.835 -1.0743 -0.8765  0.2957
 8172SOL    HW225650   2.619   6.436   0.921  0.4810  0.0089 -1.5709
 8173SOL     OW25651   7.367   6.732   6.643 -0.5217  0.1870 -0.2994
 8173SOL    HW125652   7.428   6.800   6.672  1.1083 -0.2092 -2.5551
 8173SOL    HW225653   7.356   6.747   6.550 -1.3782 -1.6899 -0.5582
 8174SOL     OW25654   6.305   2.704   6.574 -0.0823  0.6159 -0.7450
 8174SOL    HW125655   6.284   2.664   6.658  3.1652  0.5034  0.1656
 8174SOL    HW225656   6.225   2.696   6.522 -0.6242 -4.4519  0.3562
 8175SOL     OW25657   3.309   6.418   9.057 -0.3491 -0.1500 -0.2002
 8175SOL    HW125658   3.403   6.433   9.044 -0.2917  0.5233  0.8681
 8175SOL    HW225659   3.297   6.324   9.040  0.4655 -0.1887 -0.5980
 8176SOL     OW25660   8.432   5.472   1.638 -0.6374  0.1626 -0.5458
 8176SOL    HW125661   8.423   5.389   1.686  0.4715  0.6213  0.5176
 8176SOL    HW225662   8.517   5.464   1.594  0.2502  1.3145  0.8508
 8177SOL     OW25663   5.116   6.952   6.486  0.3688  0.3561  0.6534
 8177SOL    HW125664   5.085   7.002   6.411  0.4139  1.3666  1.2855
 8177SOL    HW225665   5.043   6.893   6.507  0.2858  0.2007 -0.0651
 8178SOL     OW25666   2.348   3.716   2.027  0.1623 -0.0421 -1.0948
 8178SOL    HW125667   2.389   3.634   2.001 -0.5198 -0.7603  0.0539
 8178SOL    HW225668   2.257   3.693   2.045  0.7068  0.1853  2.7288
 8179SOL     OW25669   0.668   7.171   4.599  1.2166  0.6865  0.1599
 8179SOL    HW125670   0.695   7.191   4.689  1.9695  2.3554 -0.3953
 8179SOL    HW225671   0.737   7.208   4.545  1.6677 -1.7799 -1.1069
 8180SOL     OW25672   0.443   6.026   7.768  0.0598  0.3601 -0.3300
 8180SOL    HW125673   0.380   6.037   7.840 -0.0066  0.6277 -0.4270
 8180SOL    HW225674   0.430   5.937   7.738 -0.8404  0.6718 -0.8817
 8181SOL     OW25675   4.550   5.044   0.315 -0.2529  0.3308 -0.2611
 8181SOL    HW125676   4.487   4.972   0.316  0.0021  0.0869 -1.0984
 8181SOL    HW225677   4.614   5.021   0.383 -0.1437 -0.2653 -0.5570
 8182SOL     OW25678   5.101   3.702   2.786  0.3471  0.3566 -0.2538
 8182SOL    HW125679   5.145   3.732   2.866 -0.7619  1.8055 -0.1484
 8182SOL    HW225680   5.095   3.607   2.797 -0.3804  0.5743  1.7386
 8183SOL     OW25681   4.649   3.558   8.386  0.1139  0.4430  0.0391
 8183SOL    HW125682   4.581   3.517   8.440  0.1400  1.0949  0.5737
 8183SOL    HW225683   4.612   3.558   8.298 -0.2746  0.1277  0.1993
 8184SOL     OW25684   1.916   2.195   0.731 -0.0177  0.0735  0.1729
 8184SOL    HW125685   2.007   2.219   0.748  0.3921 -0.2248 -1.4374
 8184SOL    HW225686   1.908   2.195   0.635 -0.4658 -4.2957  0.0117
 8185SOL     OW25687   7.124   3.766   5.464 -0.2548  0.1015  0.4100
 8185SOL    HW125688   7.043   3.779   5.415 -0.7851 -0.0776  1.2192
 8185SOL    HW225689   7.100   3.704   5.533  0.8256 -0.7393  0.0448
 8186SOL     OW25690   8.319   3.164   6.451  0.0755 -0.1486  0.3019
 8186SOL    HW125691   8.267   3.112   6.512  1.8753 -0.0414  2.0299
 8186SOL    HW225692   8.256   3.195   6.386 -1.7672 -1.0077  1.5904
 8187SOL     OW25693   7.455   8.357   6.386 -0.5667 -0.1034  0.3614
 8187SOL    HW125694   7.381   8.409   6.416 -0.7602  0.8259 -1.5319
 8187SOL    HW225695   7.416   8.286   6.335 -0.1915 -0.4416  0.5335
 8188SOL     OW25696   5.711   5.700   8.319 -0.1732  0.2902  0.3918
 8188SOL    HW125697   5.798   5.736   8.300 -0.1231  0.0604  0.1755
 8188SOL    HW225698   5.718   5.662   8.406 -0.1437  0.5470  0.5012
 8189SOL     OW25699   1.587   8.612   1.092 -0.0292 -0.0790 -0.1343
 8189SOL    HW125700   1.521   8.646   1.032  0.6549  0.9966 -0.2983
 8189SOL    HW225701   1.537   8.579   1.166 -0.7978 -0.0308 -0.6167
 8190SOL     OW25702   0.383   4.970   2.466 -0.3780 -0.0507 -0.5306
 8190SOL    HW125703   0.312   4.989   2.529 -0.7337 -0.1530 -0.8958
 8190SOL    HW225704   0.462   5.002   2.509 -0.4242 -1.2407  0.5255
 8191SOL     OW25705   4.883   7.083   5.044  0.3991  0.1887  0.4839
 8191SOL    HW125706   4.964   7.035   5.062  2.5632  2.9701 -1.0544
 8191SOL    HW225707   4.865   7.131   5.126  1.4650  1.0314  0.2478
 8192SOL     OW25708   4.811   7.450   5.527  0.4751 -0.0731  0.8897
 8192SOL    HW125709   4.867   7.448   5.604  1.7252 -0.3286  0.0235
 8192SOL    HW225710   4.853   7.514   5.469  1.0468 -1.6919 -0.5877
 8193SOL     OW25711   4.859   1.275   6.040 -0.5923 -0.0502 -0.4735
 8193SOL    HW125712   4.843   1.339   5.971 -2.2436 -0.1088 -0.2003
 8193SOL    HW225713   4.899   1.201   5.995  1.5332  1.1888 -0.7569
 8194SOL     OW25714   5.646   3.958   2.120 -0.4238 -0.5882  0.1756
 8194SOL    HW125715   5.647   4.040   2.071  1.4845 -0.5840  0.1622
 8194SOL    HW225716   5.666   3.983   2.210  0.5147 -1.0643  0.1078
 8195SOL     OW25717   5.565   0.138   7.862 -0.4379  0.1924 -0.4026
 8195SOL    HW125718   5.656   0.159   7.839 -0.0612 -0.6257  0.2727
 8195SOL    HW225719   5.571   0.052   7.905 -1.5071  0.2391 -0.1418
 8196SOL     OW25720   4.552   0.576   0.996 -0.1246 -0.3851  0.0162
 8196SOL    HW125721   4.584   0.503   1.050  0.6079 -0.1504 -0.0900
 8196SOL    HW225722   4.603   0.571   0.915  1.2387  1.2692  0.6854
 8197SOL     OW25723   7.715   8.376   5.772  0.0000  0.1215 -0.0849
 8197SOL    HW125724   7.670   8.418   5.845  1.6763  0.5584  0.7420
 8197SOL    HW225725   7.788   8.328   5.812 -1.6840 -3.5702 -0.9824
 8198SOL     OW25726   2.024   2.315   5.949 -0.7247  0.3965  0.6886
 8198SOL    HW125727   1.976   2.268   5.881 -0.6993  1.1348  0.1447
 8198SOL    HW225728   2.116   2.307   5.922 -0.6158 -0.1958  1.2091
 8199SOL     OW25729   2.513   6.145   1.262 -0.1338 -0.0117  0.2703
 8199SOL    HW125730   2.511   6.116   1.171  2.2331 -0.7763  0.4044
 8199SOL    HW225731   2.563   6.077   1.308 -1.8968 -0.0341  2.3231
 8200SOL     OW25732   3.216   3.633   1.496  0.4304  0.2241  0.0409
 8200SOL    HW125733   3.185   3.668   1.413  0.7244  0.5308  0.0609
 8200SOL    HW225734   3.237   3.541   1.477 -0.6019 -0.0354  0.0555
 8201SOL     OW25735   4.992   7.523   3.302 -0.5109 -0.1849 -0.1575
 8201SOL    HW125736   5.033   7.598   3.260 -0.8999  0.9657  1.3905
 8201SOL    HW225737   5.045   7.508   3.380 -1.8403  0.0889  0.8452
 8202SOL     OW25738   1.794   8.121   0.793 -0.5010 -0.2755 -0.6211
 8202SOL    HW125739   1.886   8.127   0.821 -0.6931  0.3596 -0.1036
 8202SOL    HW225740   1.749   8.186   0.847 -1.7388 -2.4958  1.1800
 8203SOL     OW25741   8.929   3.780   0.919  0.0325 -0.2337 -0.4244
 8203SOL    HW125742   8.863   3.718   0.889  0.9945 -0.9743 -1.0744
 8203SOL    HW225743   8.883   3.864   0.923 -0.5680 -0.4008 -2.4744
 8204SOL     OW25744   6.559   4.127   7.131  0.1450  0.0780 -0.4344
 8204SOL    HW125745   6.588   4.059   7.192 -2.4800  1.3772  2.5818
 8204SOL    HW225746   6.485   4.088   7.085 -1.8115  0.8663  1.7923
 8205SOL     OW25747   2.046   1.548   8.773 -0.2277  0.1234 -0.0956
 8205SOL    HW125748   2.000   1.631   8.757 -1.0028 -0.0738  0.9828
 8205SOL    HW225749   2.052   1.542   8.868 -0.6645 -1.3049 -0.1368
 8206SOL     OW25750   3.451   6.178   6.592  0.0228 -0.2251  0.1708
 8206SOL    HW125751   3.377   6.218   6.547  0.2008 -0.0173  0.0618
 8206SOL    HW225752   3.506   6.143   6.522 -0.4594 -1.2628  0.2824
 8207SOL     OW25753   0.646   0.407   2.584 -0.2590 -0.3706  0.1393
 8207SOL    HW125754   0.631   0.372   2.496 -2.4147 -1.8443  0.9902
 8207SOL    HW225755   0.635   0.501   2.575 -1.6480 -0.6052 -0.9941
 8208SOL     OW25756   5.143   1.461   6.864 -0.4059  0.6874  0.2392
 8208SOL    HW125757   5.177   1.422   6.784 -1.1052 -0.0520  0.2941
 8208SOL    HW225758   5.049   1.471   6.848 -0.7244 -0.3863  1.3165
 8209SOL     OW25759   1.048   5.624   3.838 -0.6576 -0.0167 -0.2056
 8209SOL    HW125760   0.984   5.609   3.908  1.0822 -1.0997  1.2132
 8209SOL    HW225761   1.133   5.613   3.880  0.6414 -5.6287 -3.2935
 8210SOL     OW25762   3.941   4.959   8.051  0.2958  0.0911  0.4561
 8210SOL    HW125763   4.011   4.902   8.084  0.4270 -0.6691 -1.0455
 8210SOL    HW225764   3.891   4.983   8.129 -0.5263 -3.0772  1.0478
 8211SOL     OW25765   3.164   2.364   1.117 -0.1478 -0.2034  0.0721
 8211SOL    HW125766   3.250   2.343   1.153  0.5706 -0.4156 -1.6886
 8211SOL    HW225767   3.140   2.288   1.064 -0.0118  1.0423 -1.8958
 8212SOL     OW25768   7.749   7.333   9.078  0.0277 -0.1462  0.4264
 8212SOL    HW125769   7.818   7.289   9.029  1.5495  1.1087  1.3778
 8212SOL    HW225770   7.727   7.410   9.025  0.8341  0.5615  1.0857
 8213SOL     OW25771   7.390   6.852   8.330 -0.7057 -0.1824  0.7344
 8213SOL    HW125772   7.476   6.887   8.308 -1.6006  0.5223 -2.0452
 8213SOL    HW225773   7.385   6.771   8.280 -1.4285 -0.5768  1.4297
 8214SOL     OW25774   8.426   8.291   5.103 -0.1969  0.1487  0.1921
 8214SOL    HW125775   8.420   8.354   5.175  0.1569 -0.6074  0.9090
 8214SOL    HW225776   8.465   8.340   5.031 -2.0614  1.3679 -0.0452
 8215SOL     OW25777   1.718   6.397   5.299 -0.1375 -0.1936 -0.1254
 8215SOL    HW125778   1.685   6.311   5.326  0.4583 -0.4483 -0.1900
 8215SOL    HW225779   1.716   6.395   5.203 -0.4608  0.0016 -0.1251
 8216SOL     OW25780   6.422   1.680   1.771  0.0786  0.1311  0.4704
 8216SOL    HW125781   6.513   1.698   1.793  0.4920 -1.9502  0.6945
 8216SOL    HW225782   6.410   1.588   1.794 -0.8638 -0.9091 -3.3983
 8217SOL     OW25783   8.229   9.059   7.805  0.7149 -0.1348  0.2978
 8217SOL    HW125784   8.253   9.065   7.897  0.1357 -3.2703  0.7572
 8217SOL    HW225785   8.274   8.981   7.773 -0.9389 -0.4511 -1.4493
 8218SOL     OW25786   3.496   4.615   2.422  0.6388  0.4061 -0.1234
 8218SOL    HW125787   3.415   4.576   2.389 -0.7340  1.8110  1.3584
 8218SOL    HW225788   3.525   4.557   2.492  1.9056 -0.9860 -1.7192
 8219SOL     OW25789   5.044   0.965   1.523 -0.3324  0.0300  0.1842
 8219SOL    HW125790   5.011   0.882   1.488 -0.1873 -0.1010  0.3575
 8219SOL    HW225791   5.114   0.940   1.582 -0.9587  0.2132  1.0212
 8220SOL     OW25792   2.783   1.975   3.600  0.1803  0.3746  0.1204
 8220SOL    HW125793   2.784   2.067   3.575 -1.6562  0.6304  0.8557
 8220SOL    HW225794   2.715   1.969   3.667 -0.3825 -1.6736 -0.5640
 8221SOL     OW25795   6.143   0.766   0.219 -0.1979 -0.0693 -0.2913
 8221SOL    HW125796   6.203   0.782   0.292  0.9871 -5.0035  0.1740
 8221SOL    HW225797   6.199   0.763   0.142 -0.7715  0.6873 -0.7560
 8222SOL     OW25798   0.456   3.799   4.329  0.1903  0.8715  0.0347
 8222SOL    HW125799   0.432   3.891   4.332 -0.4528  0.7040  0.3775
 8222SOL    HW225800   0.439   3.767   4.418 -1.1722  0.0556 -0.4816
 8223SOL     OW25801   2.983   7.932   6.603  0.4034  0.3407  0.4247
 8223SOL    HW125802   2.989   7.839   6.580 -0.4715 -0.3059  2.5418
 8223SOL    HW225803   3.074   7.960   6.614  0.6760 -0.2483 -0.2405
 8224SOL     OW25804   5.193   6.517   4.120  0.5368 -0.4139  0.1366
 8224SOL    HW125805   5.216   6.508   4.212  1.1250 -0.0888  0.0270
 8224SOL    HW225806   5.144   6.600   4.116 -0.5867 -1.0411  0.3480
 8225SOL     OW25807   0.297   8.923   5.329  0.3004  0.0032  0.2248
 8225SOL    HW125808   0.266   8.905   5.240 -0.9684  1.0563  0.4152
 8225SOL    HW225809   0.245   8.864   5.384 -0.4007  0.7725  0.4190
 8226SOL     OW25810   1.043   7.681   7.848  0.6450  0.1882  0.0042
 8226SOL    HW125811   1.126   7.639   7.868  0.5269  0.7529  1.9016
 8226SOL    HW225812   1.066   7.755   7.791  1.1719 -0.8084 -1.1004
 8227SOL     OW25813   4.890   0.378   6.934  0.1775  0.1570  0.2868
 8227SOL    HW125814   4.879   0.450   6.996 -1.1443  0.5258 -0.3376
 8227SOL    HW225815   4.973   0.336   6.959  1.1339  2.0699  0.4914
 8228SOL     OW25816   4.472   6.276   3.204 -0.1835 -0.2942 -0.1574
 8228SOL    HW125817   4.402   6.211   3.214  0.7778 -1.1385  1.7455
 8228SOL    HW225818   4.532   6.236   3.142 -0.4774 -0.4059 -0.3737
 8229SOL     OW25819   8.284   7.392   2.323 -0.8724 -0.0238 -0.1885
 8229SOL    HW125820   8.330   7.475   2.315  0.2012 -0.6937 -1.2460
 8229SOL    HW225821   8.337   7.330   2.272 -2.2269 -1.1129 -0.3282
 8230SOL     OW25822   8.257   3.524   6.153  0.0401  0.1579  0.4013
 8230SOL    HW125823   8.308   3.524   6.072  0.4765 -2.4294  0.5733
 8230SOL    HW225824   8.184   3.583   6.135  0.1682 -0.2579 -1.8511
 8231SOL     OW25825   7.227   9.037   6.405  0.9615  0.1020 -0.3610
 8231SOL    HW125826   7.246   8.955   6.450 -0.1153 -0.0882 -0.2332
 8231SOL    HW225827   7.243   9.018   6.312  2.6095  0.3278 -0.1609
 8232SOL     OW25828   2.875   4.378   3.965 -0.2738 -0.1309 -0.5123
 8232SOL    HW125829   2.966   4.407   3.968 -0.3501  0.0910  1.5869
 8232SOL    HW225830   2.849   4.388   3.873  2.2641 -1.7515 -1.5132
 8233SOL     OW25831   3.148   3.008   1.248  0.0555  0.0931 -0.6060
 8233SOL    HW125832   3.152   2.912   1.240 -0.3687 -0.1665  1.6893
 8233SOL    HW225833   3.232   3.032   1.288  1.2980  1.0621 -3.4878
 8234SOL     OW25834   5.974   2.685   5.859  0.2464  0.1745  0.0019
 8234SOL    HW125835   5.944   2.670   5.769 -0.3597 -1.0605  0.3926
 8234SOL    HW225836   6.066   2.710   5.849  0.1916  0.0456 -0.9529
 8235SOL     OW25837   7.591   8.566   2.129  0.0136  0.1860 -0.2843
 8235SOL    HW125838   7.598   8.472   2.111  0.4610  0.6885 -3.0861
 8235SOL    HW225839   7.498   8.580   2.146  0.0707 -0.8603  1.0911
 8236SOL     OW25840   2.985   2.096   8.170  1.0761 -0.5189 -0.0811
 8236SOL    HW125841   2.967   2.126   8.081  0.9641 -0.5993 -0.0861
 8236SOL    HW225842   3.000   2.002   8.161  4.1676 -0.1132 -0.4973
 8237SOL     OW25843   7.498   0.713   9.023  0.1310  0.4277 -0.5429
 8237SOL    HW125844   7.584   0.687   8.989  0.8192  0.8501  0.8010
 8237SOL    HW225845   7.486   0.803   8.992  1.0744  1.0669  0.8184
 8238SOL     OW25846   8.718   5.350   2.171 -0.2415  0.1132  0.2643
 8238SOL    HW125847   8.756   5.275   2.218 -0.5512  0.8199  1.7053
 8238SOL    HW225848   8.626   5.350   2.197 -0.5338  0.2696 -0.7305
 8239SOL     OW25849   4.748   3.519   7.540  0.2553 -0.1892  0.3205
 8239SOL    HW125850   4.679   3.580   7.564 -0.2564 -1.4885  2.4631
 8239SOL    HW225851   4.704   3.452   7.486  0.4072  0.2913 -0.4148
 8240SOL     OW25852   2.068   5.967   4.860  0.5354  0.1240 -0.3230
 8240SOL    HW125853   2.118   5.982   4.779  3.0078 -1.0606  0.8627
 8240SOL    HW225854   2.023   5.884   4.845 -1.7070  1.4617 -1.6095
 8241SOL     OW25855   3.136   3.695   8.436 -0.1122 -0.6724 -0.1146
 8241SOL    HW125856   3.101   3.668   8.352  1.1247 -0.8628 -0.5939
 8241SOL    HW225857   3.192   3.622   8.464  1.5403  0.4277 -0.3855
 8242SOL     OW25858   8.023   6.446   8.097  0.0698 -0.7345  0.0996
 8242SOL    HW125859   8.033   6.351   8.091 -1.4514 -0.9100  0.1338
 8242SOL    HW225860   7.930   6.460   8.113  0.2483  0.7736 -0.0332
 8243SOL     OW25861   3.401   1.381   1.339 -0.1916 -0.7163 -0.8504
 8243SOL    HW125862   3.314   1.394   1.377  0.0558  0.8000 -0.7295
 8243SOL    HW225863   3.452   1.456   1.370  1.9986 -2.9156  1.3525
 8244SOL     OW25864   5.414   4.593   1.261 -0.9805 -0.3815  0.2245
 8244SOL    HW125865   5.444   4.575   1.351  1.3686  1.9556  0.0201
 8244SOL    HW225866   5.404   4.506   1.222  1.0463 -1.4404  1.8326
 8245SOL     OW25867   2.431   7.026   6.998 -0.0980  0.4577 -0.3825
 8245SOL    HW125868   2.523   7.008   6.976  0.1240  0.3487  0.5684
 8245SOL    HW225869   2.381   6.994   6.923  0.5435 -0.7589 -0.3170
 8246SOL     OW25870   1.587   8.048   0.067 -0.3742  0.2813 -0.5311
 8246SOL    HW125871   1.560   7.971   0.118  0.1046  1.1748  1.1506
 8246SOL    HW225872   1.508   8.102   0.063  0.7142  2.9572  4.5026
 8247SOL     OW25873   5.605   1.015   1.263 -0.1218 -0.2076 -0.5293
 8247SOL    HW125874   5.558   0.934   1.278  0.6054 -0.6421 -0.5315
 8247SOL    HW225875   5.607   1.026   1.168 -1.9612  0.8791 -0.4824
 8248SOL     OW25876   0.162   2.663   3.958 -0.1684  0.0161  0.9135
 8248SOL    HW125877   0.172   2.757   3.939 -0.4253  0.0236  0.8136
 8248SOL    HW225878   0.098   2.632   3.893 -0.4848 -0.1146  1.2832
 8249SOL     OW25879   0.748   4.564   4.293 -0.7160 -0.1837 -0.1497
 8249SOL    HW125880   0.679   4.534   4.352 -0.6671 -0.2236 -0.1133
 8249SOL    HW225881   0.721   4.530   4.207 -2.6635  2.7753 -0.8588
 8250SOL     OW25882   3.989   4.632   8.936 -0.0526  0.1050 -0.3421
 8250SOL    HW125883   4.036   4.598   9.012  1.5961  1.4454 -0.6790
 8250SOL    HW225884   3.941   4.708   8.970  0.8145  0.8023 -0.6344
 8251SOL     OW25885   3.958   7.850   5.144  0.2853  0.3892 -0.1017
 8251SOL    HW125886   3.877   7.901   5.153  0.3901  0.4987  0.2242
 8251SOL    HW225887   4.025   7.916   5.122 -0.1517  0.0366 -2.9310
 8252SOL     OW25888   0.967   4.927   8.057  0.1486 -0.6255  0.3489
 8252SOL    HW125889   0.912   4.856   8.091 -0.7283 -0.2785 -0.2863
 8252SOL    HW225890   0.962   4.995   8.125 -0.6313 -0.4038  0.0873
 8253SOL     OW25891   0.372   6.795   2.560 -0.0449 -0.3803 -0.4405
 8253SOL    HW125892   0.429   6.718   2.557  1.3406  0.4019  2.3844
 8253SOL    HW225893   0.287   6.761   2.587  0.4483 -0.9647  0.3854
 8254SOL     OW25894   2.598   5.067   0.308  0.3714 -0.0393  0.1323
 8254SOL    HW125895   2.549   5.002   0.258  0.7431 -1.3048  1.3374
 8254SOL    HW225896   2.607   5.141   0.249 -0.9245 -0.6986 -0.9466
 8255SOL     OW25897   2.600   2.073   1.464 -0.7314 -0.0489  0.3912
 8255SOL    HW125898   2.600   2.030   1.550  1.5419 -0.5414  0.2078
 8255SOL    HW225899   2.676   2.036   1.419 -0.4533  1.9638 -0.9221
 8256SOL     OW25900   8.048   3.600   3.945 -0.0663  0.2006  0.0699
 8256SOL    HW125901   8.079   3.574   3.858 -0.0317 -1.3236  0.5109
 8256SOL    HW225902   7.957   3.627   3.931 -0.3153 -0.7951 -0.3365
 8257SOL     OW25903   8.446   0.477   2.992 -0.0843  0.3249 -0.4461
 8257SOL    HW125904   8.400   0.402   3.030 -1.8408  1.3639 -0.4227
 8257SOL    HW225905   8.456   0.455   2.900  0.5425 -0.4550 -0.2043
 8258SOL     OW25906   0.334   7.635   2.601  0.4740 -0.0327 -0.5829
 8258SOL    HW125907   0.354   7.573   2.671 -2.9736 -0.4054  0.2399
 8258SOL    HW225908   0.419   7.652   2.559  2.1797 -2.1275  1.7273
 8259SOL     OW25909   1.009   7.553   0.050 -0.2144 -0.4473 -0.0270
 8259SOL    HW125910   1.051   7.473   0.019 -0.0845 -0.7418  0.9080
 8259SOL    HW225911   0.927   7.558  -0.000 -1.0895 -2.1071  1.1461
 8260SOL     OW25912   7.422   5.148   8.304  0.6316 -0.4948  0.0729
 8260SOL    HW125913   7.340   5.127   8.260 -0.6114  1.0022  1.4994
 8260SOL    HW225914   7.489   5.099   8.256 -1.2633 -3.0591 -0.1553
 8261SOL     OW25915   8.036   1.620   6.300  0.7253 -0.0105  0.3935
 8261SOL    HW125916   7.955   1.655   6.339  0.5508 -1.1366  1.1086
 8261SOL    HW225917   8.103   1.684   6.322 -0.0398  1.1747 -0.6013
 8262SOL     OW25918   5.093   8.134   1.560  0.2345  0.4099  0.1715
 8262SOL    HW125919   5.184   8.165   1.560  0.5194 -0.3629 -0.7944
 8262SOL    HW225920   5.101   8.039   1.549 -0.6546  0.1670  1.5043
 8263SOL     OW25921   6.406   1.710   9.099  0.0164  0.2235  0.6518
 8263SOL    HW125922   6.320   1.669   9.089  0.0258  0.4148 -0.3351
 8263SOL    HW225923   6.435   1.727   9.009 -1.0894  4.7156  0.9011
 8264SOL     OW25924   5.464   3.030   5.345  0.0943 -0.2100 -0.0964
 8264SOL    HW125925   5.397   3.024   5.413  0.0974 -0.8237 -0.1443
 8264SOL    HW225926   5.466   3.123   5.322 -1.2807 -0.2826 -0.6385
 8265SOL     OW25927   4.814   5.119   7.567  0.2788 -0.0791  0.1630
 8265SOL    HW125928   4.770   5.118   7.482  2.1472 -2.4403 -0.8984
 8265SOL    HW225929   4.890   5.062   7.556  1.6342  0.9886  2.9194
 8266SOL     OW25930   8.563   3.381   8.031 -0.0112 -0.4043  0.4984
 8266SOL    HW125931   8.614   3.429   7.966  0.0123  0.1373  0.9137
 8266SOL    HW225932   8.476   3.372   7.991  0.2843 -0.9791 -0.0407
 8267SOL     OW25933   2.495   4.071   8.310  0.4881 -0.2396  0.3000
 8267SOL    HW125934   2.452   4.156   8.320 -0.2255 -0.3463 -1.4035
 8267SOL    HW225935   2.565   4.088   8.246  0.9543 -0.7353  0.6789
 8268SOL     OW25936   4.567   6.824   8.890 -0.7498  0.2453  0.7866
 8268SOL    HW125937   4.626   6.757   8.924  2.3003  0.3990 -3.4257
 8268SOL    HW225938   4.621   6.903   8.884 -0.9649  0.3058 -3.6239
 8269SOL     OW25939   0.006   1.136   1.081  0.2307  0.6868  0.1196
 8269SOL    HW125940  -0.019   1.078   1.153  0.6765  0.0049 -0.2685
 8269SOL    HW225941  -0.054   1.211   1.089 -0.9927 -0.2577  0.0459
 8270SOL     OW25942   8.393   6.239   1.283  0.2910 -0.2837 -0.6320
 8270SOL    HW125943   8.461   6.218   1.347  0.6126  2.0933 -0.0852
 8270SOL    HW225944   8.428   6.315   1.235 -1.8710  0.9111 -0.4515
 8271SOL     OW25945   3.259   5.396   0.888 -0.0761  0.1756  0.0728
 8271SOL    HW125946   3.179   5.346   0.905 -1.1483  1.8276  0.0797
 8271SOL    HW225947   3.319   5.332   0.849 -0.9500 -1.3866  1.1626
 8272SOL     OW25948   2.566   4.544   7.268  0.6602 -0.3717  0.1087
 8272SOL    HW125949   2.583   4.613   7.331  1.8212 -1.0988  0.6390
 8272SOL    HW225950   2.555   4.590   7.184 -1.9662  0.6869  0.9445
 8273SOL     OW25951   4.539   0.659   9.059 -0.4502 -0.2656  0.1286
 8273SOL    HW125952   4.610   0.717   9.032  0.8171 -0.6833  2.3328
 8273SOL    HW225953   4.461   0.713   9.055  0.6894  1.6623  2.1325
 8274SOL     OW25954   2.782   6.069   0.818  0.3892  0.1977 -0.0727
 8274SOL    HW125955   2.767   6.070   0.724  0.3491 -0.5855 -0.0800
 8274SOL    HW225956   2.843   5.997   0.832 -1.6254 -1.4261  0.7754
 8275SOL     OW25957   3.604   7.531   8.724  0.8075  0.2453 -0.0255
 8275SOL    HW125958   3.573   7.595   8.788  2.3006  0.8366  0.1253
 8275SOL    HW225959   3.571   7.447   8.757  1.6100  0.5253  1.5687
 8276SOL     OW25960   7.494   8.475   3.723  0.2740 -0.2634 -0.9498
 8276SOL    HW125961   7.502   8.570   3.718 -0.1768 -0.2850 -2.5926
 8276SOL    HW225962   7.476   8.447   3.634  1.6552 -2.0288 -0.7478
 8277SOL     OW25963   6.994   8.704   6.292  0.1323 -0.0146  0.5517
 8277SOL    HW125964   6.958   8.756   6.364 -1.3483  1.4273 -1.1153
 8277SOL    HW225965   6.928   8.636   6.278  0.0483  0.1577  0.1054
 8278SOL     OW25966   6.513   3.393   0.592  0.0983 -0.1448  0.3780
 8278SOL    HW125967   6.589   3.421   0.540  0.3119 -0.4330  0.5308
 8278SOL    HW225968   6.506   3.459   0.661  0.8041 -0.6389  0.9332
 8279SOL     OW25969   6.557   5.868   2.764 -0.7141  0.1198  0.5047
 8279SOL    HW125970   6.646   5.853   2.732 -0.4669  0.7087  0.9116
 8279SOL    HW225971   6.501   5.826   2.699 -0.0875 -1.8003  1.1256
 8280SOL     OW25972   7.028   7.315   6.416  0.3342  0.3058 -0.0014
 8280SOL    HW125973   7.042   7.279   6.329 -0.6325  0.9106 -0.4191
 8280SOL    HW225974   7.067   7.403   6.413  0.5042  0.2430  0.2538
 8281SOL     OW25975   0.185   4.915   1.086 -0.4626  0.2058  0.2857
 8281SOL    HW125976   0.201   4.957   1.001 -1.6618  0.0731 -0.0205
 8281SOL    HW225977   0.265   4.866   1.104 -0.4518 -0.3232 -1.1094
 8282SOL     OW25978   0.780   6.538   6.732 -0.1635 -0.3247 -0.6362
 8282SOL    HW125979   0.787   6.605   6.800  0.9663  0.1092 -1.1563
 8282SOL    HW225980   0.732   6.581   6.661 -0.1887 -0.3392 -0.6278
 8283SOL     OW25981   7.475   4.900   2.570 -0.0450 -0.6034  0.2058
 8283SOL    HW125982   7.384   4.891   2.542 -0.0161  0.7981 -0.4178
 8283SOL    HW225983   7.491   4.822   2.623 -1.7907 -0.5936  0.8280
 8284SOL     OW25984   3.965   7.130   5.938 -0.2539 -0.3449  0.2911
 8284SOL    HW125985   4.011   7.214   5.947  0.8162 -1.0761  2.3899
 8284SOL    HW225986   3.957   7.098   6.027 -2.1781 -1.7222 -0.3153
 8285SOL     OW25987   5.282   5.880   2.662  0.2420 -0.4507  0.2460
 8285SOL    HW125988   5.364   5.921   2.690 -2.0525  2.2600  3.9725
 8285SOL    HW225989   5.274   5.802   2.717  1.0983 -1.8709 -1.5327
 8286SOL     OW25990   4.495   4.701   7.112 -0.3876  0.4555 -0.5948
 8286SOL    HW125991   4.428   4.709   7.180 -0.5860 -2.7719 -0.2609
 8286SOL    HW225992   4.461   4.754   7.039 -1.1523  2.3253  1.0295
 8287SOL     OW25993   7.118   0.514   3.584  0.1755 -0.1785  0.7463
 8287SOL    HW125994   7.082   0.580   3.524 -0.4555 -1.2404 -0.0862
 8287SOL    HW225995   7.071   0.528   3.666 -0.3720  0.0375  0.4037
 8288SOL     OW25996   3.669   7.619   6.688 -0.5682 -0.7082  0.0591
 8288SOL    HW125997   3.722   7.548   6.724  0.6007  0.5284  0.8362
 8288SOL    HW225998   3.581   7.603   6.723  0.2034 -0.4262  2.2424
 8289SOL     OW25999   8.055   7.058   2.167 -0.2639  0.1800  0.5194
 8289SOL    HW126000   8.033   6.972   2.202 -0.0574 -0.0944 -0.0262
 8289SOL    HW226001   8.106   7.040   2.088 -0.4436  0.8002  0.2572
 8290SOL     OW26002   1.524   8.778   0.228 -0.3830  0.2383  0.7562
 8290SOL    HW126003   1.570   8.720   0.167 -2.1636 -0.5703  0.0835
 8290SOL    HW226004   1.557   8.754   0.314  2.7083  1.8808  0.1698
 8291SOL     OW26005   3.431   0.760   2.253 -0.3060 -0.7381 -0.2611
 8291SOL    HW126006   3.459   0.764   2.162 -0.4497  0.0736 -0.2834
 8291SOL    HW226007   3.492   0.699   2.295  1.9757  1.4690 -0.1383
 8292SOL     OW26008   3.729   8.731   6.827 -0.4275  0.1530  0.1114
 8292SOL    HW126009   3.765   8.733   6.738  3.2776 -1.9589  1.3385
 8292SOL    HW226010   3.772   8.804   6.871 -0.1015 -0.4561  0.8209
 8293SOL     OW26011   4.616   2.455   5.089  0.3202  0.1128  0.1077
 8293SOL    HW126012   4.584   2.404   5.015  1.1385  0.9538 -0.8462
 8293SOL    HW226013   4.708   2.473   5.069  0.3771  0.9157  1.0041
 8294SOL     OW26014   5.129   7.910   3.435 -0.6720  0.1389  0.1664
 8294SOL    HW126015   5.159   7.918   3.344 -0.2468  0.6180  0.3391
 8294SOL    HW226016   5.144   7.997   3.472 -0.8068 -0.0657  0.7034
 8295SOL     OW26017   3.490   3.943   5.213  0.1386 -0.1831  0.0444
 8295SOL    HW126018   3.439   3.862   5.204 -1.5363  0.9312 -0.9864
 8295SOL    HW226019   3.524   3.939   5.302 -0.1780 -1.8612  0.1344
 8296SOL     OW26020   3.056   2.766   0.387  0.1707 -0.2114  0.1745
 8296SOL    HW126021   3.124   2.817   0.432  0.7182 -0.9400  0.1846
 8296SOL    HW226022   3.059   2.797   0.297 -0.4845  0.7871  0.4729
 8297SOL     OW26023   4.888   3.444   4.541  0.9304 -0.7561  0.6285
 8297SOL    HW126024   4.826   3.403   4.602  1.4734 -0.4283  1.4201
 8297SOL    HW226025   4.833   3.486   4.475  0.3079 -0.6546  1.2026
 8298SOL     OW26026   9.036   2.962   5.403  0.6358 -0.1734 -0.7724
 8298SOL    HW126027   9.033   3.031   5.468  1.4214 -2.4691  1.8961
 8298SOL    HW226028   8.954   2.971   5.354 -1.0069  0.4611  1.8822
 8299SOL     OW26029   7.031   0.660   4.077  0.0780 -0.2841  0.7181
 8299SOL    HW126030   7.116   0.684   4.112 -0.4114  2.7003  0.0970
 8299SOL    HW226031   6.975   0.650   4.154  0.5874 -0.6301  1.0478
 8300SOL     OW26032   6.805   1.503   0.378  0.0513  0.1626 -0.0862
 8300SOL    HW126033   6.728   1.558   0.366  0.2264  0.6248  0.8632
 8300SOL    HW226034   6.792   1.461   0.463  0.3155 -0.6315 -0.4278
 8301SOL     OW26035   0.088   5.399   1.927  0.4840 -0.6497 -0.2564
 8301SOL    HW126036   0.049   5.313   1.939 -0.5808 -0.0397  0.7652
 8301SOL    HW226037   0.032   5.459   1.975  1.7835  0.4894 -0.0767
 8302SOL     OW26038   2.325   0.646   7.422  0.2137  0.1607  0.6027
 8302SOL    HW126039   2.276   0.573   7.459  0.8993  0.0764  1.3791
 8302SOL    HW226040   2.268   0.721   7.432 -0.8059 -0.3659 -0.8684
 8303SOL     OW26041   5.027   6.373   1.067 -0.5667 -0.4029  0.2503
 8303SOL    HW126042   5.014   6.279   1.084 -3.3056 -0.2215 -0.4473
 8303SOL    HW226043   5.037   6.411   1.154 -0.8120 -1.1643  0.6228
 8304SOL     OW26044   1.474   6.412   4.491  0.4632  0.2292 -0.2433
 8304SOL    HW126045   1.440   6.418   4.581  0.8978  0.6393 -0.1044
 8304SOL    HW226046   1.505   6.322   4.483 -0.6660 -0.1681 -0.3794
 8305SOL     OW26047   3.063   5.673   1.941  0.2712  0.1381  0.3957
 8305SOL    HW126048   2.973   5.650   1.919 -0.3164  2.4285  0.1201
 8305SOL    HW226049   3.098   5.714   1.862  0.8002  1.2503  1.1761
 8306SOL     OW26050   6.803   0.013   0.557 -0.3776 -0.0175  0.3481
 8306SOL    HW126051   6.735  -0.054   0.553  1.5735 -2.2349  1.3044
 8306SOL    HW226052   6.789   0.055   0.642  0.3915 -1.6757  1.3607
 8307SOL     OW26053   3.022   2.667   4.990  0.1803 -0.4768 -0.1778
 8307SOL    HW126054   3.070   2.625   4.918 -0.0231 -2.3215  0.7097
 8307SOL    HW226055   3.069   2.749   5.005  0.8287 -0.5297 -1.7361
 8308SOL     OW26056   0.071   4.346   6.302  0.2427  1.1256  0.2239
 8308SOL    HW126057   0.106   4.322   6.216  2.2161  1.0921  0.9726
 8308SOL    HW226058   0.033   4.432   6.290 -1.0141  0.4288 -1.0342
 8309SOL     OW26059   6.220   1.647   2.202  0.7360  0.0888  0.4848
 8309SOL    HW126060   6.310   1.626   2.226  0.6765 -1.5410 -0.5957
 8309SOL    HW226061   6.216   1.633   2.107 -0.7655 -0.3180  0.5837
 8310SOL     OW26062   2.158   4.184   2.664  0.3851  0.1072 -0.8021
 8310SOL    HW126063   2.106   4.184   2.744 -0.3880  0.2136 -1.2994
 8310SOL    HW226064   2.094   4.186   2.593  1.0771  1.6601 -1.4233
 8311SOL     OW26065   1.736   1.652   6.860 -0.4557 -0.1116 -0.0426
 8311SOL    HW126066   1.714   1.602   6.782 -0.4250 -0.5072  0.1996
 8311SOL    HW226067   1.808   1.603   6.901  0.3581  0.7456 -0.4065
 8312SOL     OW26068   1.372   3.877   2.250  0.3611 -0.5970 -0.3001
 8312SOL    HW126069   1.286   3.914   2.232  0.1407 -0.6361  0.6170
 8312SOL    HW226070   1.367   3.787   2.217 -0.4238 -1.0421  0.9654
 8313SOL     OW26071   6.634   7.807   1.497  0.2796  0.3981 -0.3725
 8313SOL    HW126072   6.576   7.838   1.427  0.3267  0.0953 -0.5444
 8313SOL    HW226073   6.656   7.718   1.472 -0.5832 -0.1009  0.6026
 8314SOL     OW26074   6.449   1.588   8.378 -1.0122 -0.5562 -0.2996
 8314SOL    HW126075   6.465   1.517   8.440 -1.6206  0.0654  0.5902
 8314SOL    HW226076   6.477   1.667   8.423 -2.7989  0.0803 -0.2170
 8315SOL     OW26077   8.284   8.963   6.523  0.2260  0.0077 -0.4052
 8315SOL    HW126078   8.282   9.059   6.528 -1.6220 -0.0792  2.8622
 8315SOL    HW226079   8.208   8.940   6.470  2.4295  0.2428 -4.0470
 8316SOL     OW26080   3.187   8.032   0.375  0.2799 -0.8785 -0.0883
 8316SOL    HW126081   3.131   8.048   0.451 -0.3091 -1.0172 -0.4805
 8316SOL    HW226082   3.248   7.964   0.404  0.2764 -0.6915  0.3636
 8317SOL     OW26083   3.350   7.196   2.293  0.1272  0.6890  0.2018
 8317SOL    HW126084   3.254   7.203   2.296  0.1644  1.1519  0.3902
 8317SOL    HW226085   3.378   7.273   2.243  0.2926 -0.3890 -1.4301
 8318SOL     OW26086   4.722   7.142   0.062  0.1303  0.2708  0.2488
 8318SOL    HW126087   4.734   7.204   0.133  0.4794  1.2863 -0.6835
 8318SOL    HW226088   4.746   7.057   0.099  1.0190  0.8971  1.1236
 8319SOL     OW26089   5.467   3.574   0.239  0.9028  0.0139 -0.1939
 8319SOL    HW126090   5.507   3.525   0.310  0.6370  0.8778  0.5712
 8319SOL    HW226091   5.431   3.653   0.281 -2.6075 -1.1818 -0.6118
 8320SOL     OW26092   0.591   5.727   4.157 -0.1020  0.4044  0.6123
 8320SOL    HW126093   0.639   5.810   4.161 -0.9358  1.1471 -2.1987
 8320SOL    HW226094   0.505   5.751   4.123 -0.3063 -1.6254 -0.4304
 8321SOL     OW26095   6.149   1.220   4.986 -0.0367 -0.2788 -0.0222
 8321SOL    HW126096   6.202   1.220   5.066 -1.1660  0.2474  0.7457
 8321SOL    HW226097   6.197   1.162   4.926  0.2699 -1.5764  1.4037
 8322SOL     OW26098   3.740   7.073   7.022  0.2700  0.4204 -0.2973
 8322SOL    HW126099   3.791   7.152   7.004  0.6229  0.5811  1.3188
 8322SOL    HW226100   3.677   7.068   6.950  1.1990  1.3619 -1.2012
 8323SOL     OW26101   1.469   1.754   8.430 -0.4149  0.2177  0.1315
 8323SOL    HW126102   1.538   1.819   8.445 -0.6344  0.3244  0.6899
 8323SOL    HW226103   1.517   1.675   8.405 -0.2059  0.9832 -2.1071
 8324SOL     OW26104   0.042   7.853   6.677  0.3046  0.5267 -0.1274
 8324SOL    HW126105   0.087   7.816   6.601  0.5858 -0.9551  0.7081
 8324SOL    HW226106   0.075   7.943   6.683  0.2691  0.6730 -1.7282
 8325SOL     OW26107   3.132   6.832   0.441  0.1557  0.3712  0.2010
 8325SOL    HW126108   3.200   6.894   0.465  1.0907 -0.1607 -0.9864
 8325SOL    HW226109   3.178   6.760   0.399 -0.3956 -2.9563  4.5495
 8326SOL     OW26110   2.837   4.468   1.789 -0.3205 -0.2787  0.7895
 8326SOL    HW126111   2.933   4.467   1.795 -0.1387  1.4411 -0.9558
 8326SOL    HW226112   2.818   4.427   1.704 -1.0825 -0.0686  0.8513
 8327SOL     OW26113   0.665   1.829   0.373 -0.0477 -0.2758  0.1553
 8327SOL    HW126114   0.678   1.903   0.314  1.7557 -0.8228 -0.1740
 8327SOL    HW226115   0.624   1.762   0.318 -1.0391  0.1982  0.2837
 8328SOL     OW26116   3.902   1.870   1.860  0.1061 -0.0333  0.0956
 8328SOL    HW126117   3.978   1.888   1.915 -0.2266  2.3197 -0.1379
 8328SOL    HW226118   3.829   1.860   1.921  0.4722 -1.9508  0.2958
 8329SOL     OW26119   2.008   7.816   7.756  0.3716  0.1800 -0.6059
 8329SOL    HW126120   2.011   7.905   7.722  0.6899  0.7233  0.7807
 8329SOL    HW226121   2.093   7.779   7.732  0.3110  0.2986 -1.0229
 8330SOL     OW26122   5.904   0.771   0.333 -0.0502 -0.0691 -0.2441
 8330SOL    HW126123   5.851   0.736   0.262  0.4346  0.7021 -0.9981
 8330SOL    HW226124   5.994   0.769   0.300  0.4317 -1.2905  0.9866
 8331SOL     OW26125   8.329   4.248   3.584 -0.1452  0.2676  0.2238
 8331SOL    HW126126   8.236   4.226   3.572 -0.1599  1.5419 -2.7719
 8331SOL    HW226127   8.376   4.171   3.552 -0.1466  0.1447  0.5096
 8332SOL     OW26128   1.859   8.659   0.462  0.1516  0.1691  0.3842
 8332SOL    HW126129   1.897   8.742   0.489  0.5957  0.1543 -0.1685
 8332SOL    HW226130   1.880   8.599   0.534 -0.7658  0.6808  1.1010
 8333SOL     OW26131   2.411   6.171   5.755 -0.1045 -0.0213  0.4504
 8333SOL    HW126132   2.412   6.259   5.792  3.0186  0.5623 -0.6345
 8333SOL    HW226133   2.391   6.184   5.662 -0.0909 -0.4924  0.3778
 8334SOL     OW26134   1.368   0.039   5.827 -0.3095 -0.4268 -0.2846
 8334SOL    HW126135   1.428   0.111   5.847 -1.2102 -0.0758  1.4163
 8334SOL    HW226136   1.410  -0.038   5.864  1.0449 -0.9959 -2.8224
 8335SOL     OW26137   0.686   2.849   8.381  0.4203 -0.9026  0.1423
 8335SOL    HW126138   0.655   2.927   8.335 -0.6417 -0.7724  1.0478
 8335SOL    HW226139   0.629   2.778   8.350 -0.0681 -0.8822  0.9673
 8336SOL     OW26140   1.195   2.247   0.966 -0.0794 -0.2822 -0.0259
 8336SOL    HW126141   1.139   2.320   0.939 -1.8477 -2.1949 -1.8918
 8336SOL    HW226142   1.247   2.227   0.888  1.6115  0.0016  0.9885
 8337SOL     OW26143   7.260   3.041   0.745  0.2471 -0.3187 -0.3472
 8337SOL    HW126144   7.225   3.026   0.832 -0.4879  1.9070 -0.1989
 8337SOL    HW226145   7.192   3.009   0.685 -0.4248  0.5828 -0.0755
 8338SOL     OW26146   0.819   1.160   4.629 -0.9698 -0.2899  0.0638
 8338SOL    HW126147   0.864   1.221   4.570  3.1514 -1.9787  1.0956
 8338SOL    HW226148   0.774   1.216   4.693  0.4894  1.6368 -0.5049
 8339SOL     OW26149   5.458   5.383   2.859 -0.6667  0.4397  0.1827
 8339SOL    HW126150   5.545   5.401   2.895 -0.4488  2.2849 -1.1467
 8339SOL    HW226151   5.403   5.367   2.936  0.4413  1.1413  1.1534
 8340SOL     OW26152   4.910   3.416   2.161 -0.5217  0.3230  0.1568
 8340SOL    HW126153   4.895   3.477   2.232  0.6022 -0.0562  0.7495
 8340SOL    HW226154   5.004   3.424   2.141 -0.2197 -1.5677  0.6304
 8341SOL     OW26155   3.409   2.964   6.931 -0.0453  0.3239 -0.0417
 8341SOL    HW126156   3.382   2.983   6.842 -2.2350  0.3655  0.5761
 8341SOL    HW226157   3.383   2.873   6.946 -0.1645  0.4716  0.6957
 8342SOL     OW26158   6.681   8.305   0.629 -0.2429  0.1397 -0.0800
 8342SOL    HW126159   6.674   8.311   0.534  0.9211 -0.6714 -0.2452
 8342SOL    HW226160   6.774   8.286   0.645 -0.4798 -0.0412  1.1947
 8343SOL     OW26161   2.159   5.908   5.847 -0.1927  0.0695  0.0191
 8343SOL    HW126162   2.068   5.938   5.846 -0.1501  0.5863  3.0308
 8343SOL    HW226163   2.153   5.813   5.859 -0.2517 -0.3388 -2.5231
 8344SOL     OW26164   7.428   5.750   5.345 -0.4826 -0.9643 -0.4231
 8344SOL    HW126165   7.453   5.773   5.435  1.2046 -1.7176 -0.6612
 8344SOL    HW226166   7.345   5.702   5.355 -1.4627  0.8031  0.5000
 8345SOL     OW26167   7.284   0.090   3.602  0.2771 -0.3198 -0.0171
 8345SOL    HW126168   7.344   0.104   3.675  0.9630 -1.9568 -0.2325
 8345SOL    HW226169   7.341   0.091   3.525  0.0247 -1.7868 -0.2353
 8346SOL     OW26170   3.337   4.610   3.944 -0.0800  0.0439 -0.1180
 8346SOL    HW126171   3.341   4.681   4.008  1.3872 -1.1981  1.2722
 8346SOL    HW226172   3.345   4.653   3.859 -0.6680  1.6374  0.5902
 8347SOL     OW26173   6.628   5.711   5.336  0.1951  0.0545  0.2196
 8347SOL    HW126174   6.582   5.659   5.271  1.8985 -1.1246 -0.1129
 8347SOL    HW226175   6.587   5.686   5.419 -0.9015  0.3581 -0.2062
 8348SOL     OW26176   0.808   5.756   4.379 -0.1928  0.5534  0.6702
 8348SOL    HW126177   0.828   5.669   4.345 -0.8723  0.7433 -0.2335
 8348SOL    HW226178   0.853   5.816   4.321 -1.3413  0.8795  0.0895
 8349SOL     OW26179   1.676   2.052   3.164 -0.0358 -0.3330 -0.2199
 8349SOL    HW126180   1.626   2.025   3.240 -1.3756  1.6422 -0.3353
 8349SOL    HW226181   1.618   2.111   3.116  1.1981 -0.5798 -2.1610
 8350SOL     OW26182   6.905   0.730   8.543 -0.2825  0.3926 -0.1937
 8350SOL    HW126183   6.977   0.793   8.537 -0.0212  0.0539 -0.7360
 8350SOL    HW226184   6.915   0.676   8.464  0.0186 -0.8721  0.6856
 8351SOL     OW26185   6.165   5.639   3.091  0.0259 -0.2860  0.2655
 8351SOL    HW126186   6.201   5.665   3.176 -0.2664 -0.8077  0.5505
 8351SOL    HW226187   6.070   5.646   3.102  0.0070  0.9731 -0.4478
 8352SOL     OW26188   0.413   6.348   2.791  0.1720  0.0105  0.2285
 8352SOL    HW126189   0.331   6.357   2.840  0.4882  0.3627  0.7092
 8352SOL    HW226190   0.397   6.392   2.708 -0.1418  0.0275  0.2952
 8353SOL     OW26191   5.720   5.442   2.921  0.0689 -0.4119  0.0210
 8353SOL    HW126192   5.784   5.394   2.973 -1.6758 -1.8192  0.9457
 8353SOL    HW226193   5.740   5.419   2.831  0.5923 -1.1971  0.3288
 8354SOL     OW26194   4.777   6.527   1.134  0.7031  0.0330  0.2159
 8354SOL    HW126195   4.845   6.484   1.082  1.9349  1.5471  0.5003
 8354SOL    HW226196   4.824   6.593   1.184 -0.9105  0.6874  0.9086
 8355SOL     OW26197   4.227   8.932   1.119 -0.2603  0.1669 -0.7533
 8355SOL    HW126198   4.200   8.843   1.095 -0.0387  0.1958 -1.1127
 8355SOL    HW226199   4.230   8.979   1.036 -0.7821  0.6242 -0.5188
 8356SOL     OW26200   0.972   8.922   8.526  0.3796 -0.4876 -0.5379
 8356SOL    HW126201   0.929   8.983   8.467 -2.0954 -0.3311  1.2599
 8356SOL    HW226202   1.038   8.974   8.571  1.4973 -0.3404 -2.2878
 8357SOL     OW26203   0.487   1.507   6.509 -0.1187  0.1346 -0.3803
 8357SOL    HW126204   0.512   1.481   6.598 -3.0242 -1.8408  0.0180
 8357SOL    HW226205   0.510   1.599   6.504  0.5920  0.1953  2.2674
 8358SOL     OW26206   7.781   7.043   5.056  0.3051  0.0381 -0.1266
 8358SOL    HW126207   7.752   6.995   4.978 -1.0743  1.1249 -0.3238
 8358SOL    HW226208   7.811   7.127   5.022 -1.7770  1.1372  0.6094
 8359SOL     OW26209   3.054   0.619   8.360  0.3877  0.4290  0.3055
 8359SOL    HW126210   2.960   0.610   8.379  0.1521 -0.7901 -1.2452
 8359SOL    HW226211   3.060   0.699   8.307  0.3100  0.8311  0.8998
 8360SOL     OW26212   4.138   3.398   7.258  0.0077  0.4137 -0.8364
 8360SOL    HW126213   4.106   3.308   7.257  0.7136  0.1299  0.1325
 8360SOL    HW226214   4.082   3.445   7.196 -0.9860 -0.4760 -0.6310
 8361SOL     OW26215   6.956   6.058   3.288 -0.0172 -0.0303 -0.4025
 8361SOL    HW126216   6.897   6.119   3.332  0.9871  0.7721 -0.1293
 8361SOL    HW226217   7.020   6.114   3.244  0.3219 -0.8721 -1.0088
 8362SOL     OW26218   5.005   7.805   2.529  0.4112  0.1922  0.1432
 8362SOL    HW126219   5.027   7.761   2.447 -0.9449 -0.7856  0.2782
 8362SOL    HW226220   5.021   7.898   2.511  0.4621 -0.0467 -1.1123
 8363SOL     OW26221   8.294   9.101   1.114 -0.4101 -0.4710  0.2482
 8363SOL    HW126222   8.204   9.133   1.111  0.4348  2.0990 -1.0310
 8363SOL    HW226223   8.297   9.031   1.048 -1.3892 -0.3674  0.0850
 8364SOL     OW26224   0.771   2.708   0.189  0.0674  0.0306 -0.2573
 8364SOL    HW126225   0.829   2.707   0.113 -2.8825 -0.6179 -2.7052
 8364SOL    HW226226   0.755   2.801   0.206  1.9415  0.2247  0.6406
 8365SOL     OW26227   7.559   0.395   8.360  0.4024  0.1104  0.2740
 8365SOL    HW126228   7.556   0.328   8.429 -2.5856  0.0477  0.2167
 8365SOL    HW226229   7.611   0.466   8.397  2.4611 -1.5986  0.8843
 8366SOL     OW26230   9.059   7.823   7.244  0.2897  0.0936 -0.3800
 8366SOL    HW126231   8.997   7.814   7.316 -1.1657  1.7517 -1.3606
 8366SOL    HW226232   9.113   7.899   7.269 -0.7106  1.1565 -1.3169
 8367SOL     OW26233   4.590   5.836   4.608  0.5008  0.6165  0.4991
 8367SOL    HW126234   4.513   5.800   4.564  1.4117 -0.7032 -0.0923
 8367SOL    HW226235   4.571   5.930   4.617 -2.1055  0.0035  2.4212
 8368SOL     OW26236   3.130   4.818   1.519 -0.3848  0.4275  0.1102
 8368SOL    HW126237   3.171   4.903   1.504  0.7742 -0.0319  0.5778
 8368SOL    HW226238   3.102   4.820   1.610 -0.6520  0.4261  0.0286
 8369SOL     OW26239   7.085   5.106   0.073 -0.0986 -0.4171  0.3128
 8369SOL    HW126240   7.063   5.188   0.029  2.4000  0.4713  0.5116
 8369SOL    HW226241   7.178   5.093   0.053  0.5331 -1.2284  3.3635
 8370SOL     OW26242   1.863   6.950   5.635  0.1652 -0.2547 -0.0858
 8370SOL    HW126243   1.830   7.035   5.606  0.8273 -0.0606 -0.2789
 8370SOL    HW226244   1.939   6.933   5.580  2.3415  0.7885  2.3495
 8371SOL     OW26245   6.542   0.511   1.169  0.2852 -0.2846 -0.5362
 8371SOL    HW126246   6.572   0.457   1.242 -0.0561  1.6698  1.1431
 8371SOL    HW226247   6.621   0.533   1.121  0.6593 -0.7410 -0.1374
 8372SOL     OW26248   6.312   2.814   0.263 -0.3760 -0.0632  0.0402
 8372SOL    HW126249   6.291   2.849   0.176  0.4248 -0.1409 -0.1978
 8372SOL    HW226250   6.237   2.838   0.318 -0.1627  1.4181 -0.2805
 8373SOL     OW26251   1.654   5.647   4.555  0.5475 -0.5400  0.5195
 8373SOL    HW126252   1.624   5.578   4.615  0.2117 -1.5573 -0.7803
 8373SOL    HW226253   1.698   5.600   4.484  0.4431  0.5989 -0.3266
 8374SOL     OW26254   6.335   4.721   5.471 -0.1203  0.0704  0.6123
 8374SOL    HW126255   6.359   4.635   5.437 -0.4174 -0.6810  2.2360
 8374SOL    HW226256   6.287   4.762   5.399  0.1427 -1.0535 -0.2315
 8375SOL     OW26257   0.872   1.678   5.682 -0.0429 -0.3155 -0.3995
 8375SOL    HW126258   0.888   1.671   5.588 -1.4012 -0.2582 -0.6581
 8375SOL    HW226259   0.864   1.587   5.711 -0.8343 -0.3147 -0.5836
 8376SOL     OW26260   8.107   7.283   6.871  0.6903 -0.0733 -0.2418
 8376SOL    HW126261   8.095   7.376   6.851  2.5356  0.0364 -1.1483
 8376SOL    HW226262   8.019   7.248   6.881 -0.0237  1.9429  1.0213
 8377SOL     OW26263   3.711   2.031   0.096  0.2020 -0.6379 -0.5198
 8377SOL    HW126264   3.632   2.003   0.142  0.7247 -0.4267  0.5630
 8377SOL    HW226265   3.781   1.978   0.135  0.7162 -0.1950 -0.8243
 8378SOL     OW26266   3.270   1.198   8.613 -0.0287 -0.3869  0.0527
 8378SOL    HW126267   3.317   1.148   8.545 -0.5051 -0.5950 -0.1314
 8378SOL    HW226268   3.306   1.165   8.695  1.9251  1.2049 -0.0898
 8379SOL     OW26269   5.097   8.195   3.448  0.0847  0.4280  0.0745
 8379SOL    HW126270   5.089   8.246   3.368  0.2684 -0.9248 -0.8358
 8379SOL    HW226271   5.041   8.241   3.511 -0.5915  1.1356 -1.0035
 8380SOL     OW26272   5.248   5.985   7.601  0.1561  0.1106  0.5379
 8380SOL    HW126273   5.209   5.978   7.513  3.3222 -0.4034 -0.9527
 8380SOL    HW226274   5.275   5.895   7.621  1.5726  0.6240  0.9749
 8381SOL     OW26275   6.858   7.972   2.109  0.3759  0.0461 -0.7982
 8381SOL    HW126276   6.910   8.002   2.183 -1.3870  0.4160  0.3510
 8381SOL    HW226277   6.840   7.880   2.127  1.0110 -0.2130 -1.4364
 8382SOL     OW26278   2.388   1.775   6.242  0.6238 -0.1818 -0.5567
 8382SOL    HW126279   2.337   1.757   6.321  1.6085 -2.0154 -0.2806
 8382SOL    HW226280   2.335   1.837   6.192 -1.8569 -1.9575 -0.2926
 8383SOL     OW26281   5.286   1.703   1.247  0.2168  0.4493  0.1059
 8383SOL    HW126282   5.319   1.629   1.195  0.3054 -0.1854  1.0324
 8383SOL    HW226283   5.205   1.729   1.203  1.3013  1.2499 -1.5015
 8384SOL     OW26284   1.601   1.520   0.957  0.0561 -0.7249  0.1525
 8384SOL    HW126285   1.674   1.458   0.958  0.8520  0.1909  0.2483
 8384SOL    HW226286   1.610   1.566   0.873  0.5507  0.4714  0.8266
 8385SOL     OW26287   1.870   6.335   6.394  0.5588  0.3240  0.0823
 8385SOL    HW126288   1.918   6.252   6.387 -1.8780 -1.1237 -0.7038
 8385SOL    HW226289   1.870   6.354   6.487  0.5896 -0.9507  0.3688
 8386SOL     OW26290   1.846   5.392   4.968  0.2106 -0.6857 -0.2507
 8386SOL    HW126291   1.761   5.347   4.973 -0.4554  0.3963 -1.2483
 8386SOL    HW226292   1.841   5.444   4.887  1.7271 -0.3885 -0.1843
 8387SOL     OW26293   4.632   6.412   7.558 -0.0940  0.3226  0.0919
 8387SOL    HW126294   4.675   6.328   7.566 -2.5718 -1.1434 -0.8038
 8387SOL    HW226295   4.671   6.466   7.627  2.3860 -1.1325 -0.0722
 8388SOL     OW26296   5.579   8.615   2.967  0.3733  0.0180 -0.4933
 8388SOL    HW126297   5.604   8.624   3.059  1.2711  0.7768 -0.7931
 8388SOL    HW226298   5.656   8.578   2.924 -0.3117 -1.0726 -0.8223
 8389SOL     OW26299   8.367   0.277   2.326  0.1051 -0.3456 -0.3112
 8389SOL    HW126300   8.425   0.304   2.255 -0.0215 -0.5586 -0.4978
 8389SOL    HW226301   8.412   0.202   2.366  0.8330  0.6140  0.7003
 8390SOL     OW26302   8.790   6.676   4.261  0.2853  0.2044  0.1545
 8390SOL    HW126303   8.729   6.662   4.333  0.2188 -0.8515 -0.0813
 8390SOL    HW226304   8.750   6.629   4.187  0.2736  1.3883 -0.6154
 8391SOL     OW26305   3.927   3.755   6.620 -0.2123  0.3473 -0.1054
 8391SOL    HW126306   3.983   3.704   6.678 -1.0523 -0.4556  0.0175
 8391SOL    HW226307   3.934   3.712   6.535  0.4370  1.0824 -0.4348
 8392SOL     OW26308   3.996   3.251   0.076  0.2807  0.1348 -0.3740
 8392SOL    HW126309   3.975   3.316   0.143 -1.6797 -1.2612  0.4638
 8392SOL    HW226310   3.975   3.295  -0.007 -1.8743  0.3310  0.2160
 8393SOL     OW26311   8.102   1.183   0.986 -0.6378 -0.2235  0.0245
 8393SOL    HW126312   8.031   1.197   0.923 -0.8292  0.3016  0.3451
 8393SOL    HW226313   8.098   1.090   1.007  0.0895 -0.6251 -1.5188
 8394SOL     OW26314   2.245   6.983   4.732 -0.5840 -0.0668  0.9028
 8394SOL    HW126315   2.203   6.897   4.734 -0.0751 -0.3079  1.1786
 8394SOL    HW226316   2.275   6.993   4.641  0.3317 -0.6550  1.1295
 8395SOL     OW26317   4.136   6.396   7.461 -0.6033 -0.6973  0.1859
 8395SOL    HW126318   4.157   6.410   7.554  0.2790 -1.2011  0.0699
 8395SOL    HW226319   4.087   6.314   7.460 -2.1180  0.1580  0.3815
 8396SOL     OW26320   2.099   4.937   4.178  0.3437 -0.6326  0.1655
 8396SOL    HW126321   2.150   5.016   4.157 -0.9897  0.3474  0.4870
 8396SOL    HW226322   2.063   4.954   4.265 -2.5920 -0.1427 -1.0412
 8397SOL     OW26323   6.676   0.648   0.800 -0.1201 -0.1037  0.7154
 8397SOL    HW126324   6.689   0.591   0.724 -0.6483  0.1874  0.4028
 8397SOL    HW226325   6.621   0.719   0.768  1.1305  1.0019  0.9093
 8398SOL     OW26326   1.868   4.158   0.746  0.1458  0.1897 -0.5766
 8398SOL    HW126327   1.915   4.101   0.807 -0.2594  0.0732 -0.3688
 8398SOL    HW226328   1.825   4.098   0.686  1.1406  0.3161 -1.4447
 8399SOL     OW26329   3.734   4.197   6.859  0.0680 -0.2000 -0.2314
 8399SOL    HW126330   3.662   4.208   6.922  0.8934  0.3043  0.6482
 8399SOL    HW226331   3.754   4.104   6.862  1.0080  0.0304  1.3005
 8400SOL     OW26332   4.697   8.972   8.702  0.5537 -0.5149  0.1832
 8400SOL    HW126333   4.744   9.041   8.655  0.4433 -0.4411  0.1779
 8400SOL    HW226334   4.672   9.013   8.785  1.0771 -0.7655  0.4677
 8401SOL     OW26335   4.958   0.477   5.050  0.3880  0.2950 -0.1417
 8401SOL    HW126336   4.869   0.504   5.029  0.5053  0.0181 -1.0396
 8401SOL    HW226337   4.974   0.401   4.994  1.0313  0.0651  0.3425
 8402SOL     OW26338   4.871   2.765   0.304 -0.2436 -0.3304 -0.0077
 8402SOL    HW126339   4.927   2.831   0.345 -2.1640  0.5314  1.3715
 8402SOL    HW226340   4.782   2.793   0.324 -1.2150 -1.6215 -2.1536
 8403SOL     OW26341   5.628   4.633   4.032 -0.0992 -0.0638 -0.4719
 8403SOL    HW126342   5.556   4.570   4.024  0.4963 -0.7515 -0.5034
 8403SOL    HW226343   5.707   4.582   4.014  0.5861  0.2073  1.4761
 8404SOL     OW26344   6.040   8.061   8.571 -0.4317 -0.1001  0.1081
 8404SOL    HW126345   6.099   8.134   8.587 -0.4671 -0.0201 -0.1223
 8404SOL    HW226346   5.962   8.101   8.532  0.1380 -0.4264 -1.4305
 8405SOL     OW26347   2.010   2.217   4.631  0.4202  0.6188 -0.3746
 8405SOL    HW126348   2.077   2.216   4.562  0.6854  3.0915 -0.2583
 8405SOL    HW226349   1.930   2.243   4.586 -0.1349 -0.8206 -0.2498
 8406SOL     OW26350   8.061   0.943   6.714 -0.1862 -0.0148 -0.1551
 8406SOL    HW126351   8.146   0.987   6.727 -0.8161  1.6544 -1.4102
 8406SOL    HW226352   7.998   1.014   6.710 -1.9457 -1.2930  2.3862
 8407SOL     OW26353   6.050   6.393   4.239  0.8277 -0.3255  0.2005
 8407SOL    HW126354   6.069   6.360   4.151 -1.5010 -2.3153  0.3488
 8407SOL    HW226355   6.113   6.347   4.295  2.4505  1.0947 -0.3795
 8408SOL     OW26356   1.026   4.525   4.093  0.6708  0.3838  0.3965
 8408SOL    HW126357   0.938   4.493   4.071  0.6601 -0.0041  0.9733
 8408SOL    HW226358   1.018   4.620   4.088  0.4430  0.3260 -0.3888
 8409SOL     OW26359   2.820   7.555   0.489 -0.7251  0.0101 -0.1793
 8409SOL    HW126360   2.789   7.630   0.540  0.4991  0.2531  0.2428
 8409SOL    HW226361   2.763   7.553   0.412 -1.5516  0.6290  0.4002
 8410SOL     OW26362   4.447   3.107   7.423  0.2089  0.1731  0.3907
 8410SOL    HW126363   4.436   3.149   7.509 -0.5391  2.4328 -0.7252
 8410SOL    HW226364   4.524   3.150   7.385  0.4534 -0.7138 -0.1316
 8411SOL     OW26365   2.176   0.493   2.956  0.1008  0.4083 -0.2650
 8411SOL    HW126366   2.121   0.509   2.879 -0.6461  1.9853  0.5667
 8411SOL    HW226367   2.196   0.399   2.951 -1.4102  0.0988 -1.3979
 8412SOL     OW26368   2.806   8.076   0.511 -0.3806  0.0240 -0.2845
 8412SOL    HW126369   2.765   8.094   0.595 -0.4817 -1.9054  0.1227
 8412SOL    HW226370   2.881   8.136   0.507 -1.5219  1.5694  0.2308
 8413SOL     OW26371   6.182   0.636   7.429  0.3284  0.1610  0.3877
 8413SOL    HW126372   6.270   0.642   7.392  0.4124 -0.5117  0.4801
 8413SOL    HW226373   6.189   0.571   7.499 -0.3454 -0.2465  0.0855
 8414SOL     OW26374   2.987   6.193   5.328 -0.4468 -0.2493 -0.6655
 8414SOL    HW126375   2.909   6.240   5.355 -0.3850 -0.5175  0.0018
 8414SOL    HW226376   2.954   6.110   5.292 -0.4848 -0.2705 -0.5820
 8415SOL     OW26377   0.735   5.998   1.554 -0.3238  0.0328 -0.5881
 8415SOL    HW126378   0.787   6.021   1.477  0.3756 -0.8967 -0.4095
 8415SOL    HW226379   0.647   6.030   1.534  0.4810  2.4674 -0.5114
 8416SOL     OW26380   4.418   2.963   6.607  0.3262  0.0260 -0.2095
 8416SOL    HW126381   4.457   2.991   6.690 -1.3024 -0.3035  0.7178
 8416SOL    HW226382   4.453   2.876   6.591  1.3744  0.4671 -0.3755
 8417SOL     OW26383   2.247   8.093   1.984  0.0921 -0.2531  0.5480
 8417SOL    HW126384   2.180   8.134   2.039  0.6772  0.0838  1.0251
 8417SOL    HW226385   2.303   8.046   2.045  0.0389 -0.9078  0.1069
 8418SOL     OW26386   5.006   6.552   3.013 -0.1012  0.4437  0.4344
 8418SOL    HW126387   5.055   6.633   3.003  0.4512 -0.0071 -0.6462
 8418SOL    HW226388   4.964   6.560   3.099 -0.2413  1.9605  0.2561
 8419SOL     OW26389   5.516   9.020   7.434  0.0274  0.4232 -0.3367
 8419SOL    HW126390   5.488   8.930   7.416  2.3972 -0.0427 -2.2275
 8419SOL    HW226391   5.605   9.011   7.468 -0.1993  2.0189  0.7642
 8420SOL     OW26392   6.034   1.877   5.886  0.6986 -0.0664  0.0736
 8420SOL    HW126393   6.040   1.863   5.791  1.4717  0.9019 -0.0372
 8420SOL    HW226394   6.027   1.789   5.923 -2.5888 -0.4162 -1.0323
 8421SOL     OW26395   3.101   6.777   8.266  0.3122  0.2437  0.1981
 8421SOL    HW126396   3.153   6.800   8.190 -1.1944 -0.2927 -1.0380
 8421SOL    HW226397   3.144   6.821   8.339  1.6332  0.9809 -0.9910
 8422SOL     OW26398   3.059   4.204   8.451  0.5290  0.0129 -0.2577
 8422SOL    HW126399   3.078   4.112   8.465  1.1311  0.1919  0.1152
 8422SOL    HW226400   3.141   4.241   8.420  0.2050  0.3631 -0.7143
 8423SOL     OW26401   0.674   1.924   6.399 -0.1447 -0.1770  0.0338
 8423SOL    HW126402   0.655   1.985   6.470  2.6439 -0.4480  1.1333
 8423SOL    HW226403   0.599   1.866   6.396 -2.0117  2.0712  0.2525
 8424SOL     OW26404   2.370   2.640   3.533 -0.4006 -0.2055  0.0650
 8424SOL    HW126405   2.311   2.568   3.552  1.9950 -2.2849  0.1291
 8424SOL    HW226406   2.395   2.674   3.619 -0.0556 -0.6013  0.1257
 8425SOL     OW26407   6.893   8.289   7.219  0.0561 -0.1926 -0.0162
 8425SOL    HW126408   6.852   8.225   7.277 -0.5867 -0.6405 -0.9227
 8425SOL    HW226409   6.898   8.369   7.271 -0.8522 -0.4700  0.5336
 8426SOL     OW26410   2.262   3.786   1.255  0.2104  0.2015 -0.5450
 8426SOL    HW126411   2.350   3.786   1.217 -0.7182 -1.6057 -2.9418
 8426SOL    HW226412   2.235   3.878   1.254  1.3660  0.5510 -1.5442
 8427SOL     OW26413   2.497   7.755   7.204 -0.4803  0.6285 -0.3860
 8427SOL    HW126414   2.491   7.696   7.279 -1.0958  1.1812  0.0172
 8427SOL    HW226415   2.508   7.698   7.129 -0.2029  0.0462  0.0876
 8428SOL     OW26416   1.955   1.652   3.463 -0.5298 -0.0448  0.4623
 8428SOL    HW126417   1.914   1.569   3.489 -2.9167  0.1332 -2.2057
 8428SOL    HW226418   1.910   1.718   3.516 -1.5609 -0.1309 -0.2814
 8429SOL     OW26419   8.813   0.715   0.546 -0.1046 -0.0525  0.1454
 8429SOL    HW126420   8.743   0.693   0.608  0.3857 -1.2647  0.2950
 8429SOL    HW226421   8.767   0.740   0.466 -0.7208 -0.3286  0.4088
 8430SOL     OW26422   0.741   4.750   5.737 -0.2025 -0.6834 -0.5258
 8430SOL    HW126423   0.786   4.729   5.655  0.0089 -1.1922 -0.2863
 8430SOL    HW226424   0.663   4.799   5.709 -1.4561 -2.9373 -1.2578
 8431SOL     OW26425   4.048   2.443   4.901 -0.3192  0.3142  0.0422
 8431SOL    HW126426   4.022   2.514   4.959 -0.8311 -0.3634  0.6717
 8431SOL    HW226427   4.140   2.459   4.882 -0.3588  0.9881  0.3921
 8432SOL     OW26428   5.283   4.808   6.190  0.3995  0.3753  0.2297
 8432SOL    HW126429   5.249   4.897   6.194 -0.2358  0.1234  0.5475
 8432SOL    HW226430   5.209   4.753   6.214  0.9904 -0.1986  0.7778
 8433SOL     OW26431   4.095   4.299   7.708 -0.1915  0.2842 -0.0521
 8433SOL    HW126432   4.119   4.306   7.800 -1.3950 -2.0956  0.5336
 8433SOL    HW226433   4.043   4.377   7.691 -0.3975  0.5143  1.4547
 8434SOL     OW26434   5.223   6.869   2.735  0.1651  0.3705  0.0952
 8434SOL    HW126435   5.272   6.906   2.661  2.9462 -1.1396  1.0482
 8434SOL    HW226436   5.240   6.928   2.808 -1.4914  1.1303 -0.0798
 8435SOL     OW26437   6.921   8.493   4.537 -0.4268 -0.7158 -0.0755
 8435SOL    HW126438   6.869   8.422   4.575 -0.3868 -0.6040  0.1877
 8435SOL    HW226439   6.857   8.561   4.516 -0.4110 -0.6591  0.0621
 8436SOL     OW26440   1.083   0.269   6.671 -0.0877  0.4834 -0.9862
 8436SOL    HW126441   1.046   0.330   6.734  0.9147 -0.0578  0.1658
 8436SOL    HW226442   1.064   0.182   6.708 -1.8226  0.0250 -2.7731
 8437SOL     OW26443   2.177   2.834   8.834 -0.2160 -0.1568 -0.2957
 8437SOL    HW126444   2.227   2.815   8.914 -0.3940 -1.3977 -0.4502
 8437SOL    HW226445   2.242   2.869   8.773 -0.4263  2.7133  0.9848
 8438SOL     OW26446   1.264   5.858   6.274 -0.1303  1.1082 -0.6691
 8438SOL    HW126447   1.273   5.940   6.225 -1.1066  1.8431  0.3362
 8438SOL    HW226448   1.187   5.816   6.235  0.1234  0.8574 -0.9058
 8439SOL     OW26449   5.557   5.590   1.435 -0.4739  0.0317 -0.2057
 8439SOL    HW126450   5.499   5.555   1.366 -1.0680 -0.0590  0.3302
 8439SOL    HW226451   5.497   5.617   1.505  0.1176  0.2327  0.2284
 8440SOL     OW26452   0.809   8.365   2.953 -0.0563 -0.2093  0.4238
 8440SOL    HW126453   0.756   8.392   2.878 -0.2551 -0.5438  0.4385
 8440SOL    HW226454   0.836   8.276   2.932  1.0151  0.1704  0.1464
 8441SOL     OW26455   3.165   1.384   3.583  0.1272 -0.0812  0.2843
 8441SOL    HW126456   3.252   1.423   3.574 -0.7365  1.8491 -0.3054
 8441SOL    HW226457   3.164   1.312   3.520  0.9035  0.6550 -0.6031
 8442SOL     OW26458   0.343   2.556   7.479 -0.1830  0.2124  0.1040
 8442SOL    HW126459   0.327   2.650   7.489  4.3656  1.5747 -2.8193
 8442SOL    HW226460   0.389   2.531   7.559 -1.0902  0.4635  0.7289
 8443SOL     OW26461   5.805   6.562   0.912  0.1959 -0.6269 -0.2240
 8443SOL    HW126462   5.805   6.553   0.817  0.7778  0.7832 -0.3826
 8443SOL    HW226463   5.898   6.563   0.936  0.0611 -2.1750  0.5209
 8444SOL     OW26464   1.237   5.246   0.737 -0.2300 -0.1396  0.6268
 8444SOL    HW126465   1.205   5.173   0.789 -1.9065  0.0761 -0.0428
 8444SOL    HW226466   1.176   5.253   0.664  0.9277  0.8111 -0.3006
 8445SOL     OW26467   5.297   8.557   3.098  0.2120 -0.7979 -0.0853
 8445SOL    HW126468   5.356   8.549   3.023  0.2923 -0.0781 -0.1097
 8445SOL    HW226469   5.281   8.651   3.105  1.6868 -0.6358  1.9345
 8446SOL     OW26470   6.692   7.053   2.658  0.0669  0.4407  0.4061
 8446SOL    HW126471   6.607   7.009   2.649  1.0444 -1.4294 -0.1866
 8446SOL    HW226472   6.696   7.078   2.751 -1.0400  0.3953  0.4839
 8447SOL     OW26473   8.218   6.708   4.665 -0.7510  0.7677 -0.3129
 8447SOL    HW126474   8.219   6.760   4.584 -2.5974 -0.7064 -1.3502
 8447SOL    HW226475   8.311   6.698   4.687 -0.1250  0.5667 -2.7002
 8448SOL     OW26476   4.414   4.368   3.239  0.2536  0.3177 -0.0722
 8448SOL    HW126477   4.353   4.333   3.304 -1.1510  2.2562 -0.2688
 8448SOL    HW226478   4.469   4.293   3.215 -0.6648 -0.9821  1.6649
 8449SOL     OW26479   1.056   8.561   2.204 -0.3580  0.1335 -0.2792
 8449SOL    HW126480   1.051   8.528   2.115  0.3338 -1.6796  0.2905
 8449SOL    HW226481   1.107   8.641   2.198  0.1208 -0.2421 -1.4375
 8450SOL     OW26482   5.670   4.218   4.695  0.4973 -0.0119  0.7780
 8450SOL    HW126483   5.644   4.296   4.744 -1.1207 -1.3529  2.1991
 8450SOL    HW226484   5.686   4.250   4.606  0.0803  1.9620  1.3656
 8451SOL     OW26485   4.538   7.166   6.682 -0.7002  0.3717  0.1322
 8451SOL    HW126486   4.613   7.191   6.628 -0.5537 -0.4302 -0.0453
 8451SOL    HW226487   4.462   7.176   6.625 -0.6092  0.0954 -0.0345
 8452SOL     OW26488   7.012   6.661   2.469  0.4316 -0.2805  0.6322
 8452SOL    HW126489   7.099   6.670   2.431  0.5203 -0.9527  0.6664
 8452SOL    HW226490   6.973   6.748   2.461  0.3255 -0.4722 -1.2746
 8453SOL     OW26491   4.575   1.372   0.800 -0.3570  0.0475 -0.3719
 8453SOL    HW126492   4.669   1.386   0.809 -0.2375 -0.8892 -0.0284
 8453SOL    HW226493   4.536   1.458   0.817  0.2855 -0.0721  2.0348
 8454SOL     OW26494   0.642   7.219   4.096 -0.0189 -0.2870 -0.1108
 8454SOL    HW126495   0.573   7.213   4.162  0.1020 -0.5501 -0.0104
 8454SOL    HW226496   0.631   7.142   4.041 -0.4923  0.2329 -0.7636
 8455SOL     OW26497   3.922   3.249   3.059 -0.0419 -0.2830 -0.6521
 8455SOL    HW126498   3.988   3.179   3.059  1.2604  0.9155 -0.3638
 8455SOL    HW226499   3.907   3.268   3.151  0.5797  0.6952 -0.7425
 8456SOL     OW26500   7.651   3.077   3.294 -0.0525 -0.8682 -0.1857
 8456SOL    HW126501   7.646   3.122   3.210 -1.3789 -0.9106 -0.1500
 8456SOL    HW226502   7.591   3.003   3.284 -1.0265 -0.2825  1.1443
 8457SOL     OW26503   5.045   0.610   0.666  0.5418 -0.6723 -0.1666
 8457SOL    HW126504   4.988   0.630   0.592  1.8539 -1.2090 -1.3874
 8457SOL    HW226505   5.069   0.518   0.653  1.6169 -0.4747  0.3360
 8458SOL     OW26506   1.840   5.020   0.856  0.5947 -0.3431  0.0305
 8458SOL    HW126507   1.864   4.927   0.859 -1.0689 -0.9692 -2.3146
 8458SOL    HW226508   1.858   5.046   0.765  0.4509  1.4658  0.4824
 8459SOL     OW26509   0.690   4.083   6.729  0.9301 -0.7449 -0.1163
 8459SOL    HW126510   0.681   3.987   6.724  0.5566 -0.7300  0.2712
 8459SOL    HW226511   0.771   4.101   6.682 -0.8878 -0.9088 -3.6845
 8460SOL     OW26512   8.877   5.847   1.246 -0.1121  0.2306  0.4826
 8460SOL    HW126513   8.899   5.863   1.338  2.6540  1.0330 -0.2012
 8460SOL    HW226514   8.794   5.893   1.232 -0.1984  0.7154  2.3883
 8461SOL     OW26515   2.454   6.406   4.243  0.4606 -0.2533 -0.1263
 8461SOL    HW126516   2.409   6.342   4.188  0.7959 -1.2684  0.7508
 8461SOL    HW226517   2.547   6.385   4.234  0.7063  1.0847 -1.0048
 8462SOL     OW26518   3.007   8.204   0.166  0.0838 -0.1755  0.0497
 8462SOL    HW126519   3.051   8.172   0.245 -0.2171  0.3041  0.4182
 8462SOL    HW226520   3.075   8.253   0.119  0.7075 -1.7646 -0.7991
 8463SOL     OW26521   8.263   8.877   8.706 -0.7246 -0.5368 -0.2513
 8463SOL    HW126522   8.324   8.937   8.749 -2.5902  1.0156  0.3677
 8463SOL    HW226523   8.301   8.863   8.619  1.0244 -0.4919  0.4491
 8464SOL     OW26524   2.956   1.332   3.877 -0.3979  0.8802  0.1373
 8464SOL    HW126525   2.974   1.390   3.802  0.7763  1.9707  1.2117
 8464SOL    HW226526   3.014   1.258   3.865 -2.5207 -0.6172 -1.7148
 8465SOL     OW26527   4.678   2.997   6.820 -0.3731  0.1415  0.2495
 8465SOL    HW126528   4.762   2.958   6.844 -0.2133 -1.1498 -2.0871
 8465SOL    HW226529   4.701   3.074   6.769 -0.6206  0.2107  0.2405
 8466SOL     OW26530   3.699   0.349   5.162  0.0722  0.3145 -0.6821
 8466SOL    HW126531   3.779   0.312   5.124  0.0828 -0.7857  0.3521
 8466SOL    HW226532   3.701   0.322   5.253 -2.7990 -2.1525 -1.1796
 8467SOL     OW26533   7.789   8.545   8.611  0.0483 -0.1402  0.3271
 8467SOL    HW126534   7.873   8.577   8.579  0.2199  1.2114  1.9935
 8467SOL    HW226535   7.804   8.452   8.630  0.9001 -0.1245 -0.2479
 8468SOL     OW26536   2.011   2.943   4.554  0.3628 -0.3648 -0.1557
 8468SOL    HW126537   2.013   2.926   4.459  0.3965 -1.9106  0.1080
 8468SOL    HW226538   2.103   2.940   4.580  0.4401  0.9250 -0.1884
 8469SOL     OW26539   2.463   3.382   2.359 -0.3454 -0.4565  0.3187
 8469SOL    HW126540   2.532   3.446   2.374  0.0266 -1.0441  1.1404
 8469SOL    HW226541   2.488   3.338   2.277 -1.5601  1.6647 -1.3209
 8470SOL     OW26542   4.254   7.275   4.490  0.0664 -0.3008  0.0673
 8470SOL    HW126543   4.208   7.359   4.498  0.7260  0.0393  0.3652
 8470SOL    HW226544   4.269   7.265   4.396  2.0741  1.0890  0.1622
 8471SOL     OW26545   3.340   6.593   1.504  0.6140 -0.0461  0.8309
 8471SOL    HW126546   3.309   6.519   1.452  0.7025  1.5796 -1.7403
 8471SOL    HW226547   3.324   6.567   1.594  0.8989 -3.2770  0.0768
 8472SOL     OW26548   5.590   4.164   1.936 -0.3260 -0.3817 -0.2478
 8472SOL    HW126549   5.601   4.156   1.842 -0.6307 -1.6178 -0.2083
 8472SOL    HW226550   5.507   4.118   1.954  0.8343 -2.2124  0.8554
 8473SOL     OW26551   0.415   3.479   7.113 -0.5334  0.0044 -0.4639
 8473SOL    HW126552   0.439   3.513   7.027  1.2017  0.4478  0.1667
 8473SOL    HW226553   0.442   3.387   7.110  2.4231  0.7522  0.6022
 8474SOL     OW26554   7.332   8.980   6.812 -0.2349 -0.7620  0.1904
 8474SOL    HW126555   7.369   8.892   6.815 -1.1484 -1.1456  0.5129
 8474SOL    HW226556   7.365   9.023   6.891  0.8356 -0.5359 -0.3503
 8475SOL     OW26557   8.478   4.030   4.691  0.1358  0.2505  0.4753
 8475SOL    HW126558   8.562   4.006   4.731  0.4409  0.0692 -0.2600
 8475SOL    HW226559   8.484   3.997   4.601 -1.0681 -0.5117  0.6591
 8476SOL     OW26560   0.853   1.495   1.666 -0.3945 -0.8964  0.4262
 8476SOL    HW126561   0.772   1.511   1.617 -0.6151  0.4620  1.1825
 8476SOL    HW226562   0.891   1.582   1.679 -0.0457 -1.2731  2.1668
 8477SOL     OW26563   5.533   4.334   7.313  0.2553  0.2729  0.1920
 8477SOL    HW126564   5.609   4.347   7.369  0.9651  0.7383 -0.8592
 8477SOL    HW226565   5.517   4.239   7.315  1.4463  0.0481 -0.3232
 8478SOL     OW26566   0.904   6.828   8.128 -0.0445  0.8328 -0.4375
 8478SOL    HW126567   0.927   6.803   8.038  1.7609  1.2066 -0.1165
 8478SOL    HW226568   0.811   6.847   8.124 -0.1349  0.2210 -2.0945
 8479SOL     OW26569   1.442   0.998   6.060 -0.2873  0.2723 -0.2421
 8479SOL    HW126570   1.391   0.938   6.115  1.9651 -1.8028 -0.2170
 8479SOL    HW226571   1.530   0.995   6.097  0.3430  2.1546 -1.4409
 8480SOL     OW26572   2.890   7.088   3.649 -0.0669  0.3843 -0.1073
 8480SOL    HW126573   2.881   7.175   3.608  0.2126  0.7606  0.6114
 8480SOL    HW226574   2.860   7.027   3.582  0.6401  0.9642 -0.9775
 8481SOL     OW26575   3.515   4.866   1.859 -0.4619  0.2480  0.9865
 8481SOL    HW126576   3.477   4.800   1.917 -1.2427 -1.7536 -1.6011
 8481SOL    HW226577   3.447   4.881   1.793 -0.0126  3.1950  1.0614
 8482SOL     OW26578   3.130   0.190   7.208 -0.5202 -0.4082 -0.2571
 8482SOL    HW126579   3.106   0.257   7.144 -1.2086 -1.0064 -0.6365
 8482SOL    HW226580   3.222   0.169   7.188  0.2248  1.5199  0.8654
 8483SOL     OW26581   1.303   6.045   5.772 -0.0055 -0.1317  0.2591
 8483SOL    HW126582   1.376   6.013   5.824  0.4815 -1.9908 -1.4378
 8483SOL    HW226583   1.263   5.966   5.735 -2.2095  0.9051  0.2457
 8484SOL     OW26584   6.453   7.815   6.003 -0.4701 -0.0639 -0.5424
 8484SOL    HW126585   6.539   7.823   5.961  0.1436  1.7312  0.9468
 8484SOL    HW226586   6.428   7.724   5.988  0.8549 -0.1708 -2.5506
 8485SOL     OW26587   9.102   4.169   3.367  0.0461  0.2171 -0.1539
 8485SOL    HW126588   9.043   4.195   3.297 -0.3773 -1.7432 -0.5806
 8485SOL    HW226589   9.190   4.180   3.330 -0.1088  0.8848 -0.3438
 8486SOL     OW26590   4.371   5.330   0.842  0.1936 -0.2492  0.0119
 8486SOL    HW126591   4.432   5.369   0.904 -0.4492  0.6244  0.1147
 8486SOL    HW226592   4.406   5.353   0.756 -0.2838  0.7390  0.0719
 8487SOL     OW26593   1.474   1.854   1.062 -0.5763 -1.0319  0.4263
 8487SOL    HW126594   1.396   1.811   1.027 -0.2134 -1.9367  0.6775
 8487SOL    HW226595   1.503   1.912   0.992 -3.7241  2.4905  1.7483
 8488SOL     OW26596   9.081   0.266   8.423 -0.2034 -0.1418 -0.4186
 8488SOL    HW126597   9.114   0.350   8.391  1.5768 -0.6177  0.0354
 8488SOL    HW226598   9.126   0.200   8.370  2.3065 -0.9272  2.3630
 8489SOL     OW26599   7.626   7.935   8.904 -0.0002 -0.1337 -0.2709
 8489SOL    HW126600   7.588   7.875   8.840 -1.3461 -2.2290  2.3393
 8489SOL    HW226601   7.703   7.890   8.938 -0.3066  0.1404  0.8364
 8490SOL     OW26602   5.185   6.954   0.023  0.1512  0.7739  0.2612
 8490SOL    HW126603   5.217   6.981  -0.063  1.1833  0.5943  0.5653
 8490SOL    HW226604   5.212   6.862   0.030  1.2023  1.1179  1.2520
 8491SOL     OW26605   0.689   2.966   2.492  0.5111  0.3580 -0.7844
 8491SOL    HW126606   0.750   3.021   2.444 -0.3606  0.7815 -1.4192
 8491SOL    HW226607   0.740   2.887   2.512  1.1768  0.5690 -1.5692
 8492SOL     OW26608   8.045   3.985   8.967 -0.0008  0.4394  0.1100
 8492SOL    HW126609   8.074   4.056   8.909 -3.4290  1.1855 -0.8911
 8492SOL    HW226610   8.057   3.905   8.916 -2.3309  1.0210 -1.4979
 8493SOL     OW26611   6.283   1.924   8.733 -0.0483  0.2920  0.0178
 8493SOL    HW126612   6.265   1.869   8.809  1.2525  2.2576  1.8840
 8493SOL    HW226613   6.360   1.884   8.693  0.2387  0.1301  0.7112
 8494SOL     OW26614   1.623   0.060   3.063 -0.8231 -0.5990 -0.2232
 8494SOL    HW126615   1.620   0.002   2.987  0.8186  0.7169 -1.3557
 8494SOL    HW226616   1.715   0.085   3.070 -1.3139  1.0399  0.8724
 8495SOL     OW26617   0.584   5.924   1.260 -0.2214  0.2929  0.2805
 8495SOL    HW126618   0.613   5.980   1.188  1.2348  0.1986  0.7578
 8495SOL    HW226619   0.543   5.984   1.322 -0.7450  0.4920 -0.2573
 8496SOL     OW26620   5.055   5.558   8.951  0.2988 -0.1271 -0.2195
 8496SOL    HW126621   4.985   5.497   8.928 -2.2001  2.4497 -0.0403
 8496SOL    HW226622   5.097   5.579   8.867 -1.3206  0.6562 -0.9028
 8497SOL     OW26623   6.875   7.521   2.488  0.0665  0.5408  0.1580
 8497SOL    HW126624   6.853   7.432   2.515 -0.7812 -0.1982 -2.6839
 8497SOL    HW226625   6.811   7.576   2.534  0.7493 -0.2254  2.1253
 8498SOL     OW26626   6.858   3.140   1.413  0.7949  0.1035  0.1458
 8498SOL    HW126627   6.949   3.170   1.404  0.5933  0.7406  0.2440
 8498SOL    HW226628   6.808   3.195   1.353  0.6203 -0.9554 -0.7071
 8499SOL     OW26629   1.700   3.995   2.819 -0.1321 -0.5208 -0.0913
 8499SOL    HW126630   1.752   4.053   2.764  0.9305 -2.7253 -1.5766
 8499SOL    HW226631   1.686   3.917   2.765 -1.9425 -1.4565  1.5851
 8500SOL     OW26632   1.223   1.556   4.458  0.1934 -0.2353 -0.0355
 8500SOL    HW126633   1.226   1.492   4.528 -2.0344 -1.0703 -0.6004
 8500SOL    HW226634   1.188   1.507   4.382  0.7972  1.0552 -1.1895
 8501SOL     OW26635   0.927   2.966   6.316  0.3861 -0.0242  0.0627
 8501SOL    HW126636   0.832   2.957   6.304  0.3338 -0.3864  0.6726
 8501SOL    HW226637   0.964   2.887   6.279  0.3554 -0.3844  0.7800
 8502SOL     OW26638   7.003   4.889   7.332 -0.2347  0.6232 -0.4241
 8502SOL    HW126639   7.058   4.955   7.289  3.2641 -2.1044 -0.5207
 8502SOL    HW226640   6.980   4.828   7.262 -0.2524 -0.2549  0.3338
 8503SOL     OW26641   2.973   5.025   4.708  0.2418 -0.3002  0.2572
 8503SOL    HW126642   3.048   4.966   4.705  1.0237  0.5783  1.7537
 8503SOL    HW226643   2.927   5.009   4.625  1.7845 -1.2006 -0.4635
 8504SOL     OW26644   5.001   4.402   3.399  0.4754  0.3286  0.6472
 8504SOL    HW126645   4.933   4.339   3.378  0.3655  0.0807  1.6908
 8504SOL    HW226646   4.979   4.479   3.347  0.2420 -0.2599 -0.1388
 8505SOL     OW26647   8.049   6.436   6.340 -0.7439  0.1222  0.5288
 8505SOL    HW126648   7.989   6.392   6.280  0.1892 -1.0938  0.4607
 8505SOL    HW226649   8.002   6.439   6.423 -0.8501 -0.9387  0.5089
 8506SOL     OW26650   2.087   7.344   5.037  0.3982 -0.3150 -0.1518
 8506SOL    HW126651   2.132   7.425   5.013  1.2353 -0.2803  1.4295
 8506SOL    HW226652   2.078   7.297   4.954 -0.1457  1.3893 -1.1098
 8507SOL     OW26653   8.570   2.654   5.990 -0.2446  0.1265  0.0774
 8507SOL    HW126654   8.560   2.748   6.005  2.3933  0.8824 -2.0703
 8507SOL    HW226655   8.665   2.640   5.992 -0.5577 -2.4173 -0.1396
 8508SOL     OW26656   0.978   2.052   0.855 -0.2071  0.1827  0.1163
 8508SOL    HW126657   0.970   1.990   0.782 -0.3515 -0.2866  0.5272
 8508SOL    HW226658   0.960   2.138   0.816  0.7532  0.0739 -0.6317
 8509SOL     OW26659   1.140   7.283   4.998  0.3368 -0.9874 -0.6129
 8509SOL    HW126660   1.057   7.239   5.017 -0.0824 -0.4251 -1.1132
 8509SOL    HW226661   1.172   7.240   4.918 -0.2842 -0.1118 -1.3449
 8510SOL     OW26662   5.978   3.438   0.049 -0.0678  0.3493 -0.8693
 8510SOL    HW126663   6.027   3.484   0.117 -1.4507  0.7411 -0.0927
 8510SOL    HW226664   5.937   3.508  -0.003  0.8991  0.0508 -2.0696
 8511SOL     OW26665   3.623   4.465   4.056  0.0541 -0.2651  0.2857
 8511SOL    HW126666   3.550   4.527   4.048 -0.1632  0.0590  3.5304
 8511SOL    HW226667   3.697   4.510   4.015 -1.1599 -0.0146 -1.8021
 8512SOL     OW26668   5.916   3.048   2.635 -0.2704  0.1444  0.1248
 8512SOL    HW126669   5.953   3.021   2.551  4.6162 -0.0746  1.9963
 8512SOL    HW226670   5.866   2.972   2.666  0.5357 -0.9666 -1.2182
 8513SOL     OW26671   2.725   3.575   5.289  0.1491  0.5725  0.0551
 8513SOL    HW126672   2.652   3.612   5.339  0.2867 -1.0874  1.5947
 8513SOL    HW226673   2.732   3.631   5.212 -1.4708  1.9555  0.8417
 8514SOL     OW26674   0.635   0.646   6.816 -0.4549  0.1785 -0.6232
 8514SOL    HW126675   0.698   0.664   6.746 -0.9121  1.8212 -0.6372
 8514SOL    HW226676   0.684   0.663   6.897  0.1176 -1.8538 -0.4650
 8515SOL     OW26677   0.075   2.386   0.294 -0.1766  0.7770  0.0853
 8515SOL    HW126678   0.045   2.476   0.310 -0.9689  0.4743  0.3387
 8515SOL    HW226679   0.023   2.332   0.354  0.0065  0.1046 -0.3506
 8516SOL     OW26680   0.400   3.051   6.427 -0.6673 -0.1630 -0.3703
 8516SOL    HW126681   0.471   3.098   6.470 -3.0484  2.0058  1.4684
 8516SOL    HW226682   0.382   2.977   6.484  0.1480 -0.8061 -0.9200
 8517SOL     OW26683   6.734   6.326   7.166  0.2256 -0.1152 -0.1121
 8517SOL    HW126684   6.797   6.259   7.194 -0.1747  0.0945  1.3832
 8517SOL    HW226685   6.717   6.306   7.075  1.6429 -0.8356 -0.2544
 8518SOL     OW26686   1.082   1.112   4.961 -0.7793  0.0806  0.3246
 8518SOL    HW126687   1.004   1.167   4.961 -0.3758  0.7191  2.3868
 8518SOL    HW226688   1.048   1.022   4.964 -1.4238  0.2839 -0.5613
 8519SOL     OW26689   7.752   8.768   0.147 -0.3467 -0.1295 -0.2836
 8519SOL    HW126690   7.687   8.733   0.085 -0.8504  2.0246 -1.0576
 8519SOL    HW226691   7.823   8.799   0.091 -0.2058  0.6213  0.2951
 8520SOL     OW26692   8.454   6.751   0.044  0.1425  0.6413 -0.3358
 8520SOL    HW126693   8.380   6.700   0.011  1.3953 -0.3431 -1.7684
 8520SOL    HW226694   8.472   6.714   0.131 -1.6928  1.6535  0.5422
 8521SOL     OW26695   3.214   2.485   5.152 -0.2461 -0.1600 -0.1298
 8521SOL    HW126696   3.240   2.419   5.088 -3.1727 -0.7919 -0.8254
 8521SOL    HW226697   3.155   2.544   5.104 -0.1589  1.1353  1.2540
 8522SOL     OW26698   0.876   4.176   8.061 -0.3683 -0.1338  0.0047
 8522SOL    HW126699   0.931   4.159   7.985  0.5745 -2.5673  1.1533
 8522SOL    HW226700   0.843   4.090   8.087 -3.2654  1.0064  0.4909
 8523SOL     OW26701   1.469   3.555   3.178 -0.1176 -0.5623  0.2871
 8523SOL    HW126702   1.446   3.620   3.244  2.2054  1.0291 -0.3481
 8523SOL    HW226703   1.461   3.602   3.094 -0.4254 -1.7333 -0.3613
 8524SOL     OW26704   4.000   8.933   0.074  0.7533 -0.2310  0.2342
 8524SOL    HW126705   3.967   8.916   0.162  1.6295  0.7772  0.7901
 8524SOL    HW226706   4.086   8.890   0.073  0.1982 -1.3445 -0.5857
 8525SOL     OW26707   0.865   3.206   2.956 -0.0426 -0.5414  0.2939
 8525SOL    HW126708   0.887   3.127   2.907 -0.6510 -1.0523  0.8252
 8525SOL    HW226709   0.934   3.214   3.021  2.0918  1.4333 -2.0325
 8526SOL     OW26710   0.803   3.699   8.053  0.5230 -0.0639 -0.0946
 8526SOL    HW126711   0.837   3.695   7.964 -1.0703  0.0724 -0.7422
 8526SOL    HW226712   0.754   3.617   8.063 -1.6551  1.1032 -0.3975
 8527SOL     OW26713   0.414   2.055   8.572  0.8802  0.0333  0.3354
 8527SOL    HW126714   0.393   2.013   8.488 -1.3700  1.6027  0.0082
 8527SOL    HW226715   0.472   2.127   8.548  0.7741  0.0758  0.2013
 8528SOL     OW26716   7.636   0.578   5.255 -0.7575  0.2961 -0.2950
 8528SOL    HW126717   7.568   0.546   5.196 -0.7112  1.5416 -1.0624
 8528SOL    HW226718   7.607   0.550   5.342 -0.4090 -2.2865 -0.9244
 8529SOL     OW26719   0.006   6.816   6.865 -0.2680  0.4038 -0.7302
 8529SOL    HW126720   0.019   6.779   6.952 -1.1318  1.5308 -0.1031
 8529SOL    HW226721   0.060   6.762   6.808  1.7071  0.7091  0.7479
 8530SOL     OW26722   3.218   5.846   4.129  0.2533  0.1851 -0.0240
 8530SOL    HW126723   3.297   5.877   4.084 -1.1606  1.0448 -2.1165
 8530SOL    HW226724   3.154   5.836   4.059 -2.2057  1.8148  1.8255
 8531SOL     OW26725   2.771   2.806   3.149 -0.3084  0.5176 -0.1408
 8531SOL    HW126726   2.736   2.837   3.065  0.4173  0.1039 -0.6090
 8531SOL    HW226727   2.865   2.803   3.135 -0.2771 -0.7671  0.2752
 8532SOL     OW26728   2.592   4.405   7.910 -0.1787 -0.3545 -0.1745
 8532SOL    HW126729   2.614   4.313   7.899 -2.5532 -0.8714 -1.1777
 8532SOL    HW226730   2.638   4.449   7.838  0.9313 -0.7190  0.2886
 8533SOL     OW26731   5.800   8.055   5.456 -0.5221 -0.1010 -0.4278
 8533SOL    HW126732   5.814   8.135   5.507  3.3009 -0.5344 -0.4554
 8533SOL    HW226733   5.806   8.084   5.365  0.8387 -0.3606 -0.4378
 8534SOL     OW26734   5.270   8.416   1.411 -0.1379  0.1622  0.6445
 8534SOL    HW126735   5.347   8.460   1.374 -1.4309  0.1745 -2.3200
 8534SOL    HW226736   5.197   8.472   1.386 -1.4050 -1.4345  0.6664
 8535SOL     OW26737   1.528   6.496   2.003 -0.0805 -0.2879  0.1448
 8535SOL    HW126738   1.578   6.575   1.981 -1.4005  0.3029 -0.8650
 8535SOL    HW226739   1.535   6.440   1.926 -0.4281 -0.4930  0.2586
 8536SOL     OW26740   5.790   2.028   0.465 -0.1101 -0.0741  0.6309
 8536SOL    HW126741   5.778   1.933   0.464  1.1356 -0.2565  1.4749
 8536SOL    HW226742   5.840   2.045   0.545  2.2742  0.9564 -0.9861
 8537SOL     OW26743   2.415   1.537   6.678 -0.3281 -0.2007  0.5586
 8537SOL    HW126744   2.457   1.572   6.600  1.1040 -1.0949  0.8893
 8537SOL    HW226745   2.464   1.576   6.751  0.0516 -1.3860  0.9522
 8538SOL     OW26746   1.079   3.416   5.395 -0.2427  0.0985  0.2157
 8538SOL    HW126747   1.015   3.369   5.448 -0.7893  0.4671 -0.1054
 8538SOL    HW226748   1.133   3.463   5.459  0.4479 -1.1211  0.5472
 8539SOL     OW26749   3.848   8.667   2.444 -0.4408  0.1808  0.1991
 8539SOL    HW126750   3.802   8.588   2.472  0.4676 -1.1381 -1.7849
 8539SOL    HW226751   3.841   8.666   2.348  0.7964  1.7557  0.0514
 8540SOL     OW26752   0.430   6.129   6.804 -0.7086 -0.3810 -0.1370
 8540SOL    HW126753   0.484   6.171   6.738 -1.3879 -0.4929 -0.7686
 8540SOL    HW226754   0.458   6.038   6.804  0.9134  0.0464  1.3793
 8541SOL     OW26755   4.326   4.806   7.312  0.1872 -0.0790  0.5427
 8541SOL    HW126756   4.241   4.782   7.276  0.0261  0.0769  0.8144
 8541SOL    HW226757   4.307   4.879   7.370  0.4778 -0.1732  0.7573
 8542SOL     OW26758   5.894   2.797   7.001  0.0048 -0.2258  0.0675
 8542SOL    HW126759   5.910   2.775   7.093  0.6576 -1.8523 -0.3902
 8542SOL    HW226760   5.918   2.718   6.953 -1.0959  0.3111 -1.4544
 8543SOL     OW26761   6.098   6.016   3.575  0.2698  0.4734 -0.6599
 8543SOL    HW126762   6.155   6.069   3.631 -0.7272 -0.2613  1.1462
 8543SOL    HW226763   6.158   5.961   3.524  1.2158  1.0237 -0.1676
 8544SOL     OW26764   2.240   6.975   8.918  0.2935  0.0741  0.0677
 8544SOL    HW126765   2.304   6.908   8.892  0.0455 -0.1939  0.1520
 8544SOL    HW226766   2.218   7.020   8.836 -2.6081 -2.5746 -0.7753
 8545SOL     OW26767   3.884   3.553   8.988 -0.1032  0.3222  0.1216
 8545SOL    HW126768   3.818   3.601   8.938  0.4147  1.0732  0.1400
 8545SOL    HW226769   3.967   3.571   8.943  0.3558  0.8959  1.1441
 8546SOL     OW26770   8.114   1.261   1.400  0.3967  0.2343  0.0495
 8546SOL    HW126771   8.074   1.317   1.466 -0.2458 -0.3824  0.2025
 8546SOL    HW226772   8.103   1.172   1.435  0.6699 -0.0430 -0.5590
 8547SOL     OW26773   2.327   2.209   6.907 -0.3822  0.2319  0.3957
 8547SOL    HW126774   2.276   2.129   6.898  1.0725 -0.8077  1.0285
 8547SOL    HW226775   2.351   2.233   6.817  0.2671 -0.7893  0.2847
 8548SOL     OW26776   7.941   0.327   8.262  0.0506 -0.1978 -0.1265
 8548SOL    HW126777   8.007   0.394   8.281 -0.4813  0.5365 -0.8479
 8548SOL    HW226778   7.866   0.351   8.317  0.5296 -1.3408  1.1127
 8549SOL     OW26779   6.860   5.127   2.371 -0.0931 -0.5240 -0.2464
 8549SOL    HW126780   6.907   5.087   2.298  0.2001 -0.3335 -0.1669
 8549SOL    HW226781   6.915   5.109   2.447  0.7533  1.1604 -0.3995
 8550SOL     OW26782   7.459   8.690   7.704 -0.0379  0.6510 -0.0651
 8550SOL    HW126783   7.443   8.709   7.611  0.8771 -2.0829 -0.8634
 8550SOL    HW226784   7.544   8.729   7.722 -0.7368  2.2441  0.0382
 8551SOL     OW26785   3.554   8.155   4.045 -0.0796 -0.1069 -0.3802
 8551SOL    HW126786   3.621   8.181   4.108 -0.9455  3.0092 -0.5691
 8551SOL    HW226787   3.516   8.074   4.081  0.8220  0.4637  1.9968
 8552SOL     OW26788   6.746   5.223   0.643  0.3027 -0.2377  0.2985
 8552SOL    HW126789   6.704   5.281   0.707  0.1054 -1.9561  1.8212
 8552SOL    HW226790   6.822   5.273   0.612 -0.4745  1.2531  0.6804
 8553SOL     OW26791   3.814   0.329   3.429 -0.4718  0.3321 -0.3611
 8553SOL    HW126792   3.837   0.397   3.365 -1.2065 -0.1562 -1.1581
 8553SOL    HW226793   3.772   0.260   3.378 -0.6429 -0.2881  0.5833
 8554SOL     OW26794   2.825   9.035   5.808 -0.2316 -0.2758  0.1018
 8554SOL    HW126795   2.825   9.121   5.765  0.3544 -1.1799 -1.8160
 8554SOL    HW226796   2.878   9.048   5.887  0.8332  0.8778 -0.7543
 8555SOL     OW26797   8.075   4.235   7.930  0.1775 -0.3991 -0.1512
 8555SOL    HW126798   8.141   4.180   7.974  0.9604 -0.0226 -0.8306
 8555SOL    HW226799   8.126   4.297   7.878 -0.6869 -1.2966 -2.1919
 8556SOL     OW26800   7.250   7.651   2.763  0.2790 -0.5038 -0.4424
 8556SOL    HW126801   7.229   7.630   2.671  2.7883  1.1668 -1.5113
 8556SOL    HW226802   7.255   7.566   2.806 -0.4445 -1.3781 -1.9933
 8557SOL     OW26803   5.498   4.586   2.011  0.6412  0.1604 -0.1053
 8557SOL    HW126804   5.443   4.515   2.043 -0.6899  0.3621 -1.7849
 8557SOL    HW226805   5.587   4.550   2.008  0.2716 -0.8388  0.7109
 8558SOL     OW26806   5.130   4.452   8.043  0.0885 -0.3996  0.3049
 8558SOL    HW126807   5.224   4.441   8.051  0.1811  0.5855  0.6371
 8558SOL    HW226808   5.100   4.371   8.002  0.9624 -1.0872  0.9920
 8559SOL     OW26809   3.570   1.028   2.361 -0.0120 -0.2674 -0.2543
 8559SOL    HW126810   3.565   1.113   2.318 -0.0910 -0.3451 -0.3990
 8559SOL    HW226811   3.606   0.970   2.294 -1.6789 -0.7603 -0.7572
 8560SOL     OW26812   6.577   6.108   1.360 -0.0707 -0.0878 -0.1657
 8560SOL    HW126813   6.651   6.124   1.419 -0.4508  0.3750  0.1906
 8560SOL    HW226814   6.610   6.044   1.298  0.4431 -0.3339  0.3518
 8561SOL     OW26815   3.647   1.011   1.464 -0.1979 -0.0742  0.6148
 8561SOL    HW126816   3.690   1.090   1.430  1.1897 -1.3801 -0.8286
 8561SOL    HW226817   3.556   1.020   1.437  0.4167 -0.0202 -1.6714
 8562SOL     OW26818   2.429   3.291   6.541  0.5336 -0.2215 -0.1927
 8562SOL    HW126819   2.483   3.361   6.503 -1.6483  1.6449 -0.0507
 8562SOL    HW226820   2.442   3.217   6.483  1.9192  0.6868 -1.1187
 8563SOL     OW26821   4.085   5.487   1.580  0.2324 -0.3872 -0.0825
 8563SOL    HW126822   4.121   5.478   1.668 -0.4052 -0.4695  0.1736
 8563SOL    HW226823   4.049   5.401   1.560 -1.1337  0.0903  0.2587
 8564SOL     OW26824   4.629   6.414   8.632 -0.3029 -0.1072  0.6623
 8564SOL    HW126825   4.546   6.424   8.678 -1.4209  0.0997 -1.2955
 8564SOL    HW226826   4.619   6.332   8.583  1.8809 -1.7621  2.7107
 8565SOL     OW26827   6.160   0.354   4.654  0.5451 -0.2650 -0.1191
 8565SOL    HW126828   6.095   0.387   4.717  1.9249 -0.1114  1.2918
 8565SOL    HW226829   6.224   0.308   4.708  1.7332 -0.2226 -1.4386
 8566SOL     OW26830   8.282   8.476   2.599  0.0173 -0.3649 -0.2493
 8566SOL    HW126831   8.299   8.566   2.628  1.2747 -0.7207  0.1986
 8566SOL    HW226832   8.198   8.481   2.554 -0.5603  0.7944  0.8794
 8567SOL     OW26833   3.417   3.051   8.452 -0.0445 -0.0335  0.4328
 8567SOL    HW126834   3.366   3.064   8.532 -0.3164  0.3199  0.2080
 8567SOL    HW226835   3.508   3.049   8.481 -0.1386  0.1238  0.7450
 8568SOL     OW26836   1.759   5.038   7.205 -0.3418  1.0344  0.2938
 8568SOL    HW126837   1.829   5.100   7.227  1.5017 -0.8670  0.0949
 8568SOL    HW226838   1.763   5.030   7.110  1.5942 -1.5989  0.4713
 8569SOL     OW26839   6.179   5.339   5.558  0.5351 -0.1919  0.8963
 8569SOL    HW126840   6.093   5.340   5.600 -0.2862  1.3743 -0.7183
 8569SOL    HW226841   6.240   5.364   5.627 -0.5065  0.3297  1.6486
 8570SOL     OW26842   7.843   4.176   6.846 -0.4387  0.6420 -0.3788
 8570SOL    HW126843   7.878   4.235   6.779  0.0924  0.8228  0.0479
 8570SOL    HW226844   7.755   4.207   6.862  0.0538  1.7381  0.3046
 8571SOL     OW26845   1.897   6.644   6.867 -0.0717 -0.3530 -0.1252
 8571SOL    HW126846   1.989   6.631   6.889  0.6335 -1.0160 -3.0480
 8571SOL    HW226847   1.894   6.732   6.829 -0.4328 -0.6957 -0.9125
 8572SOL     OW26848   8.654   5.434   1.899 -0.3791 -0.7013 -0.0595
 8572SOL    HW126849   8.619   5.430   1.988 -1.6880 -1.6124 -0.5869
 8572SOL    HW226850   8.603   5.370   1.850  2.3397 -2.4851 -0.8075
 8573SOL     OW26851   7.678   3.637   6.737 -0.4844 -0.0014  0.0500
 8573SOL    HW126852   7.664   3.665   6.827 -0.3767  0.1761  0.0123
 8573SOL    HW226853   7.703   3.545   6.744  0.2391  0.2029  0.2554
 8574SOL     OW26854   4.817   3.771   8.724  0.1569  0.3054  0.4110
 8574SOL    HW126855   4.765   3.702   8.766 -2.4940  2.8579  1.6901
 8574SOL    HW226856   4.775   3.785   8.639  2.0663 -1.0443 -0.8355
 8575SOL     OW26857   5.230   7.347   5.029 -0.2762  0.0678  0.0251
 8575SOL    HW126858   5.264   7.276   4.975  0.2589  0.1893  0.1952
 8575SOL    HW226859   5.296   7.415   5.024 -0.4765  0.2964  0.3941
 8576SOL     OW26860   6.978   4.975   2.829 -0.6408 -0.1117 -0.8344
 8576SOL    HW126861   6.995   5.066   2.804  1.3280 -0.6558 -1.6914
 8576SOL    HW226862   6.884   4.963   2.813 -1.0640  1.9126 -0.1455
 8577SOL     OW26863   9.031   1.277   0.713  0.2202 -0.0377  0.3608
 8577SOL    HW126864   9.009   1.184   0.716 -0.6326  0.1256 -0.3171
 8577SOL    HW226865   8.979   1.317   0.782  1.1365 -0.1491  1.1407
 8578SOL     OW26866   8.503   0.455   2.044  0.8825 -0.1885  0.0338
 8578SOL    HW126867   8.410   0.467   2.028  1.0755 -0.6332 -1.6034
 8578SOL    HW226868   8.515   0.478   2.136 -0.9408 -0.8031  0.4563
 8579SOL     OW26869   4.647   4.580   1.005 -0.2350 -0.0393 -0.2561
 8579SOL    HW126870   4.634   4.655   0.948  0.7364  0.7366  0.5059
 8579SOL    HW226871   4.579   4.589   1.072  0.7252  0.9665  0.6233
 8580SOL     OW26872   0.336   3.768   5.966 -0.0216 -0.0552  0.2823
 8580SOL    HW126873   0.265   3.832   5.973  0.2089  0.4167 -1.3983
 8580SOL    HW226874   0.383   3.775   6.050 -0.3913  1.4993  0.3899
 8581SOL     OW26875   1.276   5.550   4.057 -0.8606 -0.2711 -0.3118
 8581SOL    HW126876   1.270   5.464   4.014 -1.5590 -0.7684  0.7255
 8581SOL    HW226877   1.274   5.530   4.150  1.2051  0.7499 -0.0024
 8582SOL     OW26878   1.770   1.197   4.409  0.7809 -0.2729  0.2853
 8582SOL    HW126879   1.794   1.259   4.478  0.3987  0.6683 -0.4107
 8582SOL    HW226880   1.824   1.119   4.427  0.5237 -0.1361  1.7599
 8583SOL     OW26881   4.903   3.375   1.026 -0.1734 -0.2200 -0.1225
 8583SOL    HW126882   4.919   3.429   0.949  0.3863  1.3618  1.0413
 8583SOL    HW226883   4.937   3.289   1.003  1.7252  0.7026 -0.9983
 8584SOL     OW26884   5.781   4.173   7.789  0.8650 -0.3809 -0.3556
 8584SOL    HW126885   5.801   4.115   7.863 -1.5043 -0.1108  0.5999
 8584SOL    HW226886   5.856   4.233   7.784  2.2745 -2.0252  0.1347
 8585SOL     OW26887   3.120   8.926   0.994  0.6208 -0.0196 -0.4263
 8585SOL    HW126888   3.117   8.969   1.079 -0.6379 -0.3491 -0.2822
 8585SOL    HW226889   3.178   8.981   0.941  0.7045  0.6753  0.3729
 8586SOL     OW26890   6.194   2.452   5.050  0.0070 -0.0531 -0.1774
 8586SOL    HW126891   6.161   2.481   4.966  0.1740  0.6727 -0.0023
 8586SOL    HW226892   6.264   2.514   5.071  0.0473 -0.2951  0.4397
 8587SOL     OW26893   0.299   5.752   8.507 -0.0987  0.3769 -0.3888
 8587SOL    HW126894   0.315   5.811   8.581 -1.2061  0.5309 -0.2485
 8587SOL    HW226895   0.231   5.693   8.538  0.3691 -0.4085 -0.8400
 8588SOL     OW26896   7.793   6.006   2.052 -0.0385  0.1069 -0.3414
 8588SOL    HW126897   7.861   5.995   1.985  1.0209 -0.4386  0.7665
 8588SOL    HW226898   7.735   6.074   2.018  0.1815 -0.5146 -2.0193
 8589SOL     OW26899   5.662   1.212   2.123 -0.1431  0.5933  0.3763
 8589SOL    HW126900   5.589   1.184   2.068  2.2361  2.2833 -4.1707
 8589SOL    HW226901   5.703   1.131   2.153 -0.8582 -0.4965 -1.4795
 8590SOL     OW26902   2.404   3.027   0.738  0.1100  0.1888 -0.1489
 8590SOL    HW126903   2.395   2.984   0.823 -0.0199  2.5330  1.1085
 8590SOL    HW226904   2.496   3.015   0.714 -0.4388 -2.8282 -1.0813
 8591SOL     OW26905   2.846   4.376   6.648 -0.1688 -0.4422  0.3767
 8591SOL    HW126906   2.885   4.414   6.569 -1.4197 -0.7501 -0.4174
 8591SOL    HW226907   2.893   4.418   6.721  0.4630  0.4322 -0.5148
 8592SOL     OW26908   0.654   8.009   1.495  0.3920  0.1278 -0.3499
 8592SOL    HW126909   0.634   7.963   1.413  1.5218  0.8616 -1.0631
 8592SOL    HW226910   0.749   8.007   1.501  0.3059 -1.6734  2.0093
 8593SOL     OW26911   2.066   8.596   6.932 -0.3530  0.1891 -0.1981
 8593SOL    HW126912   2.138   8.648   6.898 -0.6533  0.5104 -0.3532
 8593SOL    HW226913   2.107   8.536   6.995  0.1661 -0.2166 -0.9070
 8594SOL     OW26914   9.025   2.166   1.695  0.5623 -0.5967 -0.4602
 8594SOL    HW126915   9.010   2.201   1.783 -1.4164 -1.7953 -0.2699
 8594SOL    HW226916   9.109   2.120   1.702  0.6849 -0.2307  0.6635
 8595SOL     OW26917   6.718   4.582   3.250  1.0014 -0.2421  0.6550
 8595SOL    HW126918   6.695   4.544   3.335  0.6427  0.3327  0.8179
 8595SOL    HW226919   6.813   4.571   3.244  1.0046 -0.4385  1.0524
 8596SOL     OW26920   5.821   1.111   3.109 -0.2837  0.0431  0.0011
 8596SOL    HW126921   5.737   1.064   3.114 -0.7992  1.0723  1.4896
 8596SOL    HW226922   5.797   1.200   3.085  0.5993 -0.1100 -1.6454
 8597SOL     OW26923   6.777   8.573   2.237  0.5109 -0.5024  0.6270
 8597SOL    HW126924   6.754   8.524   2.316 -1.5209 -1.6330 -0.5741
 8597SOL    HW226925   6.697   8.621   2.215  0.9939 -0.3352 -0.8414
 8598SOL     OW26926   4.046   8.774   3.965  0.6670  0.2201 -0.2002
 8598SOL    HW126927   4.096   8.805   3.889 -1.4427  1.8884 -1.0060
 8598SOL    HW226928   4.033   8.852   4.019  0.1386 -0.4659  0.6945
 8599SOL     OW26929   8.446   8.699   2.926  0.0747  0.5579  0.2255
 8599SOL    HW126930   8.514   8.675   2.989  1.5718  1.5375 -0.9429
 8599SOL    HW226931   8.364   8.679   2.970  1.1068 -2.5345  0.9314
 8600SOL     OW26932   5.797   0.730   3.992 -0.1260  0.0100 -0.4533
 8600SOL    HW126933   5.885   0.696   4.006 -0.3953  0.0103  1.6075
 8600SOL    HW226934   5.805   0.824   4.007 -0.3725  0.1029 -0.8859
 8601SOL     OW26935   8.357   3.902   1.267  0.0772  0.0687 -0.3652
 8601SOL    HW126936   8.325   3.854   1.343  1.6992 -0.9161 -0.2513
 8601SOL    HW226937   8.452   3.890   1.270  0.1780 -0.0658 -2.5855
 8602SOL     OW26938   8.162   3.311   6.282  0.4222  0.7017  0.5354
 8602SOL    HW126939   8.182   3.403   6.263 -1.2025  0.8673 -0.6582
 8602SOL    HW226940   8.104   3.284   6.210 -0.2504 -0.8410  1.6015
 8603SOL     OW26941   7.811   5.760   8.031  0.2180 -0.6046 -0.8755
 8603SOL    HW126942   7.836   5.723   8.116 -0.6941  0.7988  0.0323
 8603SOL    HW226943   7.788   5.683   7.977  0.0981 -1.4652  0.3682
 8604SOL     OW26944   1.174   8.712   1.763 -0.3097  0.3320  0.3731
 8604SOL    HW126945   1.250   8.739   1.815 -0.4965  1.2192  0.1899
 8604SOL    HW226946   1.124   8.792   1.750 -0.1711  0.1745 -1.3365
 8605SOL     OW26947   6.000   0.105   4.720  0.1236 -0.2666 -0.4267
 8605SOL    HW126948   6.049   0.130   4.799  0.6710 -2.9772  0.2035
 8605SOL    HW226949   5.910   0.097   4.750 -0.4711  2.5992 -1.0984
 8606SOL     OW26950   4.210   3.186   7.986 -0.0183  0.1876  0.2336
 8606SOL    HW126951   4.179   3.252   7.924 -1.3242 -1.5656 -1.1096
 8606SOL    HW226952   4.132   3.162   8.037  0.7918  0.7827  1.8066
 8607SOL     OW26953   1.273   8.528   3.023  0.2057 -0.3586  0.3023
 8607SOL    HW126954   1.197   8.542   3.080 -0.0971 -0.3368 -0.1079
 8607SOL    HW226955   1.236   8.497   2.940  0.5332  0.9975 -0.3772
 8608SOL     OW26956   4.732   4.758   4.746  0.2771 -0.1445 -0.0936
 8608SOL    HW126957   4.764   4.818   4.814  2.6068  0.1222 -1.3381
 8608SOL    HW226958   4.807   4.742   4.690 -1.1056 -1.7990 -1.6115
 8609SOL     OW26959   6.848   5.193   0.179 -0.0451  0.7055 -0.3434
 8609SOL    HW126960   6.781   5.125   0.174 -0.4359  0.9659  1.0831
 8609SOL    HW226961   6.927   5.150   0.146 -0.8697  0.4015 -2.0724
 8610SOL     OW26962   0.481   3.368   1.604 -0.0586  0.0502 -0.2530
 8610SOL    HW126963   0.417   3.354   1.675  1.4495 -0.5420  1.0496
 8610SOL    HW226964   0.558   3.319   1.631  0.9386  0.6747 -1.8252
 8611SOL     OW26965   0.052   2.859   5.673  0.1974 -0.1454 -0.4084
 8611SOL    HW126966   0.109   2.863   5.750 -0.0653  1.4593 -0.2622
 8611SOL    HW226967   0.110   2.832   5.602  0.5861 -0.9963  0.2212
 8612SOL     OW26968   8.730   6.387   6.912  0.1737  0.3306  0.1150
 8612SOL    HW126969   8.761   6.469   6.950 -0.7721  0.0715  1.5552
 8612SOL    HW226970   8.707   6.333   6.988  2.0445 -1.8069 -0.7195
 8613SOL     OW26971   1.960   7.185   4.262  0.3275 -0.4564 -0.4025
 8613SOL    HW126972   1.947   7.090   4.274 -0.2022 -0.2038  1.2933
 8613SOL    HW226973   1.930   7.202   4.173 -1.0923 -1.6405 -0.1878
 8614SOL     OW26974   6.454   0.602   7.378 -0.4567  0.4680 -0.3317
 8614SOL    HW126975   6.485   0.594   7.288  1.7696  3.3688  0.0304
 8614SOL    HW226976   6.469   0.515   7.416  1.0733 -0.0853 -2.0371
 8615SOL     OW26977   7.381   7.610   1.785  0.1613  0.3150 -0.1405
 8615SOL    HW126978   7.380   7.666   1.708  1.6907 -0.5202 -0.8171
 8615SOL    HW226979   7.319   7.650   1.846  0.4715  2.1463 -0.9926
 8616SOL     OW26980   0.169   7.117   8.654 -0.0991 -0.3856  0.2263
 8616SOL    HW126981   0.086   7.093   8.613  0.6746 -0.7741 -1.1780
 8616SOL    HW226982   0.208   7.179   8.594 -0.0832  1.0889  1.6888
 8617SOL     OW26983   1.909   6.173   6.994 -0.1580  0.8015 -0.3378
 8617SOL    HW126984   1.850   6.115   6.945 -0.8055  0.7241  0.5157
 8617SOL    HW226985   1.862   6.256   6.999  0.3037  1.0828 -0.6264
 8618SOL     OW26986   4.685   0.853   0.758 -0.0702  0.0061 -0.3285
 8618SOL    HW126987   4.619   0.863   0.827 -0.3438 -1.4279 -0.3575
 8618SOL    HW226988   4.636   0.865   0.676  0.0630  0.6981 -0.3160
 8619SOL     OW26989   5.970   1.279   1.191 -0.6178  0.1771  0.2914
 8619SOL    HW126990   6.045   1.233   1.229  0.8283  1.9599 -0.2711
 8619SOL    HW226991   5.958   1.356   1.246 -0.9032  0.8176 -0.6445
 8620SOL     OW26992   4.656   0.364   4.239 -0.9886 -0.0446 -0.1060
 8620SOL    HW126993   4.612   0.358   4.154 -0.7541  0.6429 -0.2798
 8620SOL    HW226994   4.747   0.383   4.218 -1.6024  4.2861  0.2943
 8621SOL     OW26995   0.562   0.920   4.953 -0.2157 -0.1066  0.0942
 8621SOL    HW126996   0.475   0.937   4.918 -0.1664 -1.1810 -0.6018
 8621SOL    HW226997   0.556   0.834   4.994  0.6357 -0.4528 -0.4544
 8622SOL     OW26998   2.124   8.750   2.220 -0.3626  0.0377 -0.2182
 8622SOL    HW126999   2.211   8.789   2.227 -0.5011  0.6043 -1.4280
 8622SOL    HW227000   2.075   8.787   2.294  0.3720 -0.1856  0.3940
 8623SOL     OW27001   3.646   1.919   3.669  0.3900  0.1881  0.0494
 8623SOL    HW127002   3.666   1.937   3.577 -0.4487  2.1554  0.2068
 8623SOL    HW227003   3.551   1.926   3.675  0.3638 -0.6376  0.9487
 8624SOL     OW27004   7.655   5.271   3.569 -0.0825 -0.2738 -0.3678
 8624SOL    HW127005   7.731   5.261   3.626  0.0894 -1.3655 -0.7690
 8624SOL    HW227006   7.688   5.320   3.493 -0.3923  1.4956  0.5770
 8625SOL     OW27007   5.933   2.607   1.630  0.1361 -0.0752 -0.0827
 8625SOL    HW127008   5.915   2.513   1.631  0.0344 -0.0549 -0.0195
 8625SOL    HW227009   5.956   2.626   1.539 -1.8581  0.2232 -0.5680
 8626SOL     OW27010   9.111   0.587   0.855 -0.2293  0.0259  0.5922
 8626SOL    HW127011   9.186   0.532   0.879 -0.5604 -0.9443 -0.4938
 8626SOL    HW227012   9.094   0.566   0.763 -0.5472  1.7737  0.2298
 8627SOL     OW27013   1.702   5.086   6.625  0.1567  0.1242 -0.1877
 8627SOL    HW127014   1.621   5.100   6.577  0.1783  0.3721 -0.1531
 8627SOL    HW227015   1.762   5.048   6.560  0.1316  0.2952 -0.3110
 8628SOL     OW27016   0.691   0.467   6.394 -0.7745 -0.2642 -0.0179
 8628SOL    HW127017   0.681   0.387   6.342  0.1116 -0.4593  0.1016
 8628SOL    HW227018   0.724   0.436   6.479  2.3547  0.4124 -0.8537
 8629SOL     OW27019   6.646   7.878   3.254  0.2619 -0.2116  0.3118
 8629SOL    HW127020   6.565   7.839   3.223  0.2943 -0.5094  0.5897
 8629SOL    HW227021   6.688   7.913   3.176 -0.7272  1.0608  0.3360
 8630SOL     OW27022   3.353   1.919   2.837  0.0408  0.2281 -0.3060
 8630SOL    HW127023   3.418   1.852   2.817 -1.9136 -2.1206  0.6500
 8630SOL    HW227024   3.299   1.924   2.758 -1.1911 -1.1138  0.3960
 8631SOL     OW27025   3.911   6.268   2.365 -0.1423 -0.0994  0.1734
 8631SOL    HW127026   3.897   6.319   2.285 -0.2413  1.4720  1.1369
 8631SOL    HW227027   3.990   6.306   2.405 -0.8065  0.0412  1.4336
 8632SOL     OW27028   0.145   4.404   2.414 -0.0484 -0.3373 -0.5095
 8632SOL    HW127029   0.064   4.410   2.466 -0.1237 -0.2055 -0.6402
 8632SOL    HW227030   0.209   4.454   2.464  0.6530 -2.5005  0.8856
 8633SOL     OW27031   5.946   8.028   2.230 -0.1744 -0.0707 -0.6223
 8633SOL    HW127032   6.032   8.057   2.261 -1.4752  2.5749  0.8854
 8633SOL    HW227033   5.929   8.083   2.154 -2.0288  2.3231  1.3496
 8634SOL     OW27034   5.427   5.465   2.337  0.0171  0.2621  0.1501
 8634SOL    HW127035   5.419   5.536   2.273  1.0343 -0.8027 -1.2450
 8634SOL    HW227036   5.521   5.459   2.354  0.0914 -1.3795 -0.5770
 8635SOL     OW27037   6.797   2.928   7.509  0.0322  0.5325  0.3094
 8635SOL    HW127038   6.706   2.914   7.534  0.7063 -0.4557  2.4449
 8635SOL    HW227039   6.846   2.861   7.557  1.6724 -0.6969 -2.8055
 8636SOL     OW27040   8.752   5.963   8.395 -0.3148  0.1846 -1.0146
 8636SOL    HW127041   8.713   5.981   8.480  1.9704 -0.7042  0.3272
 8636SOL    HW227042   8.762   6.048   8.354 -1.1830  0.6578 -0.2821
 8637SOL     OW27043   0.638   2.350   4.437  0.3112 -0.4852  0.0447
 8637SOL    HW127044   0.692   2.296   4.494  1.7653 -0.0698 -0.8848
 8637SOL    HW227045   0.557   2.364   4.487 -0.0901 -3.3712  0.3666
 8638SOL     OW27046   1.986   7.953   0.578 -0.0303  0.2559  0.4087
 8638SOL    HW127047   2.056   8.013   0.605 -0.2596  0.7682 -0.1080
 8638SOL    HW227048   2.016   7.917   0.494 -0.2088  0.1831  0.3753
 8639SOL     OW27049   2.042   0.542   8.618  0.1878  0.3869 -0.0080
 8639SOL    HW127050   1.976   0.533   8.549 -0.8966 -0.9286  1.1420
 8639SOL    HW227051   2.045   0.636   8.636 -0.2042  0.6413 -1.1694
 8640SOL     OW27052   0.278   7.364   7.942  0.8043  0.3306  0.7744
 8640SOL    HW127053   0.371   7.387   7.940  0.5608  1.5124  2.1894
 8640SOL    HW227054   0.239   7.413   7.870  1.1166  0.5591  0.7612
 8641SOL     OW27055   6.404   6.968   1.981  0.1108  0.1664 -0.1203
 8641SOL    HW127056   6.310   6.967   1.961  0.1463  0.0072 -0.2803
 8641SOL    HW227057   6.446   6.992   1.898  0.2538 -0.4314 -0.2236
 8642SOL     OW27058   5.721   4.690   6.936 -0.1723  0.2753 -0.1160
 8642SOL    HW127059   5.629   4.666   6.944 -0.2412  0.0552 -1.3906
 8642SOL    HW227060   5.749   4.707   7.026 -1.3519 -0.0178  0.3262
 8643SOL     OW27061   0.037   8.752   7.486  0.6220 -0.7747  0.4981
 8643SOL    HW127062   0.112   8.711   7.529  2.2705  3.2145  1.8997
 8643SOL    HW227063  -0.016   8.787   7.558 -0.2014  0.2663 -0.5643
 8644SOL     OW27064   8.001   5.252   1.961  0.3556  0.4192  0.2894
 8644SOL    HW127065   8.035   5.302   1.887  0.2858 -0.8580 -0.6495
 8644SOL    HW227066   8.075   5.198   1.989 -0.0050 -0.1159  0.2301
 8645SOL     OW27067   7.726   2.251   0.778 -0.1627  0.0739 -0.0218
 8645SOL    HW127068   7.699   2.163   0.805  1.0790 -0.3326 -0.0361
 8645SOL    HW227069   7.820   2.253   0.793 -0.2044  1.5003  0.2169
 8646SOL     OW27070   6.241   6.680   7.288 -0.3620  0.3259  0.5316
 8646SOL    HW127071   6.234   6.652   7.379 -1.7238 -1.3035 -0.0291
 8646SOL    HW227072   6.298   6.615   7.246  0.3231  1.1071  0.2189
 8647SOL     OW27073   3.714   1.468   6.334 -0.3492  0.3778  0.3842
 8647SOL    HW127074   3.794   1.473   6.281 -2.0171 -0.4218 -2.4236
 8647SOL    HW227075   3.709   1.376   6.361 -1.3389 -0.0813 -1.2567
 8648SOL     OW27076   2.563   3.716   1.129 -0.3484  0.1285 -0.1559
 8648SOL    HW127077   2.589   3.693   1.040 -1.2943  2.4805 -1.0998
 8648SOL    HW227078   2.535   3.807   1.124  1.3898  1.0104  2.9324
 8649SOL     OW27079   3.795   8.405   7.996 -0.3254  0.7230 -0.1910
 8649SOL    HW127080   3.767   8.491   8.028 -0.0405  0.2688  1.3360
 8649SOL    HW227081   3.888   8.400   8.018 -0.7306 -0.6687  1.3884
 8650SOL     OW27082   4.733   6.640   4.232 -0.2596 -0.0733  0.5115
 8650SOL    HW127083   4.782   6.649   4.150  1.4766  0.5502  1.5826
 8650SOL    HW227084   4.747   6.723   4.278 -1.2959 -0.3726  1.4228
 8651SOL     OW27085   8.857   5.050   1.454  0.4789  0.3148 -0.6999
 8651SOL    HW127086   8.857   4.962   1.492  0.3570 -1.0343 -3.5840
 8651SOL    HW227087   8.775   5.089   1.483 -0.1009 -1.0376 -0.4434
 8652SOL     OW27088   0.476   4.714   3.696 -0.4996  0.0055 -0.8002
 8652SOL    HW127089   0.381   4.703   3.687 -0.4797  0.1245 -1.2049
 8652SOL    HW227090   0.510   4.688   3.610 -0.1831  0.1341 -0.7131
 8653SOL     OW27091   1.897   7.235   0.944  0.1181  0.3656 -0.1446
 8653SOL    HW127092   1.830   7.168   0.937  0.1308  0.2253  0.9131
 8653SOL    HW227093   1.889   7.268   1.033  0.8061  1.0331 -0.3167
 8654SOL     OW27094   0.087   4.385   4.856  0.5746  0.1900 -0.5527
 8654SOL    HW127095   0.138   4.464   4.840  1.2835 -0.1443 -0.0149
 8654SOL    HW227096  -0.001   4.415   4.876  1.0071  0.8805  0.3551
 8655SOL     OW27097   5.469   7.918   0.757 -0.2074  0.0300  0.5775
 8655SOL    HW127098   5.493   7.856   0.826 -0.2373 -1.5583 -0.7798
 8655SOL    HW227099   5.533   7.989   0.766 -0.2511 -0.1057  2.2571
 8656SOL     OW27100   4.842   3.509   3.911  0.1241 -0.0527 -0.3769
 8656SOL    HW127101   4.902   3.447   3.953 -0.1238 -0.4207 -0.5578
 8656SOL    HW227102   4.882   3.526   3.826  0.1060 -0.0970 -0.3945
 8657SOL     OW27103   0.427   4.257   7.166  0.7057  0.5325 -0.3164
 8657SOL    HW127104   0.357   4.280   7.104  0.8388  0.9644 -0.3057
 8657SOL    HW227105   0.470   4.340   7.186  1.1846  0.2750 -0.2744
 8658SOL     OW27106   1.449   4.638   2.269 -0.6548  0.3006 -0.3288
 8658SOL    HW127107   1.456   4.718   2.217 -2.7261  0.7797  0.0466
 8658SOL    HW227108   1.537   4.600   2.267  0.1113  2.0297 -1.3892
 8659SOL     OW27109   3.576   8.723   6.153 -0.4970  0.1411 -0.1508
 8659SOL    HW127110   3.618   8.803   6.184 -0.6599  0.3292 -0.4170
 8659SOL    HW227111   3.588   8.724   6.058 -2.1639  0.8346 -0.4050
 8660SOL     OW27112   5.393   3.241   6.720  0.2253 -0.3913 -0.1647
 8660SOL    HW127113   5.481   3.216   6.692  0.1459 -0.2606 -0.5280
 8660SOL    HW227114   5.392   3.337   6.714 -1.0314 -0.5033 -3.4877
 8661SOL     OW27115   4.641   5.608   6.628 -1.2414  1.0873  0.7794
 8661SOL    HW127116   4.582   5.674   6.592 -1.8948  1.0414  1.7207
 8661SOL    HW227117   4.590   5.566   6.698 -0.0262  1.1876  1.7690
 8662SOL     OW27118   7.196   7.181   0.156  0.5365 -0.1905  0.7190
 8662SOL    HW127119   7.201   7.139   0.070  2.6264  1.3961 -0.0291
 8662SOL    HW227120   7.276   7.155   0.200  0.3447  0.4567  1.4712
 8663SOL     OW27121   5.783   3.178   3.307  0.0298  0.4135  0.0555
 8663SOL    HW127122   5.720   3.108   3.323  0.1728 -0.0163 -1.1508
 8663SOL    HW227123   5.829   3.189   3.390 -1.5715  0.7042  0.9561
 8664SOL     OW27124   9.092   6.583   7.452  0.9544  0.1302 -0.4741
 8664SOL    HW127125   9.086   6.491   7.475  2.8998 -0.2489 -1.2911
 8664SOL    HW227126   9.045   6.628   7.522 -0.0037 -1.4541 -0.0499
 8665SOL     OW27127   6.420   6.655   2.096 -0.0983 -0.6920  0.1850
 8665SOL    HW127128   6.326   6.645   2.109  0.0408 -1.9735  0.3273
 8665SOL    HW227129   6.433   6.749   2.086 -1.6602 -0.6249 -1.9191
 8666SOL     OW27130   4.232   8.248   2.944  0.2134  0.7412 -0.2505
 8666SOL    HW127131   4.288   8.319   2.978  2.6361 -0.8176 -0.7695
 8666SOL    HW227132   4.238   8.179   3.010 -1.0442  0.4886 -0.3786
 8667SOL     OW27133   8.388   7.630   7.128  0.0662  0.1204  0.4305
 8667SOL    HW127134   8.300   7.643   7.161 -0.3381  2.4399 -1.2905
 8667SOL    HW227135   8.444   7.679   7.188 -0.0043 -0.0263  0.6167
 8668SOL     OW27136   7.828   7.134   8.580 -0.1076 -0.5460 -0.4628
 8668SOL    HW127137   7.765   7.192   8.622  2.1183  1.9379 -0.2808
 8668SOL    HW227138   7.830   7.163   8.489 -0.3548 -1.6827 -0.8502
 8669SOL     OW27139   8.248   3.606   8.333 -0.0065  0.5231 -0.0056
 8669SOL    HW127140   8.326   3.562   8.300 -0.5981  0.0282 -0.7879
 8669SOL    HW227141   8.230   3.564   8.417  0.2312  0.2273 -0.1009
 8670SOL     OW27142   1.681   4.045   0.601 -0.0788  0.0746 -0.2112
 8670SOL    HW127143   1.590   4.067   0.581 -0.8242 -2.7642 -0.3996
 8670SOL    HW227144   1.676   3.985   0.675  1.5125 -1.2658 -1.1131
 8671SOL     OW27145   1.748   6.865   7.069  0.7675 -0.0908  0.5024
 8671SOL    HW127146   1.753   6.857   6.974 -3.0070  0.6429  0.0859
 8671SOL    HW227147   1.780   6.781   7.102  0.5569 -1.0090 -1.5028
 8672SOL     OW27148   1.125   5.346   2.419 -0.7725  0.1714  0.1683
 8672SOL    HW127149   1.110   5.262   2.375 -1.7087  0.6951 -0.5382
 8672SOL    HW227150   1.038   5.381   2.436 -0.4353  1.8615 -1.2636
 8673SOL     OW27151   5.344   8.063   4.560  0.5042 -0.2013  0.3255
 8673SOL    HW127152   5.352   8.042   4.467 -1.5865 -1.5888  0.3790
 8673SOL    HW227153   5.419   8.119   4.579  1.8932 -1.2058 -1.8112
 8674SOL     OW27154   3.647   1.948   6.470  0.0834  0.0349 -0.0991
 8674SOL    HW127155   3.637   1.983   6.559  1.1694  0.8671 -0.2840
 8674SOL    HW227156   3.713   1.879   6.479  0.7128  0.5958 -0.3725
 8675SOL     OW27157   7.956   0.772   4.013  0.1662 -0.7316 -0.2743
 8675SOL    HW127158   7.911   0.856   4.003  0.9382 -0.4223 -1.3189
 8675SOL    HW227159   8.010   0.764   3.934  1.7122 -1.2213  0.7830
 8676SOL     OW27160   5.400   5.907   5.273 -0.1104 -0.7807  0.0112
 8676SOL    HW127161   5.440   5.973   5.330  0.6735 -0.3913 -0.9569
 8676SOL    HW227162   5.307   5.908   5.296  0.5663 -2.8175  3.4169
 8677SOL     OW27163   5.973   1.125   5.351 -0.3188 -0.2183 -0.2556
 8677SOL    HW127164   6.029   1.122   5.428  1.9773 -1.3999 -1.8608
 8677SOL    HW227165   5.981   1.214   5.319 -1.0677  0.2015  0.6575
 8678SOL     OW27166   5.749   0.921   6.920  0.2790  0.0105  0.4054
 8678SOL    HW127167   5.815   0.855   6.901  0.7383  0.0002  1.9197
 8678SOL    HW227168   5.773   0.996   6.865  0.4552 -0.6347 -0.4175
 8679SOL     OW27169   5.136   7.004   5.049  0.0105  0.2831 -0.2045
 8679SOL    HW127170   5.109   6.941   4.982  2.3136 -0.1743 -0.8091
 8679SOL    HW227171   5.199   7.061   5.005 -0.0613  1.3705  1.0293
 8680SOL     OW27172   4.139   4.467   3.913 -1.2618  0.3137 -0.0413
 8680SOL    HW127173   4.195   4.446   3.837 -1.4112  0.1884 -0.1173
 8680SOL    HW227174   4.093   4.385   3.932 -1.5566  0.4668 -0.0935
 8681SOL     OW27175   4.248   2.426   6.235  0.3657 -0.4289 -0.1280
 8681SOL    HW127176   4.293   2.465   6.160  0.4594  2.1269  1.1817
 8681SOL    HW227177   4.314   2.423   6.304 -0.3637 -0.4871  0.5827
 8682SOL     OW27178   8.018   2.064   0.164  0.0461  0.2106  0.0597
 8682SOL    HW127179   7.953   2.071   0.234 -1.8400  0.8727 -1.6462
 8682SOL    HW227180   8.102   2.076   0.208 -1.0173  0.1502  2.2546
 8683SOL     OW27181   4.913   5.033   7.239 -0.4397  0.1937 -0.4108
 8683SOL    HW127182   4.994   5.022   7.188 -0.5254 -0.3725 -0.4256
 8683SOL    HW227183   4.853   4.968   7.203 -0.9694  0.7394 -0.5265
 8684SOL     OW27184   0.707   0.182   2.993 -0.6304  0.0941 -0.5100
 8684SOL    HW127185   0.636   0.168   2.930  0.5113  2.4342 -2.4690
 8684SOL    HW227186   0.668   0.239   3.060 -0.6932  1.2040 -1.4654
 8685SOL     OW27187   0.298   4.334   0.149 -0.1448 -0.0836  0.0214
 8685SOL    HW127188   0.248   4.320   0.069  0.9881  0.9506 -0.9064
 8685SOL    HW227189   0.345   4.252   0.163  0.4253  0.0643 -0.9533
 8686SOL     OW27190   7.938   8.734   0.369  0.2174 -0.0499  0.6555
 8686SOL    HW127191   7.860   8.755   0.317 -1.0215  0.2288  2.5608
 8686SOL    HW227192   7.905   8.715   0.456  2.3854  1.1761  1.8242
 8687SOL     OW27193   6.698   0.413   4.981 -0.1316 -0.1410 -0.2073
 8687SOL    HW127194   6.680   0.504   4.956 -0.1142  0.5709  2.1321
 8687SOL    HW227195   6.765   0.384   4.919  1.5084  2.2007  0.3194
 8688SOL     OW27196   4.885   6.070   7.211  0.3692 -0.3768  0.0517
 8688SOL    HW127197   4.942   6.065   7.135  1.7323  0.0311  1.0153
 8688SOL    HW227198   4.905   6.154   7.251  0.3379 -0.9629  1.3497
 8689SOL     OW27199   6.083   1.754   8.883 -0.3645 -0.0167 -0.0146
 8689SOL    HW127200   6.053   1.823   8.942  0.0651  0.3009 -0.1627
 8689SOL    HW227201   6.086   1.675   8.937 -2.3534 -0.2720 -0.2093
 8690SOL     OW27202   7.688   6.406   0.389  0.5129  0.4251  0.1308
 8690SOL    HW127203   7.729   6.491   0.404 -0.6190  0.8791  0.7414
 8690SOL    HW227204   7.726   6.349   0.455 -1.2193  1.3325  2.0026
 8691SOL     OW27205   8.037   3.502   4.870  0.1883  0.4021 -0.1815
 8691SOL    HW127206   7.978   3.576   4.854 -0.0847  0.1840 -0.1978
 8691SOL    HW227207   7.979   3.426   4.869  0.4973  0.1731 -0.3397
 8692SOL     OW27208   3.931   3.026   1.035  0.2123 -0.5597 -0.0322
 8692SOL    HW127209   3.873   3.046   1.108 -0.5345  1.2210 -1.0330
 8692SOL    HW227210   3.911   2.936   1.011  0.0173 -0.9561  1.5187
 8693SOL     OW27211   2.864   0.959   6.818 -0.2614 -0.0367 -0.4250
 8693SOL    HW127212   2.850   0.988   6.908 -2.8072 -1.1011 -0.3986
 8693SOL    HW227213   2.807   0.883   6.808 -0.7667  0.5957 -3.1842
 8694SOL     OW27214   8.798   8.811   8.871  0.1573 -0.4118 -0.1302
 8694SOL    HW127215   8.732   8.757   8.828 -0.9168 -0.3810  1.3689
 8694SOL    HW227216   8.882   8.780   8.837 -0.5238 -1.9085 -0.5221
 8695SOL     OW27217   4.587   8.056   2.060  0.5548 -0.5048 -0.1767
 8695SOL    HW127218   4.579   8.125   1.995 -0.3099 -1.6628 -1.3457
 8695SOL    HW227219   4.589   8.103   2.144  2.9987  1.0932 -1.0266
 8696SOL     OW27220   6.598   3.313   2.745 -0.3145 -0.7568  0.0637
 8696SOL    HW127221   6.613   3.313   2.651  1.8542  1.4808  0.3186
 8696SOL    HW227222   6.524   3.372   2.758  1.8878  2.2569 -0.0761
 8697SOL     OW27223   1.393   8.624   7.061 -0.3759 -0.5867 -0.1695
 8697SOL    HW127224   1.463   8.592   7.119 -0.4097 -1.2436 -0.4847
 8697SOL    HW227225   1.424   8.604   6.973 -1.1026 -1.1889 -0.2970
 8698SOL     OW27226   8.940   2.534   8.689 -0.3707 -0.3774 -0.1806
 8698SOL    HW127227   9.015   2.587   8.662 -0.2093 -0.0424  0.8814
 8698SOL    HW227228   8.884   2.529   8.612 -0.5663  1.6432 -0.2073
 8699SOL     OW27229   5.794   3.785   7.820  0.7152 -0.4784 -0.3241
 8699SOL    HW127230   5.834   3.801   7.735  2.1519 -2.6247 -0.1486
 8699SOL    HW227231   5.821   3.859   7.874  3.2869 -1.0752 -0.6601
 8700SOL     OW27232   6.796   5.684   7.424 -0.1506  0.8016  0.3258
 8700SOL    HW127233   6.724   5.670   7.363 -0.4236  1.2008  0.5593
 8700SOL    HW227234   6.760   5.666   7.510 -0.0592  1.3093  0.4742
 8701SOL     OW27235   3.154   8.310   8.658  0.2795 -0.6546  0.2789
 8701SOL    HW127236   3.177   8.363   8.581 -0.5863 -1.5141 -0.6118
 8701SOL    HW227237   3.202   8.349   8.730 -0.1047  1.1704 -0.4034
 8702SOL     OW27238   5.083   0.224   1.027  0.1487 -0.3275  0.4465
 8702SOL    HW127239   5.066   0.198   1.117  0.2096  1.0686  0.8909
 8702SOL    HW227240   5.159   0.283   1.034 -0.1667  0.1970 -0.4428
 8703SOL     OW27241   6.434   1.793   0.985 -0.4874  0.2129 -0.1279
 8703SOL    HW127242   6.512   1.746   0.955 -0.0241  0.8174  0.0974
 8703SOL    HW227243   6.441   1.879   0.944 -1.6360 -0.0919 -1.0113
 8704SOL     OW27244   2.997   8.964   0.691 -0.8092 -0.0060 -0.0363
 8704SOL    HW127245   2.996   9.059   0.699 -3.9212  0.1915 -1.3435
 8704SOL    HW227246   2.980   8.932   0.779  1.6415  0.4829  0.7047
 8705SOL     OW27247   6.844   3.786   2.077 -0.3094  0.2993  0.3090
 8705SOL    HW127248   6.761   3.801   2.121 -0.5793 -0.9043  0.2495
 8705SOL    HW227249   6.820   3.750   1.991  0.2686 -0.8053  0.5928
 8706SOL     OW27250   7.818   2.156   4.795 -0.0697 -0.0004 -0.1482
 8706SOL    HW127251   7.910   2.177   4.782 -0.3648  0.9874 -0.7281
 8706SOL    HW227252   7.776   2.178   4.712 -0.6647 -1.4997 -0.2800
 8707SOL     OW27253   3.796   6.196   5.112  0.5621  0.1562 -0.1823
 8707SOL    HW127254   3.806   6.291   5.100  0.9198 -0.0853 -2.0707
 8707SOL    HW227255   3.713   6.186   5.158 -0.2655  1.3279 -1.3657
 8708SOL     OW27256   1.628   0.897   6.841 -0.2841  0.3215 -0.4547
 8708SOL    HW127257   1.718   0.864   6.837  0.2963  1.8626 -0.9243
 8708SOL    HW227258   1.605   0.917   6.750 -0.6945  0.9429 -0.2233
 8709SOL     OW27259   2.357   4.070   8.906 -0.4414  0.3624 -0.1697
 8709SOL    HW127260   2.322   4.078   8.995 -1.3916  0.6015 -0.5515
 8709SOL    HW227261   2.362   3.975   8.891 -1.2885  0.3184 -0.2352
 8710SOL     OW27262   7.037   0.275   8.751  0.3833  0.4128 -0.7728
 8710SOL    HW127263   6.969   0.211   8.731  0.5834  0.0325 -0.2554
 8710SOL    HW227264   6.998   0.360   8.728 -0.4570  0.2518  0.0036
 8711SOL     OW27265   7.873   5.791   9.075  0.0574 -0.0465  0.9989
 8711SOL    HW127266   7.917   5.870   9.045 -0.3002 -0.2336 -0.0598
 8711SOL    HW227267   7.862   5.803   9.170  2.3758 -0.0050  1.3181
 8712SOL     OW27268   8.185   6.367   4.560  0.3605  0.2541 -0.2026
 8712SOL    HW127269   8.118   6.433   4.580  0.0495 -0.5456  1.6390
 8712SOL    HW227270   8.148   6.285   4.593  2.4747 -0.1078  1.5242
 8713SOL     OW27271   6.314   8.645   6.185 -0.5294 -0.2206  0.6828
 8713SOL    HW127272   6.283   8.726   6.225  0.9342  0.5850  0.2610
 8713SOL    HW227273   6.355   8.597   6.258  1.1590  0.7520  0.4323
 8714SOL     OW27274   1.682   6.278   7.656 -0.0962 -0.1577  0.0147
 8714SOL    HW127275   1.698   6.226   7.735 -1.9705  0.9903  1.2475
 8714SOL    HW227276   1.587   6.292   7.656 -0.4560 -1.6532 -3.4894
 8715SOL     OW27277   2.399   6.304   7.934 -0.0042 -0.0055 -0.1181
 8715SOL    HW127278   2.363   6.248   7.865  0.6439 -1.7986  0.9132
 8715SOL    HW227279   2.476   6.345   7.895  0.3447 -0.9899 -0.5064
 8716SOL     OW27280   6.729   6.792   3.692 -0.4883  0.5300 -0.1510
 8716SOL    HW127281   6.763   6.845   3.620 -1.8047  1.1179 -0.3633
 8716SOL    HW227282   6.790   6.807   3.764  1.9624 -1.5268 -1.6109
 8717SOL     OW27283   9.094   3.750   2.610  0.6512  0.5893 -0.1388
 8717SOL    HW127284   9.070   3.828   2.660 -2.1180 -1.5665  2.2388
 8717SOL    HW227285   9.133   3.785   2.529  1.3851  4.3281  1.6119
 8718SOL     OW27286   2.734   5.852   1.038 -0.3472  0.6219 -0.5574
 8718SOL    HW127287   2.722   5.778   1.097 -0.5455  1.7310  0.8620
 8718SOL    HW227288   2.828   5.866   1.035 -0.1588 -0.6990 -2.1904
 8719SOL     OW27289   0.290   3.724   3.548  0.3372 -0.4659 -0.2253
 8719SOL    HW127290   0.263   3.816   3.545 -1.2369 -0.9030  0.1047
 8719SOL    HW227291   0.368   3.724   3.604 -0.2482  0.5262  0.6246
 8720SOL     OW27292   4.324   8.739   2.702  0.0283  0.1452 -0.5491
 8720SOL    HW127293   4.310   8.834   2.699 -0.8546  0.1205  1.3564
 8720SOL    HW227294   4.240   8.702   2.675 -1.0585 -0.0223  2.6695
 8721SOL     OW27295   2.772   3.567   5.867  0.2582  0.1851  0.0058
 8721SOL    HW127296   2.792   3.656   5.837  0.9505  0.3954  1.0597
 8721SOL    HW227297   2.827   3.511   5.812 -0.6150  0.3337 -1.0745
 8722SOL     OW27298   1.213   2.719   6.232  0.3451 -0.5210 -0.0168
 8722SOL    HW127299   1.258   2.635   6.230 -0.3664 -0.9392  0.6773
 8722SOL    HW227300   1.130   2.700   6.276  0.2178  0.5673  0.2427
 8723SOL     OW27301   1.438   2.159   8.731  0.3175 -0.2475 -0.0056
 8723SOL    HW127302   1.427   2.066   8.750  1.8723 -0.4459  0.1038
 8723SOL    HW227303   1.405   2.204   8.808 -2.0980 -0.5872 -0.7721
 8724SOL     OW27304   4.723   3.235   1.226 -0.0677  0.4408  0.0319
 8724SOL    HW127305   4.776   3.173   1.276 -1.0581 -1.0545 -0.7210
 8724SOL    HW227306   4.784   3.306   1.205  1.2983 -0.5973  0.3092
 8725SOL     OW27307   1.590   3.532   1.692  0.4623 -0.1108 -0.2010
 8725SOL    HW127308   1.629   3.607   1.648 -0.5829  0.9971  0.6955
 8725SOL    HW227309   1.496   3.551   1.693  0.1014 -1.6960 -0.4416
 8726SOL     OW27310   4.229   5.667   0.559  0.5621  0.1802  0.5087
 8726SOL    HW127311   4.316   5.647   0.593  1.5484 -0.2280 -2.0032
 8726SOL    HW227312   4.230   5.761   0.544  0.7881  0.0900 -0.0531
 8727SOL     OW27313   7.833   8.952   1.781 -0.2870 -0.6910  0.2720
 8727SOL    HW127314   7.762   8.918   1.835  1.5045 -2.1665  1.8281
 8727SOL    HW227315   7.833   9.046   1.797 -0.9355 -0.8702  1.4409
 8728SOL     OW27316   7.070   0.412   0.004 -0.3373  0.8307 -0.0547
 8728SOL    HW127317   7.109   0.335   0.045  0.0513  0.6910 -0.6716
 8728SOL    HW227318   6.984   0.383  -0.025  0.5649 -0.0012 -2.1000
 8729SOL     OW27319   1.586   0.852   7.609 -0.1151  0.2592  0.0126
 8729SOL    HW127320   1.544   0.936   7.589  1.7682  1.0492 -0.9684
 8729SOL    HW227321   1.611   0.860   7.701  1.4413  1.4940 -0.4698
 8730SOL     OW27322   3.540   8.104   0.448  0.1890 -0.4163  0.0905
 8730SOL    HW127323   3.619   8.154   0.467 -0.9500  1.6327 -0.3144
 8730SOL    HW227324   3.527   8.113   0.354 -1.7294  1.2344  0.4540
 8731SOL     OW27325   3.177   2.287   5.453  0.4063 -0.7786 -0.1288
 8731SOL    HW127326   3.106   2.297   5.516 -0.6873  1.6496 -1.5967
 8731SOL    HW227327   3.242   2.351   5.481  0.6765 -0.8880 -0.5023
 8732SOL     OW27328   6.164   3.418   4.560 -0.4522  0.4078  0.5098
 8732SOL    HW127329   6.098   3.487   4.567 -0.8376  0.3211 -1.5161
 8732SOL    HW227330   6.157   3.388   4.469  1.7853 -0.2236  0.4875
 8733SOL     OW27331   6.201   8.121   2.321  0.3762  0.3881  0.0468
 8733SOL    HW127332   6.222   8.118   2.414  1.8236  0.6853 -0.2488
 8733SOL    HW227333   6.217   8.213   2.296  0.2159  0.2605 -0.5395
 8734SOL     OW27334   0.642   5.001   2.595 -0.1677 -0.1024 -0.1692
 8734SOL    HW127335   0.678   5.057   2.526  1.0497 -0.5968  0.0429
 8734SOL    HW227336   0.616   5.063   2.664  0.2386  0.2846 -0.3533
 8735SOL     OW27337   3.535   7.101   4.276 -0.1595  0.0853 -0.3405
 8735SOL    HW127338   3.471   7.111   4.346 -0.2895  1.9627 -0.6837
 8735SOL    HW227339   3.515   7.172   4.215  1.7846  0.2679 -0.8169
 8736SOL     OW27340   7.803   0.393   2.487 -0.6372  0.1016  0.0729
 8736SOL    HW127341   7.771   0.434   2.407 -0.1620 -0.1564 -0.2513
 8736SOL    HW227342   7.834   0.306   2.460  0.6744  0.4707  0.3019
 8737SOL     OW27343   7.376   8.184   2.480 -0.0747  0.2882  0.0160
 8737SOL    HW127344   7.339   8.192   2.392  0.7660 -1.5482 -0.5448
 8737SOL    HW227345   7.354   8.267   2.523 -3.5347 -0.0958 -0.7429
 8738SOL     OW27346   7.255   6.549   6.235 -0.1703 -0.1802  0.3236
 8738SOL    HW127347   7.182   6.605   6.261 -0.2264  0.4926 -1.1325
 8738SOL    HW227348   7.234   6.523   6.145 -0.9624 -3.9407  1.4167
 8739SOL     OW27349   8.192   2.563   0.714 -0.4060 -0.0613 -0.0166
 8739SOL    HW127350   8.204   2.636   0.653  0.9671  0.4294  0.7852
 8739SOL    HW227351   8.278   2.521   0.718 -0.8765 -1.0117  0.4273
 8740SOL     OW27352   1.362   2.519   1.933  0.0367  0.1222  0.4824
 8740SOL    HW127353   1.282   2.492   1.887  0.8894 -0.5061 -0.6748
 8740SOL    HW227354   1.367   2.461   2.009 -0.2609 -0.2665  0.2112
 8741SOL     OW27355   5.358   1.067   8.090  0.4706 -0.2442 -0.3450
 8741SOL    HW127356   5.336   1.141   8.033  3.3275  1.4048  0.5111
 8741SOL    HW227357   5.362   1.104   8.178  0.2551 -1.8517  0.3807
 8742SOL     OW27358   8.689   5.452   5.335  0.1412  0.0220 -0.0493
 8742SOL    HW127359   8.639   5.448   5.417  1.1487  1.3457  0.6628
 8742SOL    HW227360   8.655   5.379   5.283 -1.8841  0.3126  0.7597
 8743SOL     OW27361   5.322   1.749   8.242  0.1143  1.0038  0.0669
 8743SOL    HW127362   5.293   1.814   8.306 -0.1456 -0.5846  1.6334
 8743SOL    HW227363   5.242   1.721   8.198 -0.0318  0.4393  0.6800
 8744SOL     OW27364   4.254   6.027   7.035  0.1469  0.1317  0.0148
 8744SOL    HW127365   4.266   5.936   7.008  0.1058  0.7739 -2.4060
 8744SOL    HW227366   4.160   6.034   7.052 -0.4540  0.4262 -2.9784
 8745SOL     OW27367   4.990   0.518   7.653  0.5846 -0.4519  0.4900
 8745SOL    HW127368   4.966   0.604   7.686  0.6682  0.5847 -1.9945
 8745SOL    HW227369   4.909   0.467   7.659 -0.1795  0.6055 -0.3872
 8746SOL     OW27370   7.947   4.779   2.220 -0.0418  0.3554  0.6484
 8746SOL    HW127371   7.928   4.855   2.275  0.0988 -0.1376  1.3986
 8746SOL    HW227372   7.962   4.708   2.283  0.2080 -0.1990 -0.0318
 8747SOL     OW27373   1.524   7.651   5.492  0.0139 -0.0626 -0.2007
 8747SOL    HW127374   1.475   7.575   5.460 -0.4816 -0.0246  0.4385
 8747SOL    HW227375   1.458   7.706   5.535  0.9584 -1.3047  3.1571
 8748SOL     OW27376   4.466   3.521   3.037 -0.0695 -0.0002 -0.4314
 8748SOL    HW127377   4.422   3.481   2.962 -0.1078  0.5503 -0.7085
 8748SOL    HW227378   4.482   3.449   3.097 -0.2101 -0.4139 -0.8888
 8749SOL     OW27379   2.749   4.801   0.682 -0.0746 -0.2142 -0.2680
 8749SOL    HW127380   2.761   4.759   0.768 -1.7667 -0.3484 -0.0511
 8749SOL    HW227381   2.663   4.842   0.688  0.8616  2.0010 -1.0308
 8750SOL     OW27382   1.976   0.065   7.387  0.2658 -0.3841  0.1562
 8750SOL    HW127383   2.008   0.077   7.298 -0.2506  1.9074  0.2123
 8750SOL    HW227384   2.049   0.091   7.443 -0.4007  1.3275  0.3108
 8751SOL     OW27385   2.255   0.218   8.864 -0.2229  0.2394  0.4608
 8751SOL    HW127386   2.195   0.157   8.822 -0.8101 -0.3563  2.0880
 8751SOL    HW227387   2.280   0.279   8.795 -0.4499 -1.2109 -0.9447
 8752SOL     OW27388   4.165   3.930   8.014 -0.1924  0.3992  0.1936
 8752SOL    HW127389   4.240   3.877   7.986 -0.2410  0.3042  0.2449
 8752SOL    HW227390   4.200   4.019   8.019 -0.0289  0.3218  0.4290
 8753SOL     OW27391   7.242   4.951   8.756 -0.0952  0.1533 -0.1995
 8753SOL    HW127392   7.259   5.045   8.747  0.8138 -0.0113 -0.3534
 8753SOL    HW227393   7.147   4.943   8.748 -0.4295  1.2899  1.9109
 8754SOL     OW27394   5.640   2.615   4.798  0.2883  0.2094 -0.6101
 8754SOL    HW127395   5.665   2.531   4.760  0.4167 -0.7263  1.4214
 8754SOL    HW227396   5.723   2.663   4.807  0.2437  0.4849 -1.5460
 8755SOL     OW27397   6.041   8.534   3.686 -0.6196 -0.2009 -0.2900
 8755SOL    HW127398   6.089   8.581   3.755 -0.8618 -0.6395  0.1776
 8755SOL    HW227399   6.051   8.442   3.709  0.6397 -0.4584 -1.7137
 8756SOL     OW27400   8.080   7.900   8.741 -0.3717  0.2095  0.3321
 8756SOL    HW127401   8.120   7.813   8.730 -0.1816  0.2584  0.6304
 8756SOL    HW227402   8.154   7.961   8.732 -0.4626  0.3265  0.3826
 8757SOL     OW27403   0.098   0.171   3.055 -0.1890  0.0571  0.4610
 8757SOL    HW127404   0.143   0.203   2.977  0.3706  1.9597  1.5044
 8757SOL    HW227405   0.006   0.193   3.040  0.1428  2.0256  1.0284
 8758SOL     OW27406   4.743   4.755   2.883 -0.7535  0.4897 -0.5233
 8758SOL    HW127407   4.651   4.777   2.865 -1.7020 -3.3144 -1.2707
 8758SOL    HW227408   4.783   4.753   2.796 -0.3258  0.6594 -0.3299
 8759SOL     OW27409   6.489   4.807   4.900 -0.1145  0.7630 -0.2677
 8759SOL    HW127410   6.516   4.715   4.901  0.6204  0.9691 -0.3972
 8759SOL    HW227411   6.506   4.836   4.811 -0.8865  0.8718 -0.3807
 8760SOL     OW27412   3.658   4.927   6.626  0.2005 -0.5373  0.1741
 8760SOL    HW127413   3.593   4.858   6.614  0.0966 -0.3675 -0.2785
 8760SOL    HW227414   3.608   5.000   6.663 -0.0906 -0.0605 -1.0981
 8761SOL     OW27415   5.444   4.311   2.696 -0.1385  0.0240 -0.7554
 8761SOL    HW127416   5.416   4.225   2.727 -0.0883 -0.1075 -1.0623
 8761SOL    HW227417   5.476   4.356   2.774  0.1471 -0.3606 -0.6426
 8762SOL     OW27418   2.188   0.115   7.552 -0.8064  0.1216 -0.2457
 8762SOL    HW127419   2.168   0.168   7.629 -0.7507  0.6437 -0.5824
 8762SOL    HW227420   2.280   0.091   7.562 -1.6355 -2.8176  1.6311
 8763SOL     OW27421   8.325   8.093   8.032  0.0920 -0.0737 -0.4981
 8763SOL    HW127422   8.320   8.181   7.996  2.0363 -0.6144 -2.2791
 8763SOL    HW227423   8.355   8.106   8.123  2.1449  1.0778 -1.2718
 8764SOL     OW27424   2.350   0.331   9.092  0.4354  0.5960 -0.1297
 8764SOL    HW127425   2.296   0.408   9.080 -0.2375 -0.0924 -1.8255
 8764SOL    HW227426   2.349   0.287   9.007  2.3648 -0.2791  0.2405
 8765SOL     OW27427   8.343   1.505   3.338 -0.6222 -0.3276 -0.5015
 8765SOL    HW127428   8.358   1.530   3.247 -2.0449  0.6742 -0.4847
 8765SOL    HW227429   8.418   1.542   3.385 -1.5176  2.0470 -0.8094
 8766SOL     OW27430   5.660   4.128   8.185  0.4433 -0.0311 -0.2378
 8766SOL    HW127431   5.694   4.209   8.146  0.7343 -0.6991 -1.4210
 8766SOL    HW227432   5.723   4.105   8.253  0.1838  0.8982  0.3405
 8767SOL     OW27433   6.322   1.916   4.646  0.3460  0.7554 -0.1811
 8767SOL    HW127434   6.397   1.863   4.619 -0.2733  0.3184 -1.0777
 8767SOL    HW227435   6.247   1.858   4.638 -0.4254  1.9006 -1.7143
 8768SOL     OW27436   0.674   0.317   5.480 -0.2139 -0.2024  0.2017
 8768SOL    HW127437   0.755   0.274   5.510  0.0420  0.9794  1.3103
 8768SOL    HW227438   0.604   0.269   5.524 -0.0401 -0.5265  0.1299
 8769SOL     OW27439   5.728   5.016   6.400 -0.1523 -0.1916 -0.6169
 8769SOL    HW127440   5.770   5.021   6.486 -1.8488  0.4481  0.2050
 8769SOL    HW227441   5.676   4.936   6.403  0.3273 -0.5452 -1.3352
 8770SOL     OW27442   1.087   0.725   5.766 -0.0488 -0.2143  0.1151
 8770SOL    HW127443   1.122   0.712   5.854 -0.2096  1.3047  0.4144
 8770SOL    HW227444   1.075   0.819   5.758 -2.7256 -0.5331 -0.4909
 8771SOL     OW27445   2.067   7.321   2.730  0.0735  0.7174 -0.0351
 8771SOL    HW127446   2.023   7.388   2.782 -1.2535  0.3606 -0.6454
 8771SOL    HW227447   2.039   7.339   2.640  0.2453 -0.2438 -0.2876
 8772SOL     OW27448   8.160   4.156   4.949 -0.6908 -0.1801  0.2780
 8772SOL    HW127449   8.241   4.196   4.980 -0.6287 -1.3304  1.6944
 8772SOL    HW227450   8.187   4.070   4.917 -1.2869 -0.3908  0.3311
 8773SOL     OW27451   4.773   1.397   4.384  0.5391 -0.4084 -0.1054
 8773SOL    HW127452   4.749   1.320   4.333 -2.2570  0.8906 -0.9196
 8773SOL    HW227453   4.847   1.436   4.336  0.5284 -1.3557 -0.9187
 8774SOL     OW27454   6.531   5.116   6.853 -0.3319 -0.4132  0.6487
 8774SOL    HW127455   6.578   5.067   6.786 -0.4016  0.6043 -0.1526
 8774SOL    HW227456   6.494   5.048   6.910  1.3289 -1.2515  0.7861
 8775SOL     OW27457   6.828   1.184   1.533 -0.1337 -0.0819  0.6594
 8775SOL    HW127458   6.835   1.277   1.510 -1.2171 -0.0304  0.4857
 8775SOL    HW227459   6.755   1.181   1.596  0.1813 -0.7591  0.9971
 8776SOL     OW27460   6.292   7.880   7.511 -0.2772 -0.2646  0.1914
 8776SOL    HW127461   6.232   7.807   7.498 -0.9330  0.2024  0.5524
 8776SOL    HW227462   6.313   7.876   7.604  1.0496 -1.0232 -0.1140
 8777SOL     OW27463   4.271   5.051   3.980  0.6146  0.3066  0.2376
 8777SOL    HW127464   4.232   4.963   3.978  1.5980 -0.1406 -0.0413
 8777SOL    HW227465   4.212   5.104   3.926 -0.0840 -0.1317  0.5461
 8778SOL     OW27466   7.681   0.429   6.305  0.5973  0.3929  0.0506
 8778SOL    HW127467   7.608   0.381   6.267 -0.3686  1.4361  0.5532
 8778SOL    HW227468   7.700   0.382   6.387  0.0420  0.4974  0.2461
 8779SOL     OW27469   2.114   5.826   1.585 -0.1667 -0.4164  0.2024
 8779SOL    HW127470   2.146   5.905   1.541 -2.2410  0.6947  0.5694
 8779SOL    HW227471   2.033   5.804   1.538  0.1859 -2.1483  0.3380
 8780SOL     OW27472   7.387   8.317   7.256 -0.7263  0.3180  0.4809
 8780SOL    HW127473   7.362   8.259   7.328 -1.6551 -0.0461 -0.1121
 8780SOL    HW227474   7.482   8.318   7.257 -0.6514 -1.9534 -0.0426
 8781SOL     OW27475   5.173   5.756   2.267  0.8105 -0.4580  0.1797
 8781SOL    HW127476   5.115   5.774   2.341  0.1810 -1.6254 -0.0158
 8781SOL    HW227477   5.244   5.819   2.278  0.6880 -0.5350  1.7401
 8782SOL     OW27478   5.175   1.878   7.887  0.1440 -0.8181  0.0500
 8782SOL    HW127479   5.216   1.831   7.959 -1.3954 -2.7697 -0.2601
 8782SOL    HW227480   5.126   1.811   7.839  1.2564  0.3666 -2.9618
 8783SOL     OW27481   0.788   3.516   0.907 -0.2459 -0.4286  0.1679
 8783SOL    HW127482   0.857   3.568   0.867 -1.0858  0.4517 -0.1687
 8783SOL    HW227483   0.757   3.569   0.981 -0.5702 -0.8024  0.3054
 8784SOL     OW27484   4.851   6.149   2.630 -0.0680  0.4166 -0.1454
 8784SOL    HW127485   4.789   6.076   2.627  1.3278 -0.7861 -1.1704
 8784SOL    HW227486   4.802   6.224   2.597 -1.0165 -0.4592 -0.7811
 8785SOL     OW27487   6.472   7.564   6.574 -0.2641 -0.1148 -0.2468
 8785SOL    HW127488   6.475   7.623   6.498  0.5036 -0.7298 -0.7049
 8785SOL    HW227489   6.418   7.491   6.545 -0.0522 -0.3040 -0.1626
 8786SOL     OW27490   8.885   6.024   4.265 -0.0644  0.1749 -0.2295
 8786SOL    HW127491   8.908   6.116   4.279 -1.6996  0.4921  0.6099
 8786SOL    HW227492   8.879   6.016   4.170  0.4177  0.8319 -0.3309
 8787SOL     OW27493   5.488   1.543   6.496  0.5863  0.0788  1.2639
 8787SOL    HW127494   5.457   1.632   6.510  1.1347  0.6847 -0.9418
 8787SOL    HW227495   5.562   1.533   6.556  1.2288  1.5359  0.7632
 8788SOL     OW27496   2.843   9.048   2.973  0.3442  0.1038  0.0726
 8788SOL    HW127497   2.810   8.961   2.992  0.1932  0.5738  2.2125
 8788SOL    HW227498   2.927   9.052   3.019  1.1211  0.5646 -1.3255
 8789SOL     OW27499   8.594   2.158   6.829  0.2681 -0.4676 -0.0175
 8789SOL    HW127500   8.633   2.083   6.784  0.9363  0.0366 -0.3117
 8789SOL    HW227501   8.504   2.162   6.797  0.9218  0.3256 -1.9480
 8790SOL     OW27502   8.112   2.552   8.472 -0.1114  0.1429 -0.0224
 8790SOL    HW127503   8.089   2.605   8.548 -0.8103  0.7035 -0.6146
 8790SOL    HW227504   8.050   2.579   8.404  0.9752  0.1696 -1.0196
 8791SOL     OW27505   4.675   6.953   1.773  0.4426  0.7862 -0.1062
 8791SOL    HW127506   4.694   6.999   1.855 -0.2084  0.3930  0.2731
 8791SOL    HW227507   4.665   6.862   1.799 -0.4994  0.7682 -0.5037
 8792SOL     OW27508   8.176   6.577   5.476 -0.1490 -0.4733  0.9401
 8792SOL    HW127509   8.181   6.544   5.565 -0.8003 -1.2265  0.7092
 8792SOL    HW227510   8.091   6.622   5.472 -0.4790 -1.1197  0.4879
 8793SOL     OW27511   8.203   6.804   8.382 -0.0807  0.0377 -0.0575
 8793SOL    HW127512   8.252   6.848   8.313 -1.7043  0.1905 -1.1468
 8793SOL    HW227513   8.208   6.865   8.456  0.3224  0.6112 -0.5406
 8794SOL     OW27514   7.905   1.835   1.513  0.4683 -0.1572 -0.2411
 8794SOL    HW127515   7.990   1.795   1.531  0.9682  0.9651 -0.0419
 8794SOL    HW227516   7.909   1.858   1.420  0.4291  0.0041 -0.2027
 8795SOL     OW27517   0.649   3.607   2.884 -0.1724  0.1693  0.2453
 8795SOL    HW127518   0.649   3.617   2.980  0.6722 -0.1218  0.2853
 8795SOL    HW227519   0.608   3.687   2.852  0.0452  0.5215  0.8297
 8796SOL     OW27520   3.128   1.196   3.382  0.4058  0.3583  0.3350
 8796SOL    HW127521   3.083   1.121   3.343 -0.0377  0.0090  1.4746
 8796SOL    HW227522   3.129   1.262   3.313  0.3767 -0.5242 -0.5303
 8797SOL     OW27523   8.680   3.918   4.497 -0.6118 -0.4377 -0.4358
 8797SOL    HW127524   8.749   3.852   4.486 -0.5636 -0.2247 -1.5340
 8797SOL    HW227525   8.728   4.001   4.507 -0.6780 -0.0834 -2.6051
 8798SOL     OW27526   7.200   8.072   2.682  0.1308  0.5373 -0.0855
 8798SOL    HW127527   7.122   8.069   2.627  1.2008 -0.6621 -1.6317
 8798SOL    HW227528   7.262   8.126   2.634  1.4618 -1.4043 -0.6659
 8799SOL     OW27529   5.816   3.094   7.021 -0.9291  0.4690  0.5153
 8799SOL    HW127530   5.741   3.147   6.996 -1.7060 -1.3625 -1.3585
 8799SOL    HW227531   5.819   3.025   6.955  2.2970  0.3429  0.6438
 8800SOL     OW27532   3.980   6.600   4.867  0.5820 -0.1161  0.3157
 8800SOL    HW127533   3.890   6.634   4.868 -0.2942 -2.2200 -0.5465
 8800SOL    HW227534   4.017   6.634   4.786 -0.6321 -1.9271 -1.0738
 8801SOL     OW27535   3.796   1.868   1.372 -0.4045  0.8621  0.7235
 8801SOL    HW127536   3.854   1.899   1.442 -0.1352  1.4787  0.2410
 8801SOL    HW227537   3.780   1.776   1.393 -0.8333  1.2005  1.9404
 8802SOL     OW27538   4.904   6.815   6.653 -0.4894  0.2492  0.7001
 8802SOL    HW127539   4.906   6.719   6.653  1.2454  0.2584  0.7343
 8802SOL    HW227540   4.920   6.839   6.745  1.3947  0.5474  0.3379
 8803SOL     OW27541   5.713   7.978   1.058  0.2136 -0.2811 -0.0297
 8803SOL    HW127542   5.668   7.895   1.041  0.5446 -0.5097  0.1931
 8803SOL    HW227543   5.713   8.022   0.973  0.4916 -0.7382 -0.2754
 8804SOL     OW27544   6.573   5.881   7.660  0.1709  0.1901 -0.0656
 8804SOL    HW127545   6.562   5.920   7.573 -0.1802  1.4246  0.5241
 8804SOL    HW227546   6.502   5.918   7.712 -0.1190 -1.1716  0.5525
 8805SOL     OW27547   3.727   5.833   6.586  0.4566  0.2029 -0.7472
 8805SOL    HW127548   3.722   5.799   6.676  0.9534  0.8679 -0.4623
 8805SOL    HW227549   3.738   5.754   6.532  2.3470 -0.0807 -0.0278
 8806SOL     OW27550   3.619   0.415   6.870 -0.0980 -0.2086 -0.3706
 8806SOL    HW127551   3.701   0.457   6.895 -1.3022  1.2996  1.3468
 8806SOL    HW227552   3.556   0.487   6.864 -1.4685 -1.3931 -0.9732
 8807SOL     OW27553   7.039   7.783   7.673  0.1607  0.5373  0.2898
 8807SOL    HW127554   7.021   7.762   7.765 -0.7571  2.0240  0.4869
 8807SOL    HW227555   6.953   7.797   7.634  0.4747 -1.2853 -1.1442
 8808SOL     OW27556   6.596   1.795   8.503  0.1386  0.1688 -0.0794
 8808SOL    HW127557   6.651   1.787   8.580  0.5446  0.8047 -0.2971
 8808SOL    HW227558   6.656   1.785   8.429 -0.2637 -0.5373 -0.3110
 8809SOL     OW27559   8.619   8.345   4.225  0.5727 -0.9115 -0.3793
 8809SOL    HW127560   8.597   8.438   4.226 -3.7872 -1.7002 -1.5941
 8809SOL    HW227561   8.620   8.320   4.317 -2.5773 -0.3424 -0.0747
 8810SOL     OW27562   0.083   5.893   8.152 -0.5599 -0.6611  0.5486
 8810SOL    HW127563  -0.008   5.915   8.173 -0.7229 -0.0311 -0.6955
 8810SOL    HW227564   0.135   5.953   8.205 -0.9380  0.4062 -0.2453
 8811SOL     OW27565   5.500   2.195   4.919 -0.4723  0.0277 -0.1426
 8811SOL    HW127566   5.493   2.206   5.014 -1.4469  0.4924 -0.2649
 8811SOL    HW227567   5.594   2.182   4.904 -0.2398  0.5093  0.8214
 8812SOL     OW27568   1.112   8.816   2.062 -0.3010  0.5919  0.4569
 8812SOL    HW127569   1.039   8.783   2.009  1.1669 -0.5704 -0.9463
 8812SOL    HW227570   1.086   8.905   2.087 -2.0846  0.2840 -0.1666
 8813SOL     OW27571   8.255   0.234   5.534  0.1410 -0.1401 -0.2901
 8813SOL    HW127572   8.174   0.254   5.580 -0.3572 -0.3478 -1.0547
 8813SOL    HW227573   8.234   0.248   5.441  1.1381  0.3706 -0.4631
 8814SOL     OW27574   5.332   4.837   2.418 -0.3117 -0.2138 -0.1957
 8814SOL    HW127575   5.406   4.838   2.357  0.1869  2.1164  0.3542
 8814SOL    HW227576   5.371   4.854   2.504 -1.2631 -1.1340  0.4317
 8815SOL     OW27577   6.039   6.965   3.719 -0.0081  0.0424  0.3245
 8815SOL    HW127578   6.071   6.946   3.807  1.6712 -1.1628 -0.4925
 8815SOL    HW227579   5.952   6.926   3.717  0.6357 -1.5310  0.9221
 8816SOL     OW27580   3.272   8.405   0.368  0.0032  0.1498  0.6423
 8816SOL    HW127581   3.283   8.332   0.428  0.6805 -1.4974 -1.3799
 8816SOL    HW227582   3.322   8.381   0.291 -1.6754  1.6920 -1.0389
 8817SOL     OW27583   2.164   4.693   0.943  0.1474  0.0798 -0.5477
 8817SOL    HW127584   2.157   4.627   0.874 -1.3949 -0.6985  0.2983
 8817SOL    HW227585   2.074   4.706   0.973  0.8315 -0.1964  1.8323
 8818SOL     OW27586   1.551   3.136   2.562 -0.0521  0.0436  0.1917
 8818SOL    HW127587   1.481   3.195   2.590 -2.0446 -2.4650  0.8761
 8818SOL    HW227588   1.621   3.150   2.625 -0.5953  1.3894  0.5277
 8819SOL     OW27589   7.018   4.502   2.140 -0.5686 -0.1629  0.1783
 8819SOL    HW127590   6.929   4.508   2.105 -0.6319 -0.7168  0.2419
 8819SOL    HW227591   7.043   4.410   2.129 -0.1474 -0.0932  0.5102
 8820SOL     OW27592   0.829   0.706   5.547  0.4608 -0.5047  0.2323
 8820SOL    HW127593   0.891   0.673   5.482 -0.3058 -0.0521 -0.7573
 8820SOL    HW227594   0.743   0.680   5.514 -0.3241  3.2385 -1.2134
 8821SOL     OW27595   8.482   1.916   2.634 -0.3867  0.4991 -0.4442
 8821SOL    HW127596   8.458   1.982   2.699 -0.3672 -0.0918  0.1738
 8821SOL    HW227597   8.398   1.890   2.596 -0.4577  0.4453 -0.2560
 8822SOL     OW27598   4.314   6.861   7.796 -0.2512 -0.0154  0.0560
 8822SOL    HW127599   4.376   6.925   7.832  0.7939 -0.8678 -0.1807
 8822SOL    HW227600   4.363   6.817   7.727 -2.0926  1.3179 -2.2168
 8823SOL     OW27601   9.055   4.319   1.407  0.8341 -1.0391 -0.1434
 8823SOL    HW127602   8.974   4.369   1.415  1.4944 -0.2662  3.1129
 8823SOL    HW227603   9.032   4.231   1.437  0.9063 -1.1872 -0.5204
 8824SOL     OW27604   4.993   3.122   0.980 -0.2770  0.2968 -0.0109
 8824SOL    HW127605   4.943   3.041   0.985 -0.4536  0.3142 -1.1378
 8824SOL    HW227606   5.058   3.114   1.050 -1.0440 -0.2764  0.6679
 8825SOL     OW27607   4.158   6.535   7.717 -0.4231  0.2944 -0.0096
 8825SOL    HW127608   4.234   6.554   7.662  1.1045 -1.9278  1.1994
 8825SOL    HW227609   4.117   6.621   7.732  1.9349  1.5885 -0.5447
 8826SOL     OW27610   8.374   8.474   6.061  0.1134  0.1604 -0.1061
 8826SOL    HW127611   8.435   8.536   6.102  0.1501  1.3831 -1.9078
 8826SOL    HW227612   8.372   8.500   5.969 -1.4418 -1.2696 -0.5130
 8827SOL     OW27613   7.826   8.292   6.988 -0.2413 -0.1080 -0.2746
 8827SOL    HW127614   7.913   8.266   7.019 -1.3882 -0.8123  2.7190
 8827SOL    HW227615   7.824   8.387   6.999  0.1600 -0.0761 -0.4517
 8828SOL     OW27616   1.872   5.756   1.496 -0.3130 -0.1531  0.0579
 8828SOL    HW127617   1.794   5.778   1.446 -1.1402  2.2085  2.1991
 8828SOL    HW227618   1.841   5.697   1.565 -1.0496  3.1169  2.7942
 8829SOL     OW27619   5.355   3.474   2.953 -0.2616  0.2167 -0.4669
 8829SOL    HW127620   5.276   3.436   2.916  1.6663 -1.7016 -2.8897
 8829SOL    HW227621   5.384   3.411   3.019  0.4184 -0.2222 -1.1703
 8830SOL     OW27622   2.242   6.810   1.218  0.3557 -0.3092 -0.2375
 8830SOL    HW127623   2.306   6.754   1.262  1.1725  0.9412  0.2461
 8830SOL    HW227624   2.157   6.778   1.248  0.8514 -0.4799  1.0425
 8831SOL     OW27625   5.054   1.848   7.526  0.5822  0.1712 -0.2181
 8831SOL    HW127626   5.130   1.791   7.513  0.4299  0.0351 -0.5318
 8831SOL    HW227627   5.038   1.886   7.440 -1.0977 -1.5547 -0.7517
 8832SOL     OW27628   0.709   8.115   5.260  0.2975 -0.5969  0.2638
 8832SOL    HW127629   0.650   8.180   5.297  0.0243 -0.2018 -0.8242
 8832SOL    HW227630   0.654   8.063   5.201  0.4464 -2.0126  1.3116
 8833SOL     OW27631   1.536   8.382   8.015  0.4967 -0.0312 -0.1480
 8833SOL    HW127632   1.543   8.445   7.943 -0.5081 -1.1916 -1.3226
 8833SOL    HW227633   1.611   8.324   8.004 -0.2243 -0.8496 -0.9546
 8834SOL     OW27634   4.529   4.520   3.482 -0.3632  0.1246  0.0423
 8834SOL    HW127635   4.494   4.452   3.425 -0.9181 -0.7661  1.3963
 8834SOL    HW227636   4.452   4.561   3.522  0.0217 -0.2325  1.2085
 8835SOL     OW27637   6.109   7.616   5.382 -0.7617 -0.3418 -0.2466
 8835SOL    HW127638   6.034   7.608   5.441 -1.0873 -0.6972 -0.7009
 8835SOL    HW227639   6.119   7.710   5.369 -0.8422 -0.2743  0.1793
 8836SOL     OW27640   8.450   8.828   6.148 -0.4966  0.8231  0.4305
 8836SOL    HW127641   8.450   8.795   6.238 -0.9044  1.1491  0.5551
 8836SOL    HW227642   8.539   8.861   6.134 -0.6237  1.4003  0.9540
 8837SOL     OW27643   5.604   1.650   4.373  0.4660  0.3189 -0.1754
 8837SOL    HW127644   5.542   1.675   4.304 -0.4437  0.9563  0.8483
 8837SOL    HW227645   5.675   1.715   4.365  1.0791 -0.4600 -1.3969
 8838SOL     OW27646   4.530   4.925   4.277  0.0722  0.2844  0.2170
 8838SOL    HW127647   4.458   4.973   4.318  1.7664  2.0131  1.3543
 8838SOL    HW227648   4.517   4.834   4.304 -2.0855  0.3873 -0.2774
 8839SOL     OW27649   5.606   8.614   8.179  0.1781  0.0380 -0.2134
 8839SOL    HW127650   5.550   8.556   8.230  0.3929  1.6833  2.0948
 8839SOL    HW227651   5.586   8.702   8.212  2.6314  0.8831 -0.7182
 8840SOL     OW27652   5.922   7.753   0.605 -0.4799  0.0955  0.1318
 8840SOL    HW127653   5.892   7.676   0.557 -1.4529  0.7550 -0.3584
 8840SOL    HW227654   5.856   7.820   0.586  0.8768  1.3700 -0.3192
 8841SOL     OW27655   6.176   4.229   4.517 -0.0335  0.4592 -0.3211
 8841SOL    HW127656   6.174   4.189   4.431  0.6919  2.0425 -1.1138
 8841SOL    HW227657   6.219   4.313   4.504 -2.2104  1.8925  1.1025
 8842SOL     OW27658   2.166   2.276   7.124 -0.0046  0.5892  0.5519
 8842SOL    HW127659   2.246   2.257   7.075 -0.0921  1.4376  0.0609
 8842SOL    HW227660   2.102   2.302   7.057 -0.8133 -0.4598  0.9007
 8843SOL     OW27661   4.196   7.594   7.551 -0.2007  0.2009  0.0627
 8843SOL    HW127662   4.166   7.510   7.516 -0.3285  0.5443 -0.6667
 8843SOL    HW227663   4.272   7.572   7.605 -1.9285 -0.7495  2.2809
 8844SOL     OW27664   0.799   7.943   7.929 -0.4449 -0.6183  0.0482
 8844SOL    HW127665   0.841   7.979   7.850 -0.7605 -0.7745 -0.1903
 8844SOL    HW227666   0.713   7.914   7.900 -0.6041 -0.5803  0.4766
 8845SOL     OW27667   3.331   5.937   6.701 -0.4958  0.2819 -0.1210
 8845SOL    HW127668   3.294   5.930   6.789  2.8449  0.6545  1.4755
 8845SOL    HW227669   3.349   6.030   6.691  0.6619  0.0282 -0.4790
 8846SOL     OW27670   3.038   4.915   5.087  0.1879 -0.3009  0.4441
 8846SOL    HW127671   3.004   4.849   5.147 -1.2720  1.4021  1.5649
 8846SOL    HW227672   2.971   4.923   5.020  1.3030 -1.3752 -0.8592
 8847SOL     OW27673   8.174   8.856   8.996 -0.1209  0.0629 -0.1078
 8847SOL    HW127674   8.171   8.882   8.904  0.3416 -0.8180 -0.3909
 8847SOL    HW227675   8.236   8.917   9.036 -0.1248  0.2897 -0.4446
 8848SOL     OW27676   1.182   2.904   0.369 -0.0276  0.2548  0.0485
 8848SOL    HW127677   1.234   2.984   0.366  0.5089 -0.1019 -0.3743
 8848SOL    HW227678   1.114   2.917   0.303  1.0164 -0.2740 -1.1710
 8849SOL     OW27679   1.341   0.060   8.859  0.5542  0.3957 -0.0597
 8849SOL    HW127680   1.373  -0.008   8.799  2.4320  1.5370 -0.4389
 8849SOL    HW227681   1.309   0.012   8.935  1.0221 -0.9462 -0.6699
 8850SOL     OW27682   3.229   7.969   2.568  0.2396  0.3372  0.1701
 8850SOL    HW127683   3.208   8.057   2.536  0.3571  1.3221  2.5971
 8850SOL    HW227684   3.314   7.979   2.610 -0.0109 -0.8093  0.9748
 8851SOL     OW27685   3.904   0.414   6.892  0.9319  0.2016 -0.0594
 8851SOL    HW127686   3.986   0.449   6.856  1.2480 -0.2310  0.2334
 8851SOL    HW227687   3.932   0.359   6.965  0.2651  1.9443  1.6012
 8852SOL     OW27688   2.007   1.797   4.054  0.2065  0.0329 -0.2023
 8852SOL    HW127689   1.971   1.825   4.138  0.0450 -0.2862 -0.1639
 8852SOL    HW227690   2.032   1.879   4.011  3.0297  0.1128  1.3365
 8853SOL     OW27691   7.829   5.351   3.350  0.7109  0.3124  0.3227
 8853SOL    HW127692   7.870   5.265   3.343  1.5203  0.5775  1.4713
 8853SOL    HW227693   7.768   5.355   3.276  0.6204 -1.2638  0.2740
 8854SOL     OW27694   2.814   2.490   1.287 -0.1963  0.5027 -0.8534
 8854SOL    HW127695   2.892   2.532   1.251 -0.1375  0.1709 -1.1178
 8854SOL    HW227696   2.844   2.403   1.314  0.0117  1.0724  0.9256
 8855SOL     OW27697   5.719   2.068   4.551 -0.6577 -0.2910  0.3816
 8855SOL    HW127698   5.671   2.122   4.489  0.9385 -1.2419 -1.7988
 8855SOL    HW227699   5.736   1.986   4.504  0.8445 -0.9563  1.9614
 8856SOL     OW27700   6.932   3.443   7.119  0.3325 -0.1369 -0.2379
 8856SOL    HW127701   7.014   3.408   7.152 -0.4211 -1.1144  0.6881
 8856SOL    HW227702   6.867   3.419   7.185 -0.3788  2.5249  0.1606
 8857SOL     OW27703   6.450   0.880   7.314 -1.0621 -0.2880 -0.1696
 8857SOL    HW127704   6.489   0.810   7.368 -2.4039 -0.8451  0.1052
 8857SOL    HW227705   6.461   0.849   7.224  1.4397  0.7717 -0.3299
 8858SOL     OW27706   6.831   3.500   8.455 -0.1973 -0.3816  0.1180
 8858SOL    HW127707   6.794   3.445   8.386  0.3609  0.4518 -0.8879
 8858SOL    HW227708   6.893   3.444   8.501  0.0035 -0.7401 -0.5771
 8859SOL     OW27709   6.994   4.111   5.259 -0.8449  0.5079 -0.4705
 8859SOL    HW127710   7.061   4.167   5.297 -1.8101  0.7917  0.8661
 8859SOL    HW227711   7.042   4.053   5.200  0.1810  2.8567 -2.1037
 8860SOL     OW27712   8.957   2.801   7.947 -0.0292 -0.5385  0.1914
 8860SOL    HW127713   8.952   2.884   7.994  1.1758  0.1062 -0.7499
 8860SOL    HW227714   8.895   2.811   7.874 -2.6247 -1.8996  2.0471
 8861SOL     OW27715   8.543   2.628   5.723 -0.3180 -0.4200 -0.2996
 8861SOL    HW127716   8.456   2.663   5.701 -0.5569 -0.3405  0.7396
 8861SOL    HW227717   8.555   2.651   5.815  1.1422  0.2561 -0.6340
 8862SOL     OW27718   3.756   9.070   3.950 -0.2677  0.1391  0.3827
 8862SOL    HW127719   3.817   9.029   4.012 -0.0418  0.9761  0.7186
 8862SOL    HW227720   3.812   9.108   3.882 -0.5341 -1.6871 -0.9696
 8863SOL     OW27721   4.285   0.513   2.253  0.0212 -0.1345  0.2965
 8863SOL    HW127722   4.247   0.553   2.332 -0.9880  0.8461 -0.6552
 8863SOL    HW227723   4.254   0.568   2.181  0.8644 -1.0610 -0.8044
 8864SOL     OW27724   2.078   6.972   2.156  0.1266 -0.2965  0.0794
 8864SOL    HW127725   2.008   6.914   2.124 -1.7064  1.7863  0.0572
 8864SOL    HW227726   2.138   6.981   2.083 -0.9288 -0.1863 -0.8057
 8865SOL     OW27727   8.117   2.894   2.984  0.3104  0.1689 -0.6352
 8865SOL    HW127728   8.054   2.883   3.055 -0.1955 -0.5509 -1.1736
 8865SOL    HW227729   8.065   2.931   2.912  0.7221  0.4798 -0.7754
 8866SOL     OW27730   4.358   7.727   8.741 -0.5650  0.0824  0.0620
 8866SOL    HW127731   4.399   7.648   8.776  1.7199  1.0688 -0.1866
 8866SOL    HW227732   4.305   7.760   8.813  0.2353 -0.4869  0.9430
 8867SOL     OW27733   3.070   0.544   1.250  0.3463  0.1724  0.4221
 8867SOL    HW127734   3.061   0.479   1.181  2.9729  0.6330 -0.5100
 8867SOL    HW227735   3.037   0.502   1.329  1.5699 -2.1819 -0.2330
 8868SOL     OW27736   3.186   3.116   3.042 -0.3890 -0.0718 -0.1785
 8868SOL    HW127737   3.123   3.180   3.073 -1.5586 -1.1357 -0.2603
 8868SOL    HW227738   3.231   3.159   2.969 -1.2457  0.5976 -0.3220
 8869SOL     OW27739   2.787   7.469   6.611  0.0165 -0.3855  0.2999
 8869SOL    HW127740   2.779   7.375   6.591  0.9953 -0.4654  0.2560
 8869SOL    HW227741   2.702   7.505   6.587  0.1229 -1.0124 -1.0909
 8870SOL     OW27742   1.761   6.001   6.646  0.1443 -0.1889  0.3511
 8870SOL    HW127743   1.698   6.071   6.630  0.3656  0.0863  0.6686
 8870SOL    HW227744   1.748   5.940   6.574  1.6420  1.3889 -1.3411
 8871SOL     OW27745   0.552   0.314   1.266 -0.0416 -0.0328 -0.4741
 8871SOL    HW127746   0.608   0.385   1.234 -2.6254  2.1458 -0.5584
 8871SOL    HW227747   0.545   0.329   1.360 -1.0345  0.2018 -0.5705
 8872SOL     OW27748   3.596   5.021   7.177 -0.0117 -0.2946 -0.1784
 8872SOL    HW127749   3.666   4.959   7.197 -0.7239 -0.5315  1.8231
 8872SOL    HW227750   3.618   5.099   7.228  0.2529  0.7087 -1.7554
 8873SOL     OW27751   4.789   5.272   1.582 -0.2134 -0.3838  0.3454
 8873SOL    HW127752   4.764   5.263   1.674 -1.0778 -0.1000  0.1532
 8873SOL    HW227753   4.857   5.339   1.582 -1.0319  0.4800  0.6728
 8874SOL     OW27754   6.902   5.841   2.076  0.5009  0.6746  0.1269
 8874SOL    HW127755   6.959   5.881   2.141  1.5948  0.6962 -0.8005
 8874SOL    HW227756   6.888   5.752   2.108 -0.1155  1.1040  1.0744
 8875SOL     OW27757   6.732   7.338   7.656  0.0132 -0.1792 -0.2612
 8875SOL    HW127758   6.796   7.368   7.591 -0.4839  0.5898 -0.3977
 8875SOL    HW227759   6.702   7.254   7.622  0.8962 -0.5255 -0.2287
 8876SOL     OW27760   6.480   1.360   6.004 -0.6402 -0.1471 -0.5173
 8876SOL    HW127761   6.551   1.381   6.065 -0.9305 -0.5114 -0.0450
 8876SOL    HW227762   6.455   1.270   6.026  0.2660 -0.8563 -2.1830
 8877SOL     OW27763   6.631   9.092   1.805  0.1064  0.2964  0.7461
 8877SOL    HW127764   6.676   9.051   1.731  0.4042 -0.5726  1.3943
 8877SOL    HW227765   6.538   9.085   1.783  0.1536 -0.6687  0.7984
 8878SOL     OW27766   0.010   5.051   7.332  0.3075 -0.0105  0.3636
 8878SOL    HW127767   0.013   4.956   7.324  0.5860  0.0857 -0.9424
 8878SOL    HW227768  -0.065   5.077   7.279  2.0114  0.6881 -1.8435
 8879SOL     OW27769   1.653   2.840   4.914  0.1228  0.1229 -0.3084
 8879SOL    HW127770   1.630   2.822   4.823 -0.0489  0.2629 -0.2949
 8879SOL    HW227771   1.570   2.864   4.955  0.3633  1.1639 -0.3829
 8880SOL     OW27772   4.332   3.474   7.434  0.3478 -0.0904  0.2888
 8880SOL    HW127773   4.270   3.439   7.370 -0.0145 -1.4938  1.3407
 8880SOL    HW227774   4.407   3.503   7.382 -0.2891 -0.3842 -0.8286
 8881SOL     OW27775   6.246   5.098   1.119  0.0217 -0.0983  0.4517
 8881SOL    HW127776   6.265   5.027   1.179 -0.3252 -1.0625 -0.5531
 8881SOL    HW227777   6.158   5.079   1.085 -0.0850  0.8080  0.1755
 8882SOL     OW27778   0.266   3.704   7.180  0.1735 -0.0299  0.1060
 8882SOL    HW127779   0.359   3.727   7.184 -0.2202  1.5167  1.7526
 8882SOL    HW227780   0.262   3.614   7.212  1.0396  0.1501  0.7615
 8883SOL     OW27781   7.436   4.721   6.037  0.1354 -0.0330 -0.4050
 8883SOL    HW127782   7.469   4.632   6.021  0.5419  0.0942 -0.2779
 8883SOL    HW227783   7.342   4.714   6.022 -0.2728 -1.1261  2.1340
 8884SOL     OW27784   1.105   7.504   2.589  0.3325  0.2764 -0.9095
 8884SOL    HW127785   1.028   7.456   2.620  0.6197  1.2906  1.6167
 8884SOL    HW227786   1.103   7.587   2.636  1.9528  1.1460 -2.2461
 8885SOL     OW27787   0.079   7.524   6.365 -0.3574  0.5274 -0.8052
 8885SOL    HW127788   0.006   7.483   6.411  1.0714 -0.6752  0.4976
 8885SOL    HW227789   0.105   7.461   6.299  1.0612 -0.2179  0.3990
 8886SOL     OW27790   5.921   4.502   7.224 -0.6424  0.4696  0.6091
 8886SOL    HW127791   5.843   4.557   7.234 -2.0241 -1.3172  0.3323
 8886SOL    HW227792   5.913   4.465   7.136  0.8979  0.7479  0.3255
 8887SOL     OW27793   8.100   6.646   1.455 -0.5224 -0.7211  0.4224
 8887SOL    HW127794   8.180   6.600   1.479 -0.4365  0.0211  1.6365
 8887SOL    HW227795   8.108   6.732   1.497  0.2316  1.2258 -3.2644
 8888SOL     OW27796   4.717   8.027   3.963 -0.0390 -0.3906 -0.1113
 8888SOL    HW127797   4.751   8.055   4.049 -2.2277  1.3314  0.2752
 8888SOL    HW227798   4.792   8.036   3.904  0.4473  2.6506  0.8114
 8889SOL     OW27799   1.258   7.672   7.645  0.0662  0.1602  0.2757
 8889SOL    HW127800   1.170   7.661   7.611 -0.2831  1.7054  0.6044
 8889SOL    HW227801   1.280   7.588   7.685 -1.8339  0.2016  1.5073
 8890SOL     OW27802   2.868   0.544   7.347 -0.6210  0.0875  0.6416
 8890SOL    HW127803   2.821   0.575   7.424  1.1722  1.1926  1.3701
 8890SOL    HW227804   2.954   0.518   7.381 -0.8838 -2.5695 -0.4990
 8891SOL     OW27805   8.855   7.910   6.439 -0.6190 -0.0921  0.5200
 8891SOL    HW127806   8.763   7.935   6.428 -0.0939  2.0904  0.4851
 8891SOL    HW227807   8.904   7.989   6.414  1.2336 -0.8714  1.4648
 8892SOL     OW27808   6.195   5.342   4.115 -0.3380  0.2462 -0.3982
 8892SOL    HW127809   6.159   5.293   4.041 -1.4668 -1.3220  1.0937
 8892SOL    HW227810   6.287   5.315   4.118  0.3802  2.1686 -2.5912
 8893SOL     OW27811   4.669   4.939   0.527  0.4800  0.0283 -0.3979
 8893SOL    HW127812   4.686   4.849   0.555  0.9050 -0.0080 -0.7764
 8893SOL    HW227813   4.603   4.971   0.590 -0.0609 -0.7154 -0.5751
 8894SOL     OW27814   6.680   2.019   3.793  0.0662 -0.4627  0.0700
 8894SOL    HW127815   6.711   2.029   3.883  0.9866 -2.2781  0.0032
 8894SOL    HW227816   6.593   1.981   3.801 -0.3996  0.6045  0.1949
 8895SOL     OW27817   9.109   6.010   1.246 -0.1654  0.4093 -0.1139
 8895SOL    HW127818   9.023   5.969   1.238 -0.0963  0.2981 -0.2747
 8895SOL    HW227819   9.165   5.941   1.280 -0.3913  0.7914  1.0904
 8896SOL     OW27820   1.583   1.660   3.227  0.5454 -0.1604 -0.2537
 8896SOL    HW127821   1.592   1.674   3.132  3.4119 -0.3885 -0.0906
 8896SOL    HW227822   1.638   1.727   3.267  2.3119 -2.2794  1.0774
 8897SOL     OW27823   4.445   5.311   5.142  0.1673 -0.4963  0.1175
 8897SOL    HW127824   4.468   5.354   5.060 -1.7982 -0.4621 -0.4712
 8897SOL    HW227825   4.529   5.294   5.185  1.1627  0.8185 -1.2057
 8898SOL     OW27826   6.466   7.878   8.257 -0.2693 -0.0836 -0.1430
 8898SOL    HW127827   6.399   7.898   8.323 -1.1409 -2.4122 -0.2435
 8898SOL    HW227828   6.429   7.806   8.207  1.3260  0.1857 -1.7898
 8899SOL     OW27829   3.996   5.612   3.430  0.4168 -0.8227 -0.1050
 8899SOL    HW127830   4.083   5.615   3.471 -0.0969  1.4319  0.9439
 8899SOL    HW227831   3.954   5.535   3.469  2.0035 -2.1521 -0.8777
 8900SOL     OW27832   5.908   0.189   6.490  0.1923 -0.3786 -0.0064
 8900SOL    HW127833   5.818   0.201   6.522  0.3331  1.2011 -0.1478
 8900SOL    HW227834   5.906   0.225   6.401  1.3209  1.1592  0.5513
 8901SOL     OW27835   8.903   1.969   2.587  0.1234 -0.0869 -0.0250
 8901SOL    HW127836   8.913   1.927   2.672 -3.1191 -1.4815 -0.1761
 8901SOL    HW227837   8.888   2.062   2.607 -1.5820 -0.5555  1.0762
 8902SOL     OW27838   3.130   7.404   8.410  0.5377 -0.3953  0.1713
 8902SOL    HW127839   3.152   7.370   8.497 -0.6908 -2.1645 -0.1513
 8902SOL    HW227840   3.212   7.439   8.376  0.9795  0.6240  2.1561
 8903SOL     OW27841   8.853   8.632   0.232  0.3640  0.6631 -0.4426
 8903SOL    HW127842   8.925   8.613   0.172  0.4215  0.3428 -0.2719
 8903SOL    HW227843   8.798   8.553   0.230  0.6949  0.3995  0.4007
 8904SOL     OW27844   4.529   7.277   8.100 -0.0219 -0.2490  0.1728
 8904SOL    HW127845   4.545   7.197   8.149 -1.0259 -1.1216 -0.8686
 8904SOL    HW227846   4.477   7.332   8.159  0.8729 -0.2314  0.9792
 8905SOL     OW27847   0.824   7.641   3.327  0.3663  0.4371 -0.1583
 8905SOL    HW127848   0.856   7.586   3.256  0.0022  0.3413 -0.2517
 8905SOL    HW227849   0.775   7.580   3.383  1.8813  0.2081  0.9748
 8906SOL     OW27850   7.332   2.401   5.269  0.3291  0.4466 -0.2963
 8906SOL    HW127851   7.266   2.346   5.311 -1.5156  1.2883 -1.9037
 8906SOL    HW227852   7.409   2.345   5.260 -0.8904 -1.2856 -0.3107
 8907SOL     OW27853   8.351   1.485   2.222  0.5645 -0.4692 -0.2949
 8907SOL    HW127854   8.347   1.578   2.245  0.5451 -0.5567  0.0540
 8907SOL    HW227855   8.372   1.440   2.304  1.7986 -0.6725 -0.6988
 8908SOL     OW27856   5.304   1.076   3.951  0.0097  0.2329  0.1538
 8908SOL    HW127857   5.301   1.096   3.858  2.2066  0.9398  0.1873
 8908SOL    HW227858   5.323   0.982   3.955  1.4483  0.4965 -0.1513
 8909SOL     OW27859   3.668   7.847   2.383 -0.4086  0.0276  0.1460
 8909SOL    HW127860   3.595   7.905   2.360  1.4726  1.9529 -1.4739
 8909SOL    HW227861   3.684   7.797   2.303 -1.9315 -2.8542  1.4818
 8910SOL     OW27862   0.342   4.729   0.284  0.1418 -0.0055 -0.1897
 8910SOL    HW127863   0.360   4.815   0.321  1.6084 -0.3419 -0.0545
 8910SOL    HW227864   0.384   4.668   0.344 -2.6235 -1.0255  0.8986
 8911SOL     OW27865   8.491   4.359   1.487 -0.2574 -0.1493  0.3320
 8911SOL    HW127866   8.407   4.317   1.468 -0.1348 -0.8816  1.3606
 8911SOL    HW227867   8.467   4.445   1.520 -0.5029  0.8176 -2.1292
 8912SOL     OW27868   7.467   0.621   8.579 -0.2881  0.8515  0.2921
 8912SOL    HW127869   7.460   0.564   8.655 -1.2755  0.7196  0.1188
 8912SOL    HW227870   7.552   0.664   8.589  0.5128 -0.6940  0.3823
 8913SOL     OW27871   3.622   0.149   1.441 -0.2015 -0.5510 -0.2170
 8913SOL    HW127872   3.537   0.132   1.482  0.2176 -3.1407 -0.2983
 8913SOL    HW227873   3.601   0.202   1.364 -1.7531 -1.1138 -0.2244
 8914SOL     OW27874   5.246   2.189   2.747 -0.6426  0.0551 -0.4413
 8914SOL    HW127875   5.329   2.170   2.703 -0.7863  2.2196 -1.8212
 8914SOL    HW227876   5.271   2.214   2.836  0.1003 -0.0571 -0.6076
 8915SOL     OW27877   5.404   7.696   2.726 -0.8242 -0.7657  0.5322
 8915SOL    HW127878   5.452   7.691   2.808 -0.6127 -1.1143  0.3880
 8915SOL    HW227879   5.339   7.765   2.740  0.6437  0.7351  0.2542
 8916SOL     OW27880   0.470   6.745   8.701  0.0675  0.4917  0.4448
 8916SOL    HW127881   0.556   6.725   8.739  0.5881  1.0661 -0.3807
 8916SOL    HW227882   0.420   6.782   8.773  1.6588  3.3778  0.2222
 8917SOL     OW27883   1.010   6.964   6.925  0.1062  0.0408  0.1989
 8917SOL    HW127884   1.027   6.875   6.956  1.0286  0.6641  1.6360
 8917SOL    HW227885   1.055   6.969   6.841 -0.5744 -1.0622 -0.2512
 8918SOL     OW27886   0.521   1.655   2.942 -0.0091  0.0231  0.3813
 8918SOL    HW127887   0.482   1.675   3.027  0.2954  1.8530  0.1295
 8918SOL    HW227888   0.611   1.631   2.961 -0.3846 -1.2066  0.6945
 8919SOL     OW27889   0.249   3.829   5.295 -0.6419  0.2777  0.0763
 8919SOL    HW127890   0.290   3.785   5.221 -1.0629  0.5143 -0.3024
 8919SOL    HW227891   0.179   3.771   5.323 -0.3405  0.0821  0.4390
 8920SOL     OW27892   1.748   1.918   5.746 -0.0172 -0.0177 -0.1245
 8920SOL    HW127893   1.656   1.932   5.766 -0.0761  1.2746 -1.1235
 8920SOL    HW227894   1.752   1.914   5.651  0.8962 -0.6003 -0.0764
 8921SOL     OW27895   1.266   1.146   4.224 -0.0002  0.2573 -0.8024
 8921SOL    HW127896   1.234   1.097   4.148 -0.5605  0.2714 -0.5853
 8921SOL    HW227897   1.217   1.228   4.222 -0.5169 -0.0151 -0.0615
 8922SOL     OW27898   5.046   3.157   2.932  0.0816  0.4219  0.5521
 8922SOL    HW127899   5.001   3.142   2.849 -0.9355  2.1156  0.7582
 8922SOL    HW227900   5.101   3.079   2.944 -0.5674 -0.3426 -1.1593
 8923SOL     OW27901   3.624   7.574   5.531  0.0365  0.3534 -0.1279
 8923SOL    HW127902   3.679   7.650   5.554  0.1162 -0.2714  2.0101
 8923SOL    HW227903   3.654   7.505   5.591 -4.0246  0.4052  2.3212
 8924SOL     OW27904   0.810   2.382   7.853  0.4070 -0.3446  0.0995
 8924SOL    HW127905   0.841   2.292   7.843  0.6322 -0.1843 -0.7165
 8924SOL    HW227906   0.751   2.379   7.928  0.5145 -1.1441  0.1619
 8925SOL     OW27907   0.323   6.662   3.600  0.1856  0.6064 -0.1288
 8925SOL    HW127908   0.390   6.616   3.652  0.3284  0.6155 -0.3034
 8925SOL    HW227909   0.306   6.604   3.526  1.4162  1.4542 -1.1306
 8926SOL     OW27910   8.552   6.715   7.413 -0.2057  0.3988  0.7317
 8926SOL    HW127911   8.636   6.727   7.369 -1.1125  1.5297 -0.8387
 8926SOL    HW227912   8.574   6.696   7.504  1.7327  0.8510  0.3956
 8927SOL     OW27913   2.475   4.652   6.048 -0.4289 -0.4744 -0.4118
 8927SOL    HW127914   2.427   4.614   6.121 -1.4734  0.5628 -0.5322
 8927SOL    HW227915   2.412   4.653   5.976 -0.7078  2.0199 -0.2441
 8928SOL     OW27916   5.465   6.227   5.935  0.4745 -0.3754  0.3418
 8928SOL    HW127917   5.539   6.206   5.878 -0.0345 -3.8081  0.7240
 8928SOL    HW227918   5.505   6.264   6.013  1.6847 -0.8842 -0.0140
 8929SOL     OW27919   0.930   6.788   5.205  0.2814  0.2297 -0.1999
 8929SOL    HW127920   0.973   6.792   5.119  2.0806 -0.2565  0.6246
 8929SOL    HW227921   0.876   6.867   5.208  0.3232  0.3452 -1.7037
 8930SOL     OW27922   8.031   7.681   2.232 -0.0008  0.2842  0.3439
 8930SOL    HW127923   8.013   7.775   2.229  0.4240  0.4463  2.1131
 8930SOL    HW227924   7.946   7.641   2.251 -0.3167  0.2217 -1.0700
 8931SOL     OW27925   5.676   8.458   7.627  0.6090 -0.6501  0.3694
 8931SOL    HW127926   5.712   8.470   7.714 -0.7792  0.1350  0.8627
 8931SOL    HW227927   5.634   8.541   7.606  0.3647 -1.0440 -0.7751
 8932SOL     OW27928   6.940   3.934   1.104  0.6913  0.1286 -0.0445
 8932SOL    HW127929   6.977   4.019   1.127  0.1984  0.4139 -0.2837
 8932SOL    HW227930   6.871   3.918   1.169 -1.9181  1.7545 -2.2188
 8933SOL     OW27931   5.956   5.533   8.183 -0.1638  0.0390 -0.2961
 8933SOL    HW127932   5.948   5.627   8.200 -1.7093  0.2309 -1.8169
 8933SOL    HW227933   5.871   5.509   8.147  0.3946 -1.8504 -0.4137
 8934SOL     OW27934   6.605   5.242   1.273 -0.0804  0.0509  0.0198
 8934SOL    HW127935   6.617   5.185   1.350 -2.4522 -0.3453  0.1492
 8934SOL    HW227936   6.608   5.182   1.199 -0.6512  0.0144  0.0217
 8935SOL     OW27937   4.105   3.657   8.284 -0.0303  0.1605 -0.0176
 8935SOL    HW127938   4.058   3.735   8.256  0.2165  0.8991  1.5375
 8935SOL    HW227939   4.196   3.684   8.288  0.2566 -0.6466 -0.9259
 8936SOL     OW27940   1.745   4.390   7.155 -0.1543 -0.7084 -0.3442
 8936SOL    HW127941   1.657   4.408   7.123  0.1359  1.3102 -0.1308
 8936SOL    HW227942   1.743   4.413   7.248  0.3958 -1.3983 -0.1525
 8937SOL     OW27943   8.872   2.936   5.717  0.1557 -0.0365 -0.3398
 8937SOL    HW127944   8.862   2.859   5.773 -0.1461  1.0643  1.1407
 8937SOL    HW227945   8.959   2.970   5.738 -1.0677  2.0556  1.6590
 8938SOL     OW27946   3.172   7.449   3.390 -0.4514  0.5415 -0.6583
 8938SOL    HW127947   3.118   7.518   3.430 -0.8710  0.4606 -1.0716
 8938SOL    HW227948   3.133   7.436   3.304 -0.7567 -0.6351 -0.3589
 8939SOL     OW27949   7.486   2.223   1.049 -0.4990  0.3085  0.1994
 8939SOL    HW127950   7.495   2.208   1.143 -1.4205 -0.6852  0.1410
 8939SOL    HW227951   7.541   2.156   1.008  2.7026  2.8240  0.0133
 8940SOL     OW27952   4.968   6.086   1.066  0.3115 -0.2401  0.1159
 8940SOL    HW127953   5.050   6.044   1.042  0.5276  0.0289  0.3866
 8940SOL    HW227954   4.908   6.064   0.994  0.4211 -0.9994  0.2488
 8941SOL     OW27955   8.186   7.839   6.936 -0.7137 -0.1421  0.2928
 8941SOL    HW127956   8.254   7.904   6.919 -0.8670  0.4441  1.7225
 8941SOL    HW227957   8.158   7.810   6.850  1.3544 -0.4236 -0.3460
 8942SOL     OW27958   8.782   3.265   8.231 -0.1279  0.6268 -0.2601
 8942SOL    HW127959   8.742   3.350   8.213  0.1606  0.7882 -0.1333
 8942SOL    HW227960   8.821   3.275   8.318 -0.0489  0.3795 -0.2663
 8943SOL     OW27961   5.287   6.700   0.048 -0.0487 -0.2231 -0.2815
 8943SOL    HW127962   5.332   6.692   0.132 -0.5847 -1.6665 -0.1103
 8943SOL    HW227963   5.295   6.614   0.007 -0.3408  0.2735 -1.4345
 8944SOL     OW27964   6.322   7.017   2.325 -0.0050 -0.5864  0.1240
 8944SOL    HW127965   6.372   7.098   2.316 -1.1697  0.1314 -0.1537
 8944SOL    HW227966   6.254   7.024   2.257 -0.9674 -1.1549  1.0061
 8945SOL     OW27967   7.799   1.764   1.115 -0.0569  0.4730  0.1797
 8945SOL    HW127968   7.733   1.794   1.178 -2.0714 -0.2123 -1.4672
 8945SOL    HW227969   7.765   1.680   1.083  2.4269 -0.6638  0.3374
 8946SOL     OW27970   5.437   1.011   1.547 -0.0596 -0.1782  0.0094
 8946SOL    HW127971   5.380   1.023   1.472  0.3355 -1.5533 -0.5342
 8946SOL    HW227972   5.499   1.084   1.542 -1.8942  1.5287  0.7941
 8947SOL     OW27973   3.550   8.478   0.972 -0.3600 -0.4348  0.6617
 8947SOL    HW127974   3.623   8.536   0.993 -0.3555 -0.3518  0.4194
 8947SOL    HW227975   3.538   8.426   1.051 -1.4377  1.0238  1.5209
 8948SOL     OW27976   2.046   5.272   2.425 -0.1188  0.2164  0.0874
 8948SOL    HW127977   1.972   5.253   2.482 -1.6877  1.9024 -1.2463
 8948SOL    HW227978   2.014   5.341   2.367  2.1227  0.1436 -1.3572
 8949SOL     OW27979   5.925   9.026   6.427  0.0813 -0.3038 -0.2900
 8949SOL    HW127980   5.975   8.995   6.502 -0.5559  0.0693  0.2963
 8949SOL    HW227981   5.917   9.120   6.440 -3.2477 -0.6655  1.2018
 8950SOL     OW27982   5.878   1.511   5.622 -0.2220 -0.0352  0.1045
 8950SOL    HW127983   5.826   1.489   5.698 -0.1976  1.8175  0.7183
 8950SOL    HW227984   5.819   1.498   5.547 -1.4490  1.5421  0.7418
 8951SOL     OW27985   7.855   3.785   8.676  0.0825 -0.0743 -0.7334
 8951SOL    HW127986   7.938   3.756   8.715  1.3312  0.2257 -2.9449
 8951SOL    HW227987   7.818   3.706   8.637 -0.5270 -0.1527  0.0046
 8952SOL     OW27988   5.824   0.699   2.288  0.5692  0.4869 -0.3688
 8952SOL    HW127989   5.920   0.705   2.282  0.7238 -0.9652  0.3219
 8952SOL    HW227990   5.804   0.723   2.378  0.7119 -3.0213  0.7449
 8953SOL     OW27991   0.984   5.958   6.348 -0.6905 -0.4038 -0.2517
 8953SOL    HW127992   1.007   5.877   6.303 -1.8996 -0.1291 -1.4179
 8953SOL    HW227993   0.917   5.998   6.293 -2.6747 -0.2973  2.0724
 8954SOL     OW27994   7.911   5.160   4.489  0.5765 -0.0188  0.2111
 8954SOL    HW127995   7.879   5.230   4.432  0.3220  0.1507  0.5570
 8954SOL    HW227996   7.914   5.082   4.434  0.0682  0.0831  0.0416
 8955SOL     OW27997   2.804   6.534   6.014 -0.3228  0.7346  0.5479
 8955SOL    HW127998   2.820   6.616   6.060  0.9047  1.3071 -0.8137
 8955SOL    HW227999   2.807   6.558   5.921  2.0068 -1.1412  0.0604
 8956SOL     OW28000   7.293   6.825   4.205  0.5256 -0.0040 -0.1305
 8956SOL    HW128001   7.361   6.806   4.269 -0.3959  0.0270  0.9031
 8956SOL    HW228002   7.238   6.892   4.248  0.1004  0.2962 -1.1104
 8957SOL     OW28003   0.608   6.520   1.786 -0.2450  0.1744  0.1711
 8957SOL    HW128004   0.664   6.564   1.722 -0.5146  1.8874  1.0676
 8957SOL    HW228005   0.537   6.582   1.803 -0.7950 -0.7182  1.2795
 8958SOL     OW28006   1.984   3.459   8.493 -0.7838  0.4104 -0.1776
 8958SOL    HW128007   1.980   3.428   8.583 -0.4255 -0.5483 -0.4811
 8958SOL    HW228008   2.049   3.529   8.493  1.8196 -1.8873 -0.3289
 8959SOL     OW28009   3.306   4.810   8.034 -0.0287 -0.1292 -0.6953
 8959SOL    HW128010   3.228   4.772   8.076  1.2967  0.7218  2.9588
 8959SOL    HW228011   3.272   4.878   7.976 -2.0624  0.4757  1.0607
 8960SOL     OW28012   5.284   7.922   6.640 -0.2269 -0.5479  0.4471
 8960SOL    HW128013   5.210   7.880   6.683 -0.7153 -0.2225 -0.0699
 8960SOL    HW228014   5.248   8.002   6.602 -0.0262 -1.2656 -1.3446
 8961SOL     OW28015   5.673   5.356   2.228 -0.4206 -0.4281  0.1813
 8961SOL    HW128016   5.606   5.306   2.181  0.6332  0.4154 -2.4031
 8961SOL    HW228017   5.749   5.298   2.231 -0.0473  0.0179 -0.4225
 8962SOL     OW28018   2.153   5.802   2.183 -0.3998  0.1140  0.3707
 8962SOL    HW128019   2.200   5.746   2.121 -1.5598  0.5311 -0.9163
 8962SOL    HW228020   2.147   5.749   2.263 -0.1691 -1.0173 -0.3368
 8963SOL     OW28021   6.715   5.276   0.928 -0.5089 -0.1906 -0.4164
 8963SOL    HW128022   6.620   5.280   0.941 -0.1767  1.6726  2.3425
 8963SOL    HW228023   6.737   5.184   0.936 -1.9553 -0.4821  0.5632
 8964SOL     OW28024   7.555   5.902   8.079  0.5390 -0.8033  0.6047
 8964SOL    HW128025   7.538   5.945   8.163  0.3476  1.4544 -0.4967
 8964SOL    HW228026   7.649   5.886   8.080  0.8522  0.8026  0.6166
 8965SOL     OW28027   4.562   0.111   8.617 -0.0199  0.2345  0.0920
 8965SOL    HW128028   4.631   0.074   8.563  0.2462 -3.0643  2.3954
 8965SOL    HW228029   4.608   0.164   8.682  0.1092 -0.0338  0.2176
 8966SOL     OW28030   6.427   7.545   5.513 -0.2572  0.5457  0.0074
 8966SOL    HW128031   6.412   7.453   5.495 -0.0296  0.0736  1.9563
 8966SOL    HW228032   6.348   7.574   5.559 -0.7871  1.6376 -1.5156
 8967SOL     OW28033   1.115   6.260   8.987  0.7744  0.4360 -0.3117
 8967SOL    HW128034   1.133   6.178   8.940  0.3766  0.9301 -1.3605
 8967SOL    HW228035   1.154   6.246   9.073  0.7318 -0.8533 -0.4675
 8968SOL     OW28036   7.074   2.769   6.930 -0.3916  0.4036 -0.1467
 8968SOL    HW128037   7.107   2.786   6.842 -0.2898  0.6288 -0.0669
 8968SOL    HW228038   6.988   2.812   6.932  0.0973  1.3869  0.2263
 8969SOL     OW28039   8.898   0.781   0.148 -0.2451 -0.3605  0.3800
 8969SOL    HW128040   8.983   0.768   0.108 -0.9150 -0.4478 -1.0716
 8969SOL    HW228041   8.915   0.835   0.226  0.9027  1.2273 -0.9185
 8970SOL     OW28042   4.039   2.544   0.254 -0.4922  0.1500 -0.2005
 8970SOL    HW128043   3.978   2.471   0.260 -1.4871  0.9101 -0.7315
 8970SOL    HW228044   4.007   2.596   0.180 -0.3301  1.5780  0.6871
 8971SOL     OW28045   7.081   7.265   3.033 -0.0735 -0.0136  0.1080
 8971SOL    HW128046   6.989   7.292   3.026 -1.0269 -2.4596  1.8331
 8971SOL    HW228047   7.118   7.323   3.099 -0.6671  0.2754  0.1977
 8972SOL     OW28048   5.408   4.619   6.761 -0.0105  0.3137  0.2913
 8972SOL    HW128049   5.429   4.608   6.668 -0.9568  0.5843  0.0356
 8972SOL    HW228050   5.448   4.544   6.804  0.8381  0.4350 -0.2664
 8973SOL     OW28051   3.505   8.997   2.275 -0.1338  0.2461  0.3145
 8973SOL    HW128052   3.451   8.971   2.200  1.8247  1.1900 -1.5022
 8973SOL    HW228053   3.562   8.922   2.291 -1.1287 -0.3030  1.5083
 8974SOL     OW28054   0.462   1.789   6.530 -0.4147 -0.2127 -0.0445
 8974SOL    HW128055   0.489   1.852   6.596 -1.5880  0.0861  0.1775
 8974SOL    HW228056   0.394   1.834   6.479 -1.1130 -1.1971 -0.0266
 8975SOL     OW28057   4.056   4.358   6.319  0.2074  0.1638  0.0080
 8975SOL    HW128058   4.060   4.407   6.401  1.6738  1.0424 -0.5383
 8975SOL    HW228059   4.075   4.267   6.344  1.1071  0.4985  0.6101
 8976SOL     OW28060   4.738   0.828   6.679 -0.0722  0.2745  0.1281
 8976SOL    HW128061   4.669   0.886   6.712 -0.2823  0.3155 -0.3729
 8976SOL    HW228062   4.812   0.842   6.738 -0.4637  0.2958  0.6157
 8977SOL     OW28063   8.201   1.769   3.710  0.5785  0.0701  0.8298
 8977SOL    HW128064   8.112   1.740   3.729  0.1337 -0.1731 -1.3812
 8977SOL    HW228065   8.191   1.860   3.682  0.7087 -0.4847 -1.2179
 8978SOL     OW28066   1.381   7.363   6.002  0.2507 -0.3930 -0.2099
 8978SOL    HW128067   1.439   7.439   6.000 -0.9331  0.6197  1.4656
 8978SOL    HW228068   1.305   7.391   5.951 -0.4474 -0.1986  0.9159
 8979SOL     OW28069   6.242   7.117   1.360  0.6207  0.5422 -0.1181
 8979SOL    HW128070   6.149   7.133   1.345  0.4918  0.4141  0.5430
 8979SOL    HW228071   6.276   7.201   1.392  0.1847 -0.1006  2.1947
 8980SOL     OW28072   2.389   6.672   3.035 -1.0563 -0.7752 -0.5880
 8980SOL    HW128073   2.369   6.627   3.117 -0.6915  1.9483  1.1229
 8980SOL    HW228074   2.344   6.756   3.043  1.9579  1.0667 -1.4783
 8981SOL     OW28075   0.235   1.883   6.133 -0.1513 -0.0232  0.3460
 8981SOL    HW128076   0.321   1.846   6.156  0.5442  1.7443  0.7744
 8981SOL    HW228077   0.231   1.877   6.037  1.1191  1.1669  0.1830
 8982SOL     OW28078   4.170   3.013   6.520  0.4751 -0.2576 -0.2045
 8982SOL    HW128079   4.115   3.080   6.561 -0.2979 -1.5127  0.9171
 8982SOL    HW228080   4.244   3.002   6.580  1.4960  0.7541 -1.2364
 8983SOL     OW28081   3.105   7.567   4.659  0.3106  0.7883 -0.4185
 8983SOL    HW128082   3.156   7.521   4.726 -0.7160  1.4811  0.8913
 8983SOL    HW228083   3.023   7.589   4.702 -1.1229 -0.2315 -2.4473
 8984SOL     OW28084   6.573   6.996   8.316 -0.5481  0.4025 -0.2424
 8984SOL    HW128085   6.558   7.023   8.225 -0.3930  2.3002  0.2484
 8984SOL    HW228086   6.663   6.963   8.317  0.3061  2.5790 -0.3528
 8985SOL     OW28087   2.504   0.145   5.794  0.4810  0.0055  0.4085
 8985SOL    HW128088   2.533   0.056   5.777  0.5421  0.2146 -0.6218
 8985SOL    HW228089   2.566   0.179   5.858  1.1999 -0.2749 -0.1337
 8986SOL     OW28090   2.942   8.840   5.317  0.8250 -0.1360 -0.0088
 8986SOL    HW128091   3.015   8.779   5.303 -0.2935 -1.0494 -2.4414
 8986SOL    HW228092   2.925   8.877   5.230 -2.0089 -0.4644  0.3226
 8987SOL     OW28093   7.304   2.078   1.302 -0.6882  0.3910 -0.4516
 8987SOL    HW128094   7.299   1.985   1.280 -0.9205  0.3570 -0.2615
 8987SOL    HW228095   7.281   2.082   1.395  4.1548  0.0737  1.0283
 8988SOL     OW28096   3.877   0.890   6.892  0.0889 -0.1601  0.0481
 8988SOL    HW128097   3.805   0.933   6.845  1.1129 -0.9854 -2.4659
 8988SOL    HW228098   3.935   0.962   6.916 -0.2396  0.2622 -0.3906
 8989SOL     OW28099   0.767   7.379   0.980  0.4416  0.6765  0.3662
 8989SOL    HW128100   0.757   7.393   1.074  0.2443 -0.2372  0.4898
 8989SOL    HW228101   0.858   7.404   0.961  0.5190  0.7392  0.8171
 8990SOL     OW28102   1.139   2.313   4.425 -0.0099 -0.1143 -0.3474
 8990SOL    HW128103   1.111   2.360   4.347 -0.6130 -0.8817 -0.5998
 8990SOL    HW228104   1.123   2.220   4.405  1.7620 -0.5167 -0.1222
 8991SOL     OW28105   2.261   7.271   0.416 -0.8725  0.2020  0.1235
 8991SOL    HW128106   2.286   7.193   0.466 -1.9756 -0.5574 -0.4715
 8991SOL    HW228107   2.274   7.343   0.478  0.0252 -0.4609  0.7346
 8992SOL     OW28108   0.576   5.067   3.677 -0.4331 -0.2205  0.5111
 8992SOL    HW128109   0.615   5.146   3.713 -0.8121 -0.4811  1.5271
 8992SOL    HW228110   0.533   5.025   3.751 -2.4909 -0.0507 -0.5108
 8993SOL     OW28111   7.037   0.327   7.691 -0.0340 -0.6777 -0.1491
 8993SOL    HW128112   7.124   0.288   7.704 -0.4000 -1.6007 -0.4118
 8993SOL    HW228113   6.997   0.325   7.778  0.0023 -0.7593 -0.1343
 8994SOL     OW28114   6.345   3.269   2.544 -0.0340 -0.4690 -0.1908
 8994SOL    HW128115   6.333   3.322   2.623 -3.0613 -0.7979 -0.2933
 8994SOL    HW228116   6.361   3.333   2.475 -0.3166  0.0755  0.2345
 8995SOL     OW28117   3.106   6.424   5.232  0.1048  0.0011 -0.6291
 8995SOL    HW128118   3.102   6.485   5.306 -1.1102  1.7879 -2.0855
 8995SOL    HW228119   3.097   6.338   5.272  0.8171  0.8026  1.4178
 8996SOL     OW28120   4.990   7.423   5.722  0.0891 -0.1934  0.0094
 8996SOL    HW128121   4.999   7.517   5.738 -0.9740 -0.1443  0.3767
 8996SOL    HW228122   5.077   7.387   5.741  0.5539  0.7368 -0.3318
 8997SOL     OW28123   2.015   6.688   7.663  0.0438  0.0383 -0.0310
 8997SOL    HW128124   1.935   6.740   7.665  0.8885  1.3606  1.2730
 8997SOL    HW228125   1.999   6.616   7.724 -0.4258 -0.1623 -0.3869
 8998SOL     OW28126   2.349   8.385   6.835  0.2401 -0.6072  0.0590
 8998SOL    HW128127   2.433   8.421   6.806 -0.9595  1.6689 -0.8099
 8998SOL    HW228128   2.355   8.386   6.930  0.1371  2.5609  0.1575
 8999SOL     OW28129   9.080   4.903   7.683 -0.1432  0.5742  0.0041
 8999SOL    HW128130   9.086   4.808   7.690 -0.9378  0.6041  1.5966
 8999SOL    HW228131   9.168   4.931   7.656 -0.0431 -0.6232 -1.0149
 9000SOL     OW28132   5.534   0.074   3.576  0.3211 -0.8011  0.2166
 9000SOL    HW128133   5.518   0.104   3.666  1.3385 -1.0633  0.5051
 9000SOL    HW228134   5.454   0.095   3.529 -0.1872 -0.5513  1.1617
 9001SOL     OW28135   7.127   8.294   1.633 -0.3018  0.1499  0.3234
 9001SOL    HW128136   7.180   8.352   1.578 -1.5927 -0.8711 -2.1360
 9001SOL    HW228137   7.057   8.349   1.666 -2.2322 -0.0790 -2.9804
 9002SOL     OW28138   8.856   2.095   7.374  0.6297  0.2623  0.2834
 9002SOL    HW128139   8.794   2.136   7.314  0.3861  0.6475  0.7925
 9002SOL    HW228140   8.804   2.071   7.450  1.0423  0.3051  0.5852
 9003SOL     OW28141   6.620   6.469   3.885 -0.1030  0.4565 -0.1412
 9003SOL    HW128142   6.656   6.463   3.973  1.1647 -0.5444 -0.6881
 9003SOL    HW228143   6.537   6.515   3.895 -0.0212  0.2653  1.5805
 9004SOL     OW28144   7.145   7.969   0.524 -0.1753  0.8898 -0.2817
 9004SOL    HW128145   7.099   7.967   0.608  1.6657  2.5593  0.8503
 9004SOL    HW228146   7.103   7.901   0.472 -1.8449  0.2792  1.7284
 9005SOL     OW28147   3.953   1.923   1.586 -0.0466 -0.2201 -0.2173
 9005SOL    HW128148   3.912   1.923   1.673 -1.4002 -1.2839 -0.8155
 9005SOL    HW228149   3.978   1.832   1.571 -0.5296 -0.2039 -1.2406
 9006SOL     OW28150   4.030   6.946   3.891 -0.1815  0.4230  0.0804
 9006SOL    HW128151   4.079   6.872   3.925 -1.5022  0.0756  1.3363
 9006SOL    HW228152   4.054   7.019   3.948  1.1565  1.0225 -1.1854
 9007SOL     OW28153   3.702   8.777   3.831  0.0186 -0.0329 -0.1295
 9007SOL    HW128154   3.608   8.795   3.826  0.2062  1.6426  1.4215
 9007SOL    HW228155   3.723   8.780   3.924  1.3975 -1.8291 -0.3032
 9008SOL     OW28156   0.779   5.005   1.239 -0.5300  0.3013 -0.6147
 9008SOL    HW128157   0.686   4.986   1.245 -0.1612 -1.6077 -0.2251
 9008SOL    HW228158   0.805   5.029   1.328 -0.6387  0.8403 -0.7246
 9009SOL     OW28159   5.552   5.808   6.910 -0.2631  0.5158  0.2450
 9009SOL    HW128160   5.510   5.821   6.995  0.3580 -0.5342  0.7252
 9009SOL    HW228161   5.600   5.726   6.919  2.9670  2.2381  0.1475
 9010SOL     OW28162   0.732   6.974   5.165  0.5709  0.1270 -0.1576
 9010SOL    HW128163   0.665   6.953   5.230 -0.6387 -0.0115 -1.4111
 9010SOL    HW228164   0.688   7.032   5.103  1.3977 -0.5037 -1.3757
 9011SOL     OW28165   6.081   0.611   7.170 -0.3411  0.3358  0.0840
 9011SOL    HW128166   6.065   0.639   7.260 -1.3070  0.8982 -0.2475
 9011SOL    HW228167   6.031   0.673   7.116  0.1619 -0.0362 -0.8344
 9012SOL     OW28168   4.969   8.571   5.185  0.7763  0.5281  0.2671
 9012SOL    HW128169   4.983   8.658   5.221  0.8655  0.2332  0.9697
 9012SOL    HW228170   4.874   8.560   5.184  0.7144  1.0490 -0.8642
 9013SOL     OW28171   0.287   3.349   3.882  0.0199 -0.0387 -0.2984
 9013SOL    HW128172   0.209   3.329   3.830 -0.0829  0.5738 -0.3849
 9013SOL    HW228173   0.331   3.418   3.832  0.6361 -0.4072 -0.2677
 9014SOL     OW28174   6.721   3.232   4.447  0.4513  0.1694 -0.6064
 9014SOL    HW128175   6.742   3.304   4.388  0.5814 -0.1975 -1.0146
 9014SOL    HW228176   6.626   3.238   4.460  0.3427 -0.0513 -1.2599
 9015SOL     OW28177   0.290   6.763   1.026  0.5354 -0.1241 -0.0978
 9015SOL    HW128178   0.302   6.782   0.932  3.3180 -0.8448  0.0212
 9015SOL    HW228179   0.220   6.822   1.053  1.6063  2.2217 -2.0376
 9016SOL     OW28180   3.718   4.937   0.514 -0.1885 -0.1704 -0.3604
 9016SOL    HW128181   3.680   4.997   0.578  2.5296  1.7622 -0.3798
 9016SOL    HW228182   3.725   4.853   0.561  1.1034  1.0214  1.7446
 9017SOL     OW28183   0.060   1.797   8.582 -0.1651 -0.1191 -0.2211
 9017SOL    HW128184   0.087   1.759   8.499 -2.3437  0.0356 -1.0819
 9017SOL    HW228185   0.011   1.727   8.625  1.8838 -0.5862  1.5265
 9018SOL     OW28186   5.594   3.243   6.907 -0.1696 -0.2791  0.3756
 9018SOL    HW128187   5.570   3.332   6.881  1.0084 -0.3715 -1.1620
 9018SOL    HW228188   5.510   3.196   6.908 -1.3286  1.4489  4.2926
 9019SOL     OW28189   5.083   3.012   2.013 -0.3910  0.4832  0.0613
 9019SOL    HW128190   5.129   3.092   1.991 -0.5938  0.8361  0.8949
 9019SOL    HW228191   5.003   3.041   2.057 -1.0348 -0.1408 -0.6493
 9020SOL     OW28192   7.442   1.719   2.493 -0.2495  0.2206 -0.6992
 9020SOL    HW128193   7.428   1.686   2.582  0.3791  0.1879 -0.6077
 9020SOL    HW228194   7.354   1.737   2.460 -0.5588 -0.8089 -0.4717
 9021SOL     OW28195   7.709   6.888   1.598  0.5366 -0.3013  0.0366
 9021SOL    HW128196   7.782   6.843   1.641  0.2086  0.9849  2.0417
 9021SOL    HW228197   7.675   6.824   1.535  2.0960 -1.6468  0.4946
 9022SOL     OW28198   5.749   3.986   5.648 -0.0172 -0.4494  0.1157
 9022SOL    HW128199   5.805   3.927   5.699 -0.1611  1.3608  2.5680
 9022SOL    HW228200   5.683   4.015   5.711 -1.2832  0.5977 -1.6333
 9023SOL     OW28201   4.165   1.588   2.822  0.0357 -0.0654  0.4765
 9023SOL    HW128202   4.208   1.504   2.810  1.4687  0.5907  0.7180
 9023SOL    HW228203   4.077   1.567   2.852  0.3092 -1.4657  0.3462
 9024SOL     OW28204   1.750   6.085   8.988 -0.7127  0.5032 -0.1191
 9024SOL    HW128205   1.694   6.021   9.033 -0.4242  1.4884  1.7614
 9024SOL    HW228206   1.704   6.105   8.907 -0.7461 -2.1570 -0.8748
 9025SOL     OW28207   4.446   6.133   9.022 -0.3680  0.0893 -0.2158
 9025SOL    HW128208   4.355   6.105   9.023 -0.3858  0.1420  0.3486
 9025SOL    HW228209   4.487   6.085   8.950 -0.0494 -2.5091  1.5703
 9026SOL     OW28210   7.439   3.934   5.495 -0.1676 -0.3049  0.3221
 9026SOL    HW128211   7.427   3.996   5.567 -0.9095  0.4709 -0.4382
 9026SOL    HW228212   7.353   3.895   5.482 -0.4788  0.7861 -1.1957
 9027SOL     OW28213   5.292   8.075   0.604 -0.1037 -0.4310 -0.3436
 9027SOL    HW128214   5.336   8.015   0.665  0.6888  0.8222  0.3816
 9027SOL    HW228215   5.245   8.018   0.544 -2.5948 -1.7500  2.5976
 9028SOL     OW28216   1.246   3.245   8.806 -0.4851  0.9056  0.0249
 9028SOL    HW128217   1.151   3.234   8.813 -0.2803 -1.7134 -0.1090
 9028SOL    HW228218   1.267   3.222   8.715  0.4631 -1.0143  0.6677
 9029SOL     OW28219   2.753   0.634   8.359 -0.3493  0.2202 -0.1974
 9029SOL    HW128220   2.756   0.626   8.264 -1.1461  1.1004 -0.3115
 9029SOL    HW228221   2.680   0.693   8.376  0.4379  0.9113  0.9107
 9030SOL     OW28222   6.313   3.022   7.183 -0.2232  0.2968 -0.2250
 9030SOL    HW128223   6.384   3.036   7.120 -0.6293  1.2129 -0.5006
 9030SOL    HW228224   6.234   3.048   7.136 -0.3784  2.5844  1.1461
 9031SOL     OW28225   6.916   3.631   5.366  0.0965  0.4445 -0.7258
 9031SOL    HW128226   6.877   3.555   5.410 -0.4631  2.1195  1.8686
 9031SOL    HW228227   6.845   3.695   5.363  1.2025  1.6956 -0.7522
 9032SOL     OW28228   5.732   4.690   7.233  0.0630  0.1480  0.1024
 9032SOL    HW128229   5.755   4.782   7.242  0.6276  0.1347 -1.0757
 9032SOL    HW228230   5.695   4.666   7.318 -0.7104  1.6240  0.2090
 9033SOL     OW28231   6.702   5.703   2.449 -0.3757  0.2068 -0.3311
 9033SOL    HW128232   6.705   5.612   2.420 -3.1770 -0.1610  0.2621
 9033SOL    HW228233   6.719   5.754   2.369  1.0367 -0.7879 -0.7011
 9034SOL     OW28234   3.788   5.024   3.577 -0.4517 -0.1139 -0.1689
 9034SOL    HW128235   3.817   5.010   3.668 -1.4685 -1.5583 -0.0380
 9034SOL    HW228236   3.855   5.081   3.540  0.6212 -0.4477  1.1535
 9035SOL     OW28237   2.360   6.636   9.067  0.4255  0.3586 -0.5943
 9035SOL    HW128238   2.392   6.689   8.994 -1.4230  1.9760 -0.3067
 9035SOL    HW228239   2.435   6.632   9.127  1.1528  1.2110 -1.3968
 9036SOL     OW28240   1.184   8.929   5.221 -0.2310 -0.0420  0.0282
 9036SOL    HW128241   1.203   8.849   5.171 -0.3191  1.0410 -1.8629
 9036SOL    HW228242   1.099   8.913   5.261 -0.8645 -0.4435 -1.4154
 9037SOL     OW28243   5.717   7.171   2.655 -0.3258 -0.2753  0.5618
 9037SOL    HW128244   5.688   7.176   2.747 -0.5077 -0.4038  0.5127
 9037SOL    HW228245   5.649   7.219   2.607 -0.3077 -0.3346  0.4786
 9038SOL     OW28246   5.832   3.899   0.769 -0.0995 -0.4043 -0.3243
 9038SOL    HW128247   5.785   3.921   0.689 -1.2546  1.1987  0.7455
 9038SOL    HW228248   5.921   3.929   0.754 -0.3679  0.0943 -0.9164
 9039SOL     OW28249   6.226   0.820   3.380  0.1955  0.2951  0.1996
 9039SOL    HW128250   6.189   0.868   3.454 -2.0872 -1.6683  0.4870
 9039SOL    HW228251   6.151   0.803   3.323  0.6654 -3.2465  0.3744
 9040SOL     OW28252   0.717   5.618   0.963 -0.3545  0.3670  0.0905
 9040SOL    HW128253   0.784   5.557   0.933 -1.4068 -1.0987  0.6157
 9040SOL    HW228254   0.764   5.702   0.972  1.1607 -0.3695 -0.4946
 9041SOL     OW28255   5.752   5.722   4.365 -0.3744  0.5349 -0.4175
 9041SOL    HW128256   5.679   5.724   4.427 -0.6073  1.2061 -0.7064
 9041SOL    HW228257   5.768   5.814   4.343  1.2878  0.5022  0.4873
 9042SOL     OW28258   5.719   8.144   3.199  0.0953  0.0661  0.0734
 9042SOL    HW128259   5.754   8.222   3.155  1.0525  2.1990  4.0486
 9042SOL    HW228260   5.627   8.164   3.213  0.3047  0.4638  0.9513
 9043SOL     OW28261   9.079   5.980   2.682  0.7044  0.1506  0.2307
 9043SOL    HW128262   9.055   6.073   2.683  0.5059  0.4014 -4.2407
 9043SOL    HW228263   9.175   5.980   2.685  0.7505  0.6520 -0.6282
 9044SOL     OW28264   0.499   2.223   2.851  0.7698 -0.3724  0.3186
 9044SOL    HW128265   0.509   2.275   2.930 -0.3398  1.7142 -0.8414
 9044SOL    HW228266   0.416   2.177   2.862  0.5220  0.0663  0.3128
 9045SOL     OW28267   5.140   1.402   6.043 -0.4668  0.0930  0.0332
 9045SOL    HW128268   5.062   1.365   6.084 -0.7487  0.5729 -0.0635
 9045SOL    HW228269   5.110   1.484   6.005 -0.5818 -0.9990 -2.4209
 9046SOL     OW28270   0.764   4.835   4.868  0.2200  0.1883  0.3205
 9046SOL    HW128271   0.726   4.778   4.801  1.4199 -0.6939  0.3622
 9046SOL    HW228272   0.688   4.875   4.911 -0.5853  0.1743 -1.0357
 9047SOL     OW28273   5.170   1.466   3.319  0.8314  0.0171  0.0897
 9047SOL    HW128274   5.124   1.444   3.400  1.7116 -0.3535  0.5014
 9047SOL    HW228275   5.256   1.424   3.328  1.2509  0.6947 -0.6635
 9048SOL     OW28276   1.082   9.100   2.478  0.4944  0.8451  1.1166
 9048SOL    HW128277   1.110   9.071   2.392 -0.6617 -0.8025  1.2504
 9048SOL    HW228278   1.073   9.019   2.529 -0.3380  1.6544  2.3143
 9049SOL     OW28279   8.445   0.991   4.871 -0.1148  0.3921 -0.1833
 9049SOL    HW128280   8.378   0.922   4.872  1.0339 -0.7954 -1.2410
 9049SOL    HW228281   8.521   0.950   4.829  0.1309  2.7771 -2.2721
 9050SOL     OW28282   3.395   7.993   5.241  0.8638 -0.0367  0.6315
 9050SOL    HW128283   3.334   8.065   5.229 -0.0852 -0.8665  0.2969
 9050SOL    HW228284   3.479   8.035   5.261  0.1378  1.1272  1.3484
 9051SOL     OW28285   4.723   5.213   7.308 -0.0932 -0.5984 -0.1150
 9051SOL    HW128286   4.786   5.285   7.298 -1.5048  0.6568 -0.3721
 9051SOL    HW228287   4.769   5.136   7.274  1.2482  0.3011 -0.4139
 9052SOL     OW28288   7.044   2.351   7.402  0.0921 -0.1306 -0.6539
 9052SOL    HW128289   7.077   2.287   7.339 -0.2749 -0.0196 -0.9641
 9052SOL    HW228290   7.002   2.418   7.348  1.6808  1.1189 -0.4397
 9053SOL     OW28291   1.570   7.463   5.175  0.1519 -0.3740  0.0787
 9053SOL    HW128292   1.497   7.431   5.121 -0.8575 -0.9587  1.7160
 9053SOL    HW228293   1.564   7.559   5.169  1.6478 -0.3657 -2.8389
 9054SOL     OW28294   5.422   5.937   6.118  0.4786 -0.2034 -0.2210
 9054SOL    HW128295   5.501   5.898   6.083  0.8196 -0.3140  0.6430
 9054SOL    HW228296   5.351   5.880   6.087  0.9135 -1.1809  0.5282
 9055SOL     OW28297   4.423   5.128   8.028  0.4232 -0.7819  0.3558
 9055SOL    HW128298   4.513   5.159   8.037  0.6062 -0.1505 -2.7259
 9055SOL    HW228299   4.427   5.036   8.055  2.3228 -1.1461 -0.9701
 9056SOL     OW28300   6.586   8.122   1.135  0.5702 -0.0381  0.9684
 9056SOL    HW128301   6.675   8.153   1.119  0.7713 -1.5610 -1.1748
 9056SOL    HW228302   6.530   8.192   1.102  1.0093 -0.3943 -0.6071
 9057SOL     OW28303   8.310   7.659   2.249 -0.0715  0.4137  0.1578
 9057SOL    HW128304   8.357   7.695   2.174  0.0998  1.1371  0.6061
 9057SOL    HW228305   8.219   7.685   2.235 -0.1362  0.0720 -0.0770
 9058SOL     OW28306   0.487   8.994   8.945 -0.0397  0.0677  0.5553
 9058SOL    HW128307   0.531   9.078   8.932  0.7917 -0.5108 -0.5893
 9058SOL    HW228308   0.506   8.971   9.036  2.5303 -0.3879 -0.0250
 9059SOL     OW28309   3.772   3.408   5.184 -0.2619  0.1294 -0.4143
 9059SOL    HW128310   3.834   3.406   5.111  0.7472  1.8423  0.3443
 9059SOL    HW228311   3.721   3.488   5.170 -0.9676 -0.2276  0.0525
 9060SOL     OW28312   7.762   1.000   7.124 -0.3189  0.5870 -0.6736
 9060SOL    HW128313   7.687   0.978   7.179  0.5117 -0.0198  0.2511
 9060SOL    HW228314   7.747   0.952   7.042  0.8124 -2.5834  0.8142
 9061SOL     OW28315   7.713   8.085   1.432 -0.3160 -0.3020  0.1739
 9061SOL    HW128316   7.794   8.110   1.476 -1.0790 -2.1956  2.9054
 9061SOL    HW228317   7.658   8.164   1.436  0.8704  0.5975 -0.5601
 9062SOL     OW28318   9.105   6.952   5.623  0.2591  0.4020  0.0455
 9062SOL    HW128319   9.068   6.871   5.589  0.2590 -0.7305  2.5137
 9062SOL    HW228320   9.029   7.008   5.640  0.1287  0.2659 -0.0867
 9063SOL     OW28321   8.979   4.044   0.495 -0.2612 -0.1429 -0.4126
 9063SOL    HW128322   8.985   3.949   0.506 -1.3078 -0.1713 -0.0063
 9063SOL    HW228323   8.958   4.056   0.402  1.7810 -0.1939 -0.9430
 9064SOL     OW28324   4.015   2.135   2.876 -0.2130  0.3357 -0.7900
 9064SOL    HW128325   3.959   2.098   2.808  1.1618  0.0931 -1.8202
 9064SOL    HW228326   4.100   2.148   2.834  0.6100  0.4292  0.8144
 9065SOL     OW28327   6.869   8.156   6.151  0.6169  0.1739 -0.1972
 9065SOL    HW128328   6.793   8.194   6.107 -0.2579 -2.4198 -1.0864
 9065SOL    HW228329   6.938   8.157   6.084  1.3391  2.1161  0.4760
 9066SOL     OW28330   2.770   6.422   6.301 -0.0081  0.3306  0.3360
 9066SOL    HW128331   2.707   6.458   6.239 -0.3271 -1.9722 -0.7923
 9066SOL    HW228332   2.724   6.350   6.343  1.2468 -0.1683  0.9247
 9067SOL     OW28333   0.093   5.982   5.863 -0.0422 -0.5140 -0.4220
 9067SOL    HW128334   0.009   5.952   5.897  0.7106 -1.5766  0.5771
 9067SOL    HW228335   0.082   5.985   5.768 -1.5082  0.3591 -0.2444
 9068SOL     OW28336   0.552   3.255   5.136 -0.4024 -0.0004 -0.1649
 9068SOL    HW128337   0.598   3.206   5.068  1.0462  1.2460 -0.1357
 9068SOL    HW228338   0.614   3.259   5.209 -1.7865 -0.9892  1.1293
 9069SOL     OW28339   2.885   5.540   0.759  0.2723 -0.7067  0.1636
 9069SOL    HW128340   2.915   5.626   0.789 -0.6740  0.0903 -1.0533
 9069SOL    HW228341   2.913   5.536   0.667  1.9474 -2.5152  0.6889
 9070SOL     OW28342   2.882   6.023   7.457  0.9547 -0.3668  0.4053
 9070SOL    HW128343   2.965   6.005   7.413  0.3642  0.2272 -1.0177
 9070SOL    HW228344   2.816   6.019   7.388  0.0027  0.7809  1.1933
 9071SOL     OW28345   3.203   6.444   2.646  0.1200 -0.0743  0.0461
 9071SOL    HW128346   3.163   6.390   2.579 -0.2839 -0.6208  0.7231
 9071SOL    HW228347   3.296   6.448   2.622 -0.0660 -0.0435 -0.6811
 9072SOL     OW28348   4.850   3.140   2.112 -0.1575  0.1504  0.0973
 9072SOL    HW128349   4.791   3.092   2.170  0.6735 -0.3435  0.5453
 9072SOL    HW228350   4.860   3.225   2.153 -0.7355  0.3220 -0.1041
 9073SOL     OW28351   8.547   2.434   0.538 -0.3082  0.0805 -0.3884
 9073SOL    HW128352   8.597   2.354   0.557  1.4568  1.0745 -0.6267
 9073SOL    HW228353   8.487   2.409   0.467 -0.6052 -1.3024  0.3088
 9074SOL     OW28354   0.420   3.129   0.436  0.1441 -0.7577  0.5135
 9074SOL    HW128355   0.369   3.063   0.389 -1.6256  0.9602 -0.0840
 9074SOL    HW228356   0.431   3.092   0.524 -0.7078 -1.9075  0.1599
 9075SOL     OW28357   6.429   4.965   0.316  0.1568 -0.6465 -0.4027
 9075SOL    HW128358   6.524   4.956   0.303  0.0440 -0.5091 -1.3624
 9075SOL    HW228359   6.410   4.909   0.391  1.0809 -0.2507  0.1553
 9076SOL     OW28360   8.889   3.566   2.701 -0.4806  0.1430 -0.4325
 9076SOL    HW128361   8.943   3.641   2.676 -0.9455  0.3767 -0.7606
 9076SOL    HW228362   8.810   3.574   2.646 -1.2809  0.3471  0.7004
 9077SOL     OW28363   6.580   8.276   5.774 -0.2975  0.0674  0.2432
 9077SOL    HW128364   6.675   8.286   5.783 -0.1818 -1.6702  1.5815
 9077SOL    HW228365   6.551   8.249   5.861 -1.4227 -3.1564 -0.9729
 9078SOL     OW28366   5.669   3.447   2.751 -0.1060 -0.0323 -0.6368
 9078SOL    HW128367   5.647   3.361   2.716  1.0583 -1.1329  1.2256
 9078SOL    HW228368   5.760   3.439   2.780 -0.2690  1.5393  0.4221
 9079SOL     OW28369   3.644   8.540   7.013 -0.4251 -0.5819 -0.3452
 9079SOL    HW128370   3.685   8.581   6.937 -0.9718 -2.3740 -1.6764
 9079SOL    HW228371   3.638   8.610   7.078  2.1968  0.4437 -1.0774
 9080SOL     OW28372   1.373   6.537   6.052 -0.2409  0.0767 -0.3197
 9080SOL    HW128373   1.449   6.591   6.030 -0.3395  0.2296 -0.2829
 9080SOL    HW228374   1.301   6.574   6.002 -0.2937 -0.0656 -0.3504
 9081SOL     OW28375   1.323   7.203   5.179 -0.5929 -0.3191  0.5036
 9081SOL    HW128376   1.286   7.120   5.210  0.3586 -0.1907  2.1357
 9081SOL    HW228377   1.250   7.248   5.138 -1.3443 -1.5893  0.3837
 9082SOL     OW28378   5.310   6.694   1.727  0.3042 -0.7747 -0.3016
 9082SOL    HW128379   5.317   6.670   1.820  1.0112 -2.6358 -0.8032
 9082SOL    HW228380   5.391   6.741   1.708  1.0005 -1.9575 -0.3784
 9083SOL     OW28381   0.881   5.849   3.908 -0.3446 -0.4409  0.5584
 9083SOL    HW128382   0.807   5.816   3.959 -0.4823  0.4418  0.9411
 9083SOL    HW228383   0.909   5.774   3.856 -1.4829 -0.7943  0.4332
 9084SOL     OW28384   1.314   4.164   3.636  0.6042  0.1746 -0.0319
 9084SOL    HW128385   1.256   4.107   3.688 -0.2326  0.5127 -0.5795
 9084SOL    HW228386   1.270   4.249   3.634  0.4897  0.1068 -1.5018
 9085SOL     OW28387   3.098   8.821   8.195 -0.2712  0.0698  0.2951
 9085SOL    HW128388   3.134   8.756   8.255 -0.2711 -0.6325 -0.4356
 9085SOL    HW228389   3.082   8.898   8.248  0.6883 -0.1958  0.9872
 9086SOL     OW28390   0.874   5.670   2.016  0.0510 -0.5650  0.2737
 9086SOL    HW128391   0.823   5.661   1.936  1.0603  1.8026 -0.7248
 9086SOL    HW228392   0.826   5.735   2.068 -0.9416 -2.5400  1.9529
 9087SOL     OW28393   7.574   0.977   6.710 -0.0225  0.5324 -0.5709
 9087SOL    HW128394   7.516   0.900   6.709  0.7006 -0.0380 -0.0753
 9087SOL    HW228395   7.603   0.987   6.619 -0.0183  0.1323 -0.6166
 9088SOL     OW28396   8.091   6.933   4.857  0.2108 -0.4520  0.0509
 9088SOL    HW128397   8.132   6.859   4.901  0.8315 -0.4043 -0.4379
 9088SOL    HW228398   8.091   7.003   4.923 -0.6154 -0.9412  0.6025
 9089SOL     OW28399   6.798   8.816   6.542 -0.2371  0.1895 -0.9542
 9089SOL    HW128400   6.717   8.767   6.527 -0.2625  0.0283 -0.3165
 9089SOL    HW228401   6.820   8.799   6.633 -1.5102  3.1941  0.0692
 9090SOL     OW28402   4.692   6.954   3.540  0.3883  0.0843 -0.8598
 9090SOL    HW128403   4.668   6.919   3.626 -1.0848  0.7983 -0.9446
 9090SOL    HW228404   4.760   6.896   3.508  1.0811 -0.1069  0.8644
 9091SOL     OW28405   4.158   1.916   8.073  0.3322 -0.5872 -0.0836
 9091SOL    HW128406   4.192   1.835   8.034 -0.9435 -1.3758  0.4001
 9091SOL    HW228407   4.072   1.928   8.033 -0.7930 -1.1259  2.0177
 9092SOL     OW28408   2.717   7.462   5.771 -0.5601  0.0107  0.0427
 9092SOL    HW128409   2.693   7.555   5.774 -0.0701  0.2764 -2.2109
 9092SOL    HW228410   2.810   7.461   5.794 -0.6481  0.0184  0.4108
 9093SOL     OW28411   4.067   7.356   5.586  0.1474 -0.6832  0.1782
 9093SOL    HW128412   4.047   7.358   5.493 -0.5504 -2.7257  0.2263
 9093SOL    HW228413   4.154   7.394   5.593  0.1979 -0.4659 -1.3055
 9094SOL     OW28414   6.303   3.362   1.263  0.0082  0.0929  0.4948
 9094SOL    HW128415   6.323   3.429   1.328 -2.4234  0.9100  0.5139
 9094SOL    HW228416   6.216   3.386   1.230 -0.6339 -2.6338 -0.0445
 9095SOL     OW28417   4.849   0.896   3.387 -0.0250  0.4727 -0.2997
 9095SOL    HW128418   4.754   0.890   3.380 -0.2724  3.0578 -0.0074
 9095SOL    HW228419   4.881   0.849   3.310 -1.4657 -1.1580  0.0262
 9096SOL     OW28420   1.527   3.752   1.125  0.4930 -0.2680 -0.1129
 9096SOL    HW128421   1.479   3.714   1.198 -0.7921 -0.0006 -0.7820
 9096SOL    HW228422   1.502   3.844   1.125  2.5482  0.3278  0.6912
 9097SOL     OW28423   8.275   5.151   8.264  0.3360 -0.5839 -0.1115
 9097SOL    HW128424   8.239   5.090   8.199 -1.4194  0.5262 -0.2720
 9097SOL    HW228425   8.279   5.100   8.345 -1.2720 -0.9153 -0.1972
 9098SOL     OW28426   3.152   3.295   1.837  0.0532 -0.3021  0.1502
 9098SOL    HW128427   3.220   3.241   1.878  0.4949  0.2541  0.1703
 9098SOL    HW228428   3.142   3.260   1.749  1.1213  0.2526 -0.2080
 9099SOL     OW28429   2.277   8.584   1.543 -0.0873  0.0253  0.4600
 9099SOL    HW128430   2.286   8.665   1.494 -0.7996 -0.2681 -0.1739
 9099SOL    HW228431   2.256   8.518   1.477  2.5998 -1.1407  0.6249
 9100SOL     OW28432   3.561   5.784   4.530 -0.2268  0.2839  0.1274
 9100SOL    HW128433   3.525   5.809   4.444  1.1288 -0.4402 -0.6886
 9100SOL    HW228434   3.486   5.786   4.589 -1.3172  0.1852 -1.2038
 9101SOL     OW28435   8.255   2.012   1.935  0.2428  0.2040 -0.1868
 9101SOL    HW128436   8.313   2.076   1.893  0.5857 -0.5769 -0.9158
 9101SOL    HW228437   8.190   2.066   1.981 -0.7364  1.1186 -2.4832
 9102SOL     OW28438   8.343   5.441   8.866 -0.1664  0.1885  0.6925
 9102SOL    HW128439   8.288   5.410   8.794 -0.3604  1.1309  0.4145
 9102SOL    HW228440   8.300   5.408   8.945 -1.1753  0.9224  0.4856
 9103SOL     OW28441   8.957   9.106   2.652 -0.3155 -0.1762  0.3951
 9103SOL    HW128442   8.935   9.185   2.703 -0.9032 -0.0177 -0.0830
 9103SOL    HW228443   9.052   9.107   2.646 -0.3323  2.5227 -2.6470
 9104SOL     OW28444   6.069   2.428   8.349 -0.6424  0.2976  0.5734
 9104SOL    HW128445   6.001   2.450   8.285 -1.2365  0.2737  1.1844
 9104SOL    HW228446   6.090   2.336   8.330  0.8558  0.9111 -1.0806
 9105SOL     OW28447   0.489   7.892   1.859 -0.3888 -0.2222  0.3396
 9105SOL    HW128448   0.500   7.902   1.953 -0.5634  0.5519  0.2840
 9105SOL    HW228449   0.533   7.969   1.821 -0.6214 -0.3440 -0.1887
 9106SOL     OW28450   2.748   7.917   0.274  0.1624  0.0008 -0.1143
 9106SOL    HW128451   2.776   7.922   0.365 -1.2264 -2.1196  0.5005
 9106SOL    HW228452   2.655   7.939   0.276 -0.2166 -1.4034 -0.7770
 9107SOL     OW28453   5.734   8.920   0.298 -0.3061 -0.3736 -0.0419
 9107SOL    HW128454   5.801   8.985   0.320 -2.1557  1.2818  0.9848
 9107SOL    HW228455   5.677   8.965   0.235 -1.8831 -0.7986  1.0451
 9108SOL     OW28456   0.290   2.479   8.473  0.4864 -0.4898  0.1859
 9108SOL    HW128457   0.232   2.522   8.410  1.9302  2.9550  0.9906
 9108SOL    HW228458   0.233   2.418   8.520 -1.2192 -1.1751 -2.5382
 9109SOL     OW28459   3.563   5.200   1.116 -0.3177  0.1694  0.3806
 9109SOL    HW128460   3.472   5.224   1.101 -0.3828  0.2015  0.8030
 9109SOL    HW228461   3.591   5.256   1.189 -0.3385 -0.7068  1.0809
 9110SOL     OW28462   7.722   8.650   3.562 -0.3437  0.6302 -0.4165
 9110SOL    HW128463   7.798   8.703   3.538  1.1322 -1.6330 -1.0879
 9110SOL    HW228464   7.652   8.684   3.506 -0.0759  3.1659  0.6302
 9111SOL     OW28465   7.534   4.410   4.870 -0.4423 -0.1069 -0.1547
 9111SOL    HW128466   7.520   4.415   4.776  1.7436 -0.7327 -0.5862
 9111SOL    HW228467   7.500   4.493   4.904 -1.7787 -0.1112 -1.3887
 9112SOL     OW28468   4.293   2.426   7.861  0.3317 -0.5486  0.0411
 9112SOL    HW128469   4.198   2.410   7.859 -0.1865  1.7828  1.6606
 9112SOL    HW228470   4.319   2.427   7.770 -0.9560 -2.3282 -0.4165
 9113SOL     OW28471   1.444   7.984   0.933 -0.0231  0.1023 -0.5841
 9113SOL    HW128472   1.534   7.987   0.966 -0.5395 -0.4160  0.9395
 9113SOL    HW228473   1.410   8.072   0.949 -0.3713 -0.2329  0.6272
 9114SOL     OW28474   1.477   1.995   0.705  0.0593 -0.1019  0.5602
 9114SOL    HW128475   1.541   1.991   0.775  0.7779 -0.8462 -0.1179
 9114SOL    HW228476   1.510   1.935   0.638 -1.8301 -1.2547  0.5886
 9115SOL     OW28477   1.300   8.790   0.502  0.7193  0.7670 -0.0421
 9115SOL    HW128478   1.394   8.775   0.495  0.4336 -2.2369  0.8272
 9115SOL    HW228479   1.266   8.768   0.416  0.6919  0.3054  0.0820
 9116SOL     OW28480   1.903   6.553   4.135  0.1090  1.0994  0.1087
 9116SOL    HW128481   1.923   6.568   4.043 -0.0090 -1.4613 -0.4104
 9116SOL    HW228482   1.883   6.459   4.141  2.2647  0.6730  3.1099
 9117SOL     OW28483   6.660   2.667   8.291 -0.3078 -0.7321 -0.0214
 9117SOL    HW128484   6.580   2.716   8.271  0.5980  0.7736 -0.0892
 9117SOL    HW228485   6.719   2.731   8.329  0.5450 -2.0362  0.9324
 9118SOL     OW28486   3.945   5.688   1.460  0.2702  0.2595 -0.8706
 9118SOL    HW128487   3.899   5.739   1.526 -1.9153  0.7585 -2.6354
 9118SOL    HW228488   4.003   5.631   1.509  1.6779  3.2802  1.2667
 9119SOL     OW28489   6.807   5.294   2.043 -0.4062 -0.1061 -0.1603
 9119SOL    HW128490   6.757   5.213   2.042  0.9891 -0.9915 -0.5632
 9119SOL    HW228491   6.874   5.281   2.110 -0.0674  0.6338 -0.3429
 9120SOL     OW28492   1.604   3.228   5.583 -0.4519 -0.0293  0.2319
 9120SOL    HW128493   1.675   3.290   5.565  0.2556 -0.6048  0.9913
 9120SOL    HW228494   1.548   3.274   5.645 -0.6871  0.3778 -0.2701
 9121SOL     OW28495   7.125   6.839   8.354 -0.0434 -0.0084  0.0032
 9121SOL    HW128496   7.219   6.823   8.350 -0.1577 -0.7000 -0.0678
 9121SOL    HW228497   7.117   6.928   8.389  0.6431  0.2807 -0.5338
 9122SOL     OW28498   6.679   1.621   2.619  0.0720  0.1187  0.5566
 9122SOL    HW128499   6.603   1.651   2.569 -0.3668 -1.6772  0.1007
 9122SOL    HW228500   6.659   1.643   2.709 -0.6751  0.2838  0.3560
 9123SOL     OW28501   7.291   2.868   3.715  0.0662 -0.2317 -0.1416
 9123SOL    HW128502   7.254   2.836   3.797 -1.0452 -1.7182 -1.1789
 9123SOL    HW228503   7.294   2.963   3.725  0.9811 -0.4195  2.0180
 9124SOL     OW28504   6.142   6.492   9.000 -0.3039 -0.1667 -0.5881
 9124SOL    HW128505   6.111   6.431   9.067  1.0240  0.2434  0.4326
 9124SOL    HW228506   6.237   6.485   9.003 -0.0722  2.4069  0.0307
 9125SOL     OW28507   7.423   4.597   2.585 -0.1458  0.4910 -0.2747
 9125SOL    HW128508   7.396   4.582   2.495 -1.2492  1.6940 -0.1720
 9125SOL    HW228509   7.405   4.515   2.630  0.5724 -0.1723 -1.1635
 9126SOL     OW28510   8.450   0.932   4.505  0.3858 -0.5351  0.2548
 9126SOL    HW128511   8.513   0.951   4.573 -1.0060 -0.5347  1.6039
 9126SOL    HW228512   8.413   0.847   4.528  0.1300 -0.6986 -0.6878
 9127SOL     OW28513   7.826   0.082   1.935 -0.1155  0.0288  0.1628
 9127SOL    HW128514   7.855   0.099   2.025 -0.2332 -0.1729  0.2416
 9127SOL    HW228515   7.730   0.079   1.941 -0.0954 -1.5059  0.3349
 9128SOL     OW28516   4.859   7.214   6.950  0.5139 -0.1272  0.1731
 9128SOL    HW128517   4.852   7.198   7.044 -0.6333 -2.5635 -0.2488
 9128SOL    HW228518   4.783   7.269   6.930  0.5541  0.0924  0.6198
 9129SOL     OW28519   6.215   8.317   5.062  0.4220  0.6418  0.4774
 9129SOL    HW128520   6.148   8.377   5.094 -0.4746 -0.4182  0.6309
 9129SOL    HW228521   6.204   8.238   5.115 -0.1644 -0.6364 -1.4316
 9130SOL     OW28522   2.207   5.242   7.393 -0.2862 -0.1251  1.3297
 9130SOL    HW128523   2.238   5.187   7.321  1.3815  0.4810  1.5454
 9130SOL    HW228524   2.220   5.332   7.362  1.3525  0.1604  2.7093
 9131SOL     OW28525   4.034   2.002   8.891 -0.1635 -0.4293  0.2051
 9131SOL    HW128526   4.030   1.951   8.972  0.4878 -1.0272 -0.1203
 9131SOL    HW228527   4.075   1.943   8.828  2.3126  1.0747  0.2711
 9132SOL     OW28528   0.653   4.656   3.483 -0.8349 -0.0818  0.0598
 9132SOL    HW128529   0.700   4.739   3.494 -0.2070 -0.5504  1.1843
 9132SOL    HW228530   0.711   4.603   3.429 -1.3752  0.2910 -0.9196
 9133SOL     OW28531   6.690   3.925   4.365 -0.4082  0.4502 -0.1760
 9133SOL    HW128532   6.656   4.012   4.347  1.8736  1.5894  0.6716
 9133SOL    HW228533   6.618   3.881   4.412 -1.5020  1.9370 -0.3621
 9134SOL     OW28534   6.044   5.801   5.001 -0.2806  0.0628 -0.3902
 9134SOL    HW128535   6.033   5.797   4.906  0.2901  1.8141 -0.5530
 9134SOL    HW228536   5.957   5.779   5.036 -0.5012 -0.5506 -1.3076
 9135SOL     OW28537   3.248   4.904   3.572  0.5084 -0.5492  0.6917
 9135SOL    HW128538   3.303   4.973   3.608  0.6193 -0.7211  0.8497
 9135SOL    HW228539   3.164   4.913   3.617  0.6317 -0.7346  0.9621
 9136SOL     OW28540   7.860   4.943   7.175 -0.5445 -0.4067  0.2234
 9136SOL    HW128541   7.773   4.950   7.136  0.7653 -1.4413 -3.2669
 9136SOL    HW228542   7.880   4.849   7.171  0.5522 -0.2529  1.4685
 9137SOL     OW28543   4.229   1.696   5.485  0.5548  0.0991  0.3927
 9137SOL    HW128544   4.259   1.787   5.491  2.5357 -0.3437 -1.4846
 9137SOL    HW228545   4.154   1.699   5.425  0.2082  0.5573  0.8423
 9138SOL     OW28546   3.733   7.831   7.929 -0.2462  0.1823  0.3297
 9138SOL    HW128547   3.752   7.749   7.882 -0.4980  0.2212  0.1622
 9138SOL    HW228548   3.697   7.802   8.013 -2.8706  0.1080 -0.7304
 9139SOL     OW28549   2.775   8.481   0.413  1.1073  0.0841  0.2856
 9139SOL    HW128550   2.847   8.505   0.355  1.1946  1.3762  0.8925
 9139SOL    HW228551   2.793   8.529   0.494 -0.7405  0.8999  0.2620
 9140SOL     OW28552   2.973   5.402   7.286  0.9302 -0.4277 -0.2897
 9140SOL    HW128553   3.028   5.477   7.307 -0.2691  0.5736 -0.5719
 9140SOL    HW228554   3.018   5.359   7.213  0.4052  1.4990 -1.8360
 9141SOL     OW28555   2.321   2.391   4.217  0.0153  0.1946 -0.0398
 9141SOL    HW128556   2.321   2.438   4.133 -0.9355  2.3879  1.1120
 9141SOL    HW228557   2.231   2.396   4.248  0.1110 -1.5544  0.6385
 9142SOL     OW28558   7.988   4.473   6.157 -0.2949  0.5143 -0.0096
 9142SOL    HW128559   8.043   4.541   6.195 -1.0194  1.7448 -1.0749
 9142SOL    HW228560   7.974   4.502   6.067  0.6603 -1.8604 -0.9912
 9143SOL     OW28561   6.054   2.900   0.684  0.0522 -0.0205  0.5761
 9143SOL    HW128562   6.079   2.893   0.776  2.3048 -1.3267 -0.0708
 9143SOL    HW228563   6.003   2.821   0.666 -1.2050  0.6954  0.9055
 9144SOL     OW28564   5.990   5.442   1.193 -0.2743  0.1304  0.0845
 9144SOL    HW128565   6.073   5.463   1.149  0.7703  0.7086  2.1814
 9144SOL    HW228566   5.956   5.366   1.145 -0.0541  1.6405 -2.6490
 9145SOL     OW28567   1.370   1.912   3.133 -0.3015  0.5082 -0.5384
 9145SOL    HW128568   1.396   1.897   3.224  0.0204 -1.4640 -0.9039
 9145SOL    HW228569   1.306   1.843   3.114  0.8101 -0.1332 -2.2373
 9146SOL     OW28570   1.846   7.397   8.459  0.3448  0.6960  0.4981
 9146SOL    HW128571   1.838   7.423   8.367 -1.0963  0.2180  0.4662
 9146SOL    HW228572   1.757   7.379   8.487  0.6936  1.3250  2.1624
 9147SOL     OW28573   5.818   8.527   5.480  0.0680 -0.4383  0.1804
 9147SOL    HW128574   5.842   8.575   5.401 -2.7786 -0.9214 -1.1006
 9147SOL    HW228575   5.814   8.594   5.548 -1.0230  0.6691 -0.9287
 9148SOL     OW28576   8.090   2.522   6.336 -0.0317  0.6824 -0.6488
 9148SOL    HW128577   8.149   2.471   6.282 -0.8947 -0.6281 -0.4024
 9148SOL    HW228578   8.145   2.590   6.374  0.6293  1.5579 -3.0089
 9149SOL     OW28579   8.173   8.975   1.933  0.8234 -0.0937  0.8011
 9149SOL    HW128580   8.242   8.998   1.996  1.2055 -2.0035  1.1525
 9149SOL    HW228581   8.214   8.910   1.876 -0.3481 -0.3827  0.2664
 9150SOL     OW28582   4.112   4.618   8.698 -0.0292 -0.1383  0.0586
 9150SOL    HW128583   4.078   4.615   8.788 -1.9716  1.5133 -0.5523
 9150SOL    HW228584   4.155   4.533   8.686 -0.1598 -0.6013  2.3597
 9151SOL     OW28585   5.299   2.302   6.410 -0.0823 -0.2284  0.2155
 9151SOL    HW128586   5.391   2.306   6.384  0.1002 -0.3633  0.8260
 9151SOL    HW228587   5.296   2.235   6.479 -0.6497 -0.2761  0.1506
 9152SOL     OW28588   3.446   6.063   3.134  0.7601 -0.4654 -0.2357
 9152SOL    HW128589   3.398   6.000   3.080  0.1463  0.4797 -0.8285
 9152SOL    HW228590   3.449   6.023   3.221 -1.2524 -0.5044 -0.1386
 9153SOL     OW28591   4.636   5.416   4.510 -0.4448  0.4907 -0.1673
 9153SOL    HW128592   4.671   5.504   4.497  2.4635 -0.5140 -0.0716
 9153SOL    HW228593   4.649   5.373   4.426  0.0886 -0.3964  0.3514
 9154SOL     OW28594   6.408   6.244   8.399 -0.0952  0.6222 -0.4113
 9154SOL    HW128595   6.374   6.332   8.417 -0.5874  0.0954  1.4315
 9154SOL    HW228596   6.502   6.250   8.419 -0.0003  0.8791 -0.9163
 9155SOL     OW28597   6.622   0.329   2.863  0.1765 -0.1966 -0.3990
 9155SOL    HW128598   6.593   0.248   2.905  0.7223 -0.6306 -0.8375
 9155SOL    HW228599   6.717   0.330   2.877  0.1627  0.3933 -0.3520
 9156SOL     OW28600   5.402   1.312   6.881  0.3850 -0.1417 -0.1971
 9156SOL    HW128601   5.333   1.378   6.880  0.9308  0.4382 -0.1516
 9156SOL    HW228602   5.368   1.242   6.937  0.1214  0.4633  0.4123
 9157SOL     OW28603   2.923   2.461   0.868 -0.3494 -0.0666  0.7748
 9157SOL    HW128604   2.904   2.382   0.818 -0.6495  0.1079  0.6114
 9157SOL    HW228605   2.851   2.468   0.930 -0.3820  0.1448  0.7114
 9158SOL     OW28606   2.741   1.080   0.521  0.3694 -0.0165 -0.0101
 9158SOL    HW128607   2.714   1.019   0.452 -1.5213 -0.4019  1.0021
 9158SOL    HW228608   2.803   1.030   0.574  0.5563 -0.2766 -0.4604
 9159SOL     OW28609   4.165   4.861   8.173  0.1346 -0.6662  0.2009
 9159SOL    HW128610   4.259   4.850   8.163  0.0087 -0.1084 -2.1612
 9159SOL    HW228611   4.133   4.772   8.193  1.1576 -0.7687  1.5564
 9160SOL     OW28612   4.038   7.359   8.713  0.5626  0.5535 -0.2205
 9160SOL    HW128613   4.098   7.290   8.740  0.1635  0.7853  1.3610
 9160SOL    HW228614   4.042   7.423   8.784 -0.9845  0.9161 -0.4331
 9161SOL     OW28615   7.884   7.855   8.186  0.5050 -0.2352 -0.0538
 9161SOL    HW128616   7.829   7.871   8.109  0.8908 -2.3585 -0.8367
 9161SOL    HW228617   7.972   7.880   8.159  0.4411  0.2348  0.1554
 9162SOL     OW28618   2.534   2.320   7.051  0.2829 -0.1483  0.0399
 9162SOL    HW128619   2.581   2.268   7.116  1.1800 -0.0351 -0.5114
 9162SOL    HW228620   2.491   2.256   6.995  2.1802 -0.3888 -1.2396
 9163SOL     OW28621   7.258   8.235   4.246 -0.2828 -0.4311 -0.1035
 9163SOL    HW128622   7.244   8.179   4.169  0.2832  0.3917 -0.8229
 9163SOL    HW228623   7.350   8.222   4.269 -0.5850 -1.1031  0.8034
 9164SOL     OW28624   0.545   3.784   1.970 -0.4203 -0.3064  0.1911
 9164SOL    HW128625   0.551   3.867   2.016  0.1871 -0.1936 -0.0892
 9164SOL    HW228626   0.502   3.725   2.033 -0.6144  0.1417  0.4835
 9165SOL     OW28627   6.584   7.504   5.986  0.3789 -0.6953 -0.3030
 9165SOL    HW128628   6.575   7.431   5.924  1.9405 -0.9757 -0.2483
 9165SOL    HW228629   6.514   7.490   6.050  0.6446 -2.1848 -0.2886
 9166SOL     OW28630   9.114   5.799   6.920 -0.4920 -0.5203  0.4394
 9166SOL    HW128631   9.157   5.867   6.972  0.9617 -1.0212 -0.0684
 9166SOL    HW228632   9.048   5.845   6.869 -0.7576  0.2319  1.4500
 9167SOL     OW28633   9.062   8.147   3.228  0.7310  0.5861  0.3105
 9167SOL    HW128634   8.975   8.167   3.193 -0.3746 -0.9085  2.0301
 9167SOL    HW228635   9.079   8.215   3.292  0.2491  0.1928  0.8673
 9168SOL     OW28636   2.020   1.527   2.071 -0.0681 -0.0525  0.4072
 9168SOL    HW128637   2.031   1.615   2.034  0.9324 -0.1865  0.3519
 9168SOL    HW228638   1.980   1.477   2.000 -2.3009  0.7552  1.0136
 9169SOL     OW28639   3.990   8.672   2.840 -0.6899  0.3447 -0.1624
 9169SOL    HW128640   4.009   8.597   2.898 -2.6674 -0.1578 -0.0910
 9169SOL    HW228641   4.041   8.654   2.761  0.7169  0.1645  0.7416
 9170SOL     OW28642   8.223   1.019   2.800 -0.1812  0.0042  0.0010
 9170SOL    HW128643   8.244   1.093   2.857 -0.0413 -0.6371  0.8002
 9170SOL    HW228644   8.186   0.953   2.858  1.8397 -1.4605 -0.2657
 9171SOL     OW28645   7.862   2.913   1.897  0.2269  0.3437 -0.1665
 9171SOL    HW128646   7.948   2.954   1.893  0.2864  0.4561  1.5706
 9171SOL    HW228647   7.877   2.831   1.945 -0.7064  0.6508  0.6953
 9172SOL     OW28648   2.999   5.412   2.941 -0.6244 -0.0641 -0.0221
 9172SOL    HW128649   3.039   5.499   2.949 -0.1093 -0.2801 -0.1661
 9172SOL    HW228650   3.005   5.391   2.848 -3.2333  0.8825 -0.4752
 9173SOL     OW28651   7.336   2.058   4.858 -0.0593 -0.0669  0.3255
 9173SOL    HW128652   7.314   2.147   4.830  0.6620  0.9287  2.6350
 9173SOL    HW228653   7.269   2.037   4.924  1.7624  0.2427  2.3733
 9174SOL     OW28654   0.228   3.958   3.206  0.0486  0.3758  0.6964
 9174SOL    HW128655   0.292   3.985   3.272  0.6681 -1.3156  0.8479
 9174SOL    HW228656   0.227   3.862   3.212 -2.8242  0.3430  0.9938
 9175SOL     OW28657   1.934   6.764   6.281 -0.0912  0.0424  0.1352
 9175SOL    HW128658   1.888   6.699   6.228 -1.3349  0.9899 -0.0137
 9175SOL    HW228659   2.026   6.755   6.258 -0.3717 -0.9589 -0.6360
 9176SOL     OW28660   6.607   6.911   4.791 -0.4256  0.6514  0.2456
 9176SOL    HW128661   6.638   6.844   4.852  2.2760  0.7350 -0.8905
 9176SOL    HW228662   6.548   6.864   4.732  0.4106 -0.4532  0.2546
 9177SOL     OW28663   2.600   3.956   1.835  0.4560  0.0297  0.6667
 9177SOL    HW128664   2.541   3.903   1.781  0.7555 -1.1036  1.4172
 9177SOL    HW228665   2.542   4.009   1.889  0.1517  0.8147 -0.4027
 9178SOL     OW28666   3.151   2.135   7.134 -0.2124  0.0560  0.6733
 9178SOL    HW128667   3.169   2.062   7.074 -0.2926  0.3373  0.3076
 9178SOL    HW228668   3.060   2.160   7.115 -0.4592 -0.2860  1.3738
 9179SOL     OW28669   8.392   6.230   2.310 -0.1281  0.3331  0.2702
 9179SOL    HW128670   8.340   6.150   2.308  0.3612  0.0257 -0.6053
 9179SOL    HW228671   8.413   6.243   2.402 -1.3075  0.1743  0.5760
 9180SOL     OW28672   6.357   5.881   2.050  0.3399 -0.1001 -0.4093
 9180SOL    HW128673   6.262   5.879   2.049  0.2545  1.5775  0.2465
 9180SOL    HW228674   6.384   5.793   2.023 -1.3828 -0.6865 -0.3223
 9181SOL     OW28675   0.402   4.660   6.143  0.0580 -0.1222  0.2275
 9181SOL    HW128676   0.492   4.626   6.143  0.3733  0.2649 -3.5663
 9181SOL    HW228677   0.349   4.586   6.113 -0.2946  0.6586 -1.1500
 9182SOL     OW28678   0.793   2.573   2.907 -0.6538 -0.4640  0.4246
 9182SOL    HW128679   0.827   2.485   2.896 -0.1539 -0.3485  1.0045
 9182SOL    HW228680   0.771   2.602   2.818  0.1328 -0.7949  0.1152
 9183SOL     OW28681   2.384   2.885   5.460 -0.1396  0.0233 -0.0374
 9183SOL    HW128682   2.385   2.920   5.371  1.4581 -0.1722 -0.1244
 9183SOL    HW228683   2.406   2.959   5.515  1.1881 -0.3599 -0.0329
 9184SOL     OW28684   0.231   3.695   3.009  0.7217 -0.0308 -0.4311
 9184SOL    HW128685   0.189   3.735   2.932  0.2319 -0.4990 -0.4195
 9184SOL    HW228686   0.269   3.614   2.975  1.1336  0.1184 -0.3240
 9185SOL     OW28687   6.637   0.307   7.088 -0.0397  0.2284 -0.1708
 9185SOL    HW128688   6.727   0.292   7.115  0.3830  3.3484  0.5862
 9185SOL    HW228689   6.642   0.316   6.992 -0.0084 -1.9206 -0.4107
 9186SOL     OW28690   9.040   1.056   0.224 -0.0598 -0.0742 -0.1763
 9186SOL    HW128691   9.122   1.021   0.188  1.0223  1.9111  0.2062
 9186SOL    HW228692   8.984   1.069   0.148  1.5975  2.5110 -1.1023
 9187SOL     OW28693   2.035   0.097   2.870  0.3452  0.0047  0.1560
 9187SOL    HW128694   1.982   0.071   2.945  0.7621 -0.7527  0.1991
 9187SOL    HW228695   2.100   0.027   2.860  1.8357  1.2483  0.5743
 9188SOL     OW28696   5.351   6.309   1.023  0.4487 -0.0305 -0.1138
 9188SOL    HW128697   5.356   6.380   1.088 -1.3917  0.7275 -0.7447
 9188SOL    HW228698   5.361   6.229   1.075  2.2793  0.6224  0.6499
 9189SOL     OW28699   2.600   3.111   3.602  0.1290  0.2191  1.0677
 9189SOL    HW128700   2.537   3.096   3.673 -1.9889 -0.8709 -0.8823
 9189SOL    HW228701   2.618   3.024   3.568 -0.3974  0.8232 -0.8739
 9190SOL     OW28702   8.786   8.199   7.666  0.3595 -0.5998 -0.1073
 9190SOL    HW128703   8.813   8.219   7.755  1.2782  0.7616 -0.6396
 9190SOL    HW228704   8.709   8.255   7.651  0.7294 -0.1665 -0.4323
 9191SOL     OW28705   0.329   6.434   5.198 -0.0393  0.4833  0.2547
 9191SOL    HW128706   0.272   6.433   5.275 -1.3403  1.1999 -0.6673
 9191SOL    HW228707   0.404   6.488   5.224  0.1347 -0.2683  1.3996
 9192SOL     OW28708   8.613   2.240   4.694 -0.0753 -0.0456 -0.0738
 9192SOL    HW128709   8.545   2.290   4.650 -0.7755 -2.6879 -2.2652
 9192SOL    HW228710   8.621   2.280   4.780 -1.5975  2.7876 -1.1435
 9193SOL     OW28711   2.326   6.018   2.138  0.4695  0.3439  0.0508
 9193SOL    HW128712   2.271   5.942   2.155 -0.2572  1.1439  1.5330
 9193SOL    HW228713   2.265   6.084   2.104  0.8000  0.7544  0.2503
 9194SOL     OW28714   3.482   3.825   8.240  0.3956  0.1518 -0.2730
 9194SOL    HW128715   3.568   3.843   8.278  0.6887 -0.4906 -0.6134
 9194SOL    HW228716   3.494   3.744   8.191 -0.0961  0.6869 -1.3201
 9195SOL     OW28717   7.378   6.601   3.005 -0.2356  0.4381 -0.1563
 9195SOL    HW128718   7.415   6.689   3.002  1.5141 -0.1411  1.6542
 9195SOL    HW228719   7.446   6.545   2.968 -0.4461 -0.3529  0.6070
 9196SOL     OW28720   8.921   7.901   0.745 -0.7361  0.3780  0.9202
 9196SOL    HW128721   8.972   7.820   0.743  0.6688  1.2301  0.2668
 9196SOL    HW228722   8.859   7.889   0.816 -1.4269 -1.7698  0.0303
 9197SOL     OW28723   5.080   1.209   0.791 -0.0618  0.3806  0.0390
 9197SOL    HW128724   5.030   1.131   0.817  0.3609 -0.2508 -0.9696
 9197SOL    HW228725   5.054   1.225   0.701  0.9678  0.5022 -0.2509
 9198SOL     OW28726   8.279   8.046   3.819  0.0212  0.1016  0.0627
 9198SOL    HW128727   8.292   7.978   3.753  1.8913  0.0945  0.3716
 9198SOL    HW228728   8.184   8.054   3.827 -0.2454 -1.2279 -1.2399
 9199SOL     OW28729   0.703   1.440   0.915  0.5678  0.2650 -0.4293
 9199SOL    HW128730   0.687   1.411   1.005 -1.1760  0.9043 -0.4873
 9199SOL    HW228731   0.795   1.420   0.899  0.2275 -2.4706  0.5267
 9200SOL     OW28732   4.076   8.786   6.673  0.1328 -0.1407 -0.1562
 9200SOL    HW128733   4.135   8.856   6.700 -0.9712  0.9461 -0.4314
 9200SOL    HW228734   4.033   8.820   6.594 -1.2192 -0.6586  0.3200
 9201SOL     OW28735   5.257   1.722   1.549  0.4729 -0.1913 -0.0221
 9201SOL    HW128736   5.268   1.723   1.454 -2.0506 -0.7538 -0.4076
 9201SOL    HW228737   5.266   1.629   1.572  1.3360 -0.0231  0.3524
 9202SOL     OW28738   3.902   3.112   4.168 -0.4917  0.0438 -0.1298
 9202SOL    HW128739   3.845   3.107   4.244  1.8605  0.6080  1.7827
 9202SOL    HW228740   3.878   3.195   4.126 -1.1860  0.1932  0.5365
 9203SOL     OW28741   8.182   4.985   0.770  0.0492  0.9712 -0.1557
 9203SOL    HW128742   8.141   4.901   0.747 -0.9607  1.4244 -0.0789
 9203SOL    HW228743   8.275   4.971   0.755  0.1187 -0.7125  1.4843
 9204SOL     OW28744   3.610   1.742   7.584 -0.6868  0.3590  0.5906
 9204SOL    HW128745   3.661   1.781   7.656  0.4118 -0.9792  0.5849
 9204SOL    HW228746   3.677   1.710   7.523 -1.5858  2.2204 -1.5118
 9205SOL     OW28747   2.319   6.136   7.725  0.3530 -0.7389 -0.2905
 9205SOL    HW128748   2.237   6.089   7.735  0.5885 -1.2338 -0.6460
 9205SOL    HW228749   2.303   6.199   7.654  0.0452 -0.2928  0.1711
 9206SOL     OW28750   5.997   7.595   7.821  0.3832 -0.3744  0.0898
 9206SOL    HW128751   6.025   7.669   7.875  1.3509  0.2440 -1.1987
 9206SOL    HW228752   5.914   7.623   7.782  0.2302 -0.3872  0.4072
 9207SOL     OW28753   6.059   6.512   7.832  0.1995 -0.5750  0.0721
 9207SOL    HW128754   6.036   6.442   7.771  0.5227 -0.3976 -0.2572
 9207SOL    HW228755   6.039   6.476   7.918  1.1778 -1.3937 -0.0292
 9208SOL     OW28756   4.192   8.875   2.088 -0.0081  0.3485 -0.4456
 9208SOL    HW128757   4.175   8.966   2.111 -0.6021 -0.3576  2.3268
 9208SOL    HW228758   4.278   8.856   2.125  1.3486  0.3953 -3.2872
 9209SOL     OW28759   1.433   3.419   5.432  0.1481 -0.5622  0.4861
 9209SOL    HW128760   1.468   3.357   5.497 -1.1825 -1.3355  0.5059
 9209SOL    HW228761   1.374   3.475   5.482  1.5440  0.9594  0.5187
 9210SOL     OW28762   8.539   4.081   9.019 -0.3699 -0.4008 -0.3762
 9210SOL    HW128763   8.535   4.044   8.931 -2.1061 -1.9922  0.3096
 9210SOL    HW228764   8.448   4.102   9.041  0.1179  0.6205  0.7790
 9211SOL     OW28765   5.605   8.163   4.335  0.6566 -0.1853  0.1358
 9211SOL    HW128766   5.544   8.091   4.318  0.0996  0.5218 -0.9764
 9211SOL    HW228767   5.596   8.220   4.259  0.1033  1.7503  1.5689
 9212SOL     OW28768   3.761   0.897   8.167 -0.1429 -0.0451 -0.1956
 9212SOL    HW128769   3.716   0.972   8.206  2.4486  1.8585 -0.5722
 9212SOL    HW228770   3.849   0.900   8.205  0.7702 -1.4493 -2.0469
 9213SOL     OW28771   1.487   6.419   3.519  0.1853 -0.3144  0.5701
 9213SOL    HW128772   1.410   6.415   3.576 -1.8608 -1.9627 -2.1057
 9213SOL    HW228773   1.494   6.512   3.495 -2.3762 -0.3899 -0.8019
 9214SOL     OW28774   8.670   1.821   7.010  0.0751  0.3378 -0.2875
 9214SOL    HW128775   8.733   1.753   7.034 -0.4652  0.3011  1.1196
 9214SOL    HW228776   8.628   1.789   6.930 -0.7159 -1.3843  0.7722
 9215SOL     OW28777   8.723   3.458   2.916 -0.0373  0.4473 -0.3464
 9215SOL    HW128778   8.681   3.481   2.999  2.2275  0.1322  0.9898
 9215SOL    HW228779   8.772   3.536   2.891  1.2987 -0.2469 -0.0119
 9216SOL     OW28780   6.226   6.573   0.563 -0.1464 -0.3160  0.0225
 9216SOL    HW128781   6.244   6.606   0.476 -1.6571 -1.6702 -0.8707
 9216SOL    HW228782   6.239   6.648   0.621 -1.5182  1.2992 -1.6554
 9217SOL     OW28783   7.684   0.265   5.922  0.0553  0.5195 -0.8651
 9217SOL    HW128784   7.633   0.294   5.998  0.7975 -2.0641  0.7342
 9217SOL    HW228785   7.683   0.340   5.863 -1.5935  2.2110  1.1410
 9218SOL     OW28786   4.240   6.351   2.817  0.1585  1.2518  0.5820
 9218SOL    HW128787   4.303   6.369   2.747 -1.0408  1.7431 -0.3963
 9218SOL    HW228788   4.229   6.256   2.816 -2.1644  1.4497 -2.0241
 9219SOL     OW28789   5.235   2.445   8.020 -0.0314  0.1647  0.6089
 9219SOL    HW128790   5.172   2.499   8.068  0.1023  1.6160 -0.7691
 9219SOL    HW228791   5.234   2.481   7.931  1.2005 -1.1503  0.0366
 9220SOL     OW28792   7.829   7.771   4.264  0.4954  0.0141  0.1951
 9220SOL    HW128793   7.769   7.765   4.190  0.5252  0.7622  0.1005
 9220SOL    HW228794   7.776   7.750   4.341  0.2965 -0.0697  0.0327
 9221SOL     OW28795   8.975   8.934   7.669 -0.1830 -0.5810  0.5682
 9221SOL    HW128796   8.927   8.914   7.589 -0.5608  1.1616  0.3207
 9221SOL    HW228797   9.015   9.020   7.653 -0.0398 -0.3143  2.1338
 9222SOL     OW28798   0.893   5.498   6.190  0.0971 -0.4112  0.0756
 9222SOL    HW128799   0.907   5.409   6.157  0.9002  0.9358 -3.8266
 9222SOL    HW228800   0.798   5.507   6.197 -0.1710 -0.8729 -2.1404
 9223SOL     OW28801   0.670   3.192   4.300  0.2159  0.3732 -0.1818
 9223SOL    HW128802   0.763   3.171   4.291  0.4004  0.6602  0.9526
 9223SOL    HW228803   0.660   3.275   4.254  0.5778  0.4949 -0.0433
 9224SOL     OW28804   6.308   4.562   8.444  0.1987 -0.0475  0.0040
 9224SOL    HW128805   6.310   4.481   8.496  0.1003  0.2481  0.4733
 9224SOL    HW228806   6.388   4.608   8.469 -1.1699  1.4052  2.0372
 9225SOL     OW28807   4.788   8.876   7.060  0.2644 -0.1967  0.3223
 9225SOL    HW128808   4.827   8.793   7.087  1.3818  0.2121 -0.0015
 9225SOL    HW228809   4.723   8.895   7.128  0.8742 -0.7116  1.0661
 9226SOL     OW28810   5.677   0.047   4.509 -0.0917 -0.1586 -0.1190
 9226SOL    HW128811   5.694   0.078   4.598  0.5736 -0.3883 -0.1619
 9226SOL    HW228812   5.582   0.054   4.499 -0.2064 -0.4152  0.7133
 9227SOL     OW28813   3.286   4.283   6.304 -0.4329  0.2017 -0.0354
 9227SOL    HW128814   3.280   4.203   6.356  1.6615 -0.4623 -0.7217
 9227SOL    HW228815   3.199   4.322   6.311 -1.6317 -2.2631  0.1069
 9228SOL     OW28816   0.210   1.379   7.051 -0.8083 -0.5591 -0.3164
 9228SOL    HW128817   0.184   1.468   7.072 -0.1053 -0.3376 -0.3743
 9228SOL    HW228818   0.265   1.352   7.124  0.0169 -0.4944 -0.9054
 9229SOL     OW28819   5.827   4.134   5.449 -0.1417  0.0506  0.2051
 9229SOL    HW128820   5.786   4.082   5.518 -1.8194  0.5418 -0.3686
 9229SOL    HW228821   5.813   4.225   5.475  1.2208  0.2578  0.3206
 9230SOL     OW28822   8.017   8.466   2.545  0.8703 -0.0109  0.3520
 9230SOL    HW128823   7.984   8.424   2.624  0.2395  1.4300  0.8892
 9230SOL    HW228824   8.015   8.397   2.478 -2.7774 -0.2154  0.4610
 9231SOL     OW28825   2.188   0.397   7.494 -0.1080  0.2687 -0.4555
 9231SOL    HW128826   2.259   0.347   7.452  0.5157  0.1534  0.6961
 9231SOL    HW228827   2.146   0.333   7.552 -0.6098  0.5616 -0.5005
 9232SOL     OW28828   7.072   6.757   5.653 -0.2195 -0.1335  0.0996
 9232SOL    HW128829   7.115   6.784   5.572  1.6005 -0.9320  0.7451
 9232SOL    HW228830   6.992   6.713   5.623  0.1149  0.1048 -1.2306
 9233SOL     OW28831   5.403   9.017   3.952 -0.3934 -0.6010  0.1192
 9233SOL    HW128832   5.422   9.101   3.910  1.6214 -0.0271  1.9913
 9233SOL    HW228833   5.452   8.953   3.900  1.6042  0.0204  1.1511
 9234SOL     OW28834   8.504   8.798   2.458  0.2943 -0.1390 -0.4261
 9234SOL    HW128835   8.482   8.888   2.436  1.6964  0.2903 -0.1089
 9234SOL    HW228836   8.447   8.777   2.532  0.1572  0.5682 -0.3286
 9235SOL     OW28837   6.155   1.992   3.118 -0.1167  0.3321  0.2522
 9235SOL    HW128838   6.223   2.060   3.118 -0.5412  0.8211 -1.3372
 9235SOL    HW228839   6.197   1.917   3.077 -0.0702  0.1008  0.7185
 9236SOL     OW28840   0.068   4.621   6.016 -0.5335 -0.0046 -0.4601
 9236SOL    HW128841   0.095   4.540   5.972  1.5153  0.0176  0.6377
 9236SOL    HW228842  -0.027   4.624   6.005 -0.5963 -2.3042 -0.9588
 9237SOL     OW28843   3.188   2.521   6.647  0.3836  0.0838  0.1810
 9237SOL    HW128844   3.128   2.578   6.694  0.4382 -0.1275  0.5105
 9237SOL    HW228845   3.273   2.563   6.657  0.9774 -1.5447  2.9899
 9238SOL     OW28846   7.816   8.374   7.662  0.3502  0.3809 -0.4055
 9238SOL    HW128847   7.734   8.327   7.648  1.0073 -0.8265 -0.3275
 9238SOL    HW228848   7.866   8.359   7.582  1.3292 -0.6778  0.3723
 9239SOL     OW28849   7.794   0.506   2.244  0.2162 -0.1950  0.0198
 9239SOL    HW128850   7.872   0.559   2.260  0.8561 -1.6164  1.9669
 9239SOL    HW228851   7.807   0.470   2.156  0.2693  1.9351 -0.9109
 9240SOL     OW28852   4.749   5.926   1.455 -0.0953 -0.3614 -0.4398
 9240SOL    HW128853   4.842   5.938   1.436  0.0435 -0.5157  0.1288
 9240SOL    HW228854   4.706   5.999   1.410  0.1790 -0.8882 -1.6172
 9241SOL     OW28855   8.795   8.228   2.454  0.0412 -0.5954  0.2310
 9241SOL    HW128856   8.776   8.134   2.451  1.6995 -0.9794  0.4950
 9241SOL    HW228857   8.819   8.245   2.545  1.6331 -0.3685 -0.1923
 9242SOL     OW28858   1.666   9.001   3.257  0.2653 -0.2725 -0.4070
 9242SOL    HW128859   1.742   8.963   3.213  0.4056  1.9471 -2.2630
 9242SOL    HW228860   1.648   9.081   3.208 -0.0830  2.0230  3.1405
 9243SOL     OW28861   2.276   8.123   4.999 -0.5483 -0.1959 -0.6506
 9243SOL    HW128862   2.263   8.039   5.044 -1.0273  0.0661 -0.2892
 9243SOL    HW228863   2.364   8.116   4.961 -0.2985 -0.5898 -0.0305
 9244SOL     OW28864   5.524   1.814   7.440 -0.2306  0.4979  0.4447
 9244SOL    HW128865   5.598   1.756   7.422  0.0109  1.3322 -1.5309
 9244SOL    HW228866   5.529   1.830   7.534  0.3446 -1.7505  0.8743
 9245SOL     OW28867   8.422   2.314   7.050  0.3816 -0.3179  0.5113
 9245SOL    HW128868   8.347   2.256   7.059  0.3290 -0.0540  1.9866
 9245SOL    HW228869   8.391   2.400   7.079 -0.2082  1.1385 -3.7240
 9246SOL     OW28870   7.273   1.934   0.814 -0.3352 -0.4143  0.1577
 9246SOL    HW128871   7.186   1.902   0.789  0.6147 -1.1852 -2.4651
 9246SOL    HW228872   7.257   1.990   0.890 -2.6235 -3.5940  2.2711
 9247SOL     OW28873   5.733   7.030   4.634 -0.0143  0.0114  0.2784
 9247SOL    HW128874   5.782   6.971   4.692  0.2160 -0.3618 -0.2896
 9247SOL    HW228875   5.642   7.009   4.652  0.0226 -2.5202 -1.8537
 9248SOL     OW28876   7.478   2.109   6.533  0.2105 -0.2587 -0.0916
 9248SOL    HW128877   7.521   2.173   6.589 -0.1857 -0.3511  0.3235
 9248SOL    HW228878   7.420   2.060   6.592 -0.4850 -0.1189 -0.6447
 9249SOL     OW28879   5.260   4.159   4.909 -0.0937  0.0594  0.1810
 9249SOL    HW128880   5.283   4.241   4.953  2.0696 -0.1474 -0.4911
 9249SOL    HW228881   5.301   4.166   4.823  0.0942 -1.7178  0.0936
 9250SOL     OW28882   7.441   7.154   8.501 -0.1238 -0.2123 -0.2043
 9250SOL    HW128883   7.384   7.228   8.478  1.0137  0.6754 -0.2867
 9250SOL    HW228884   7.527   7.178   8.465  0.6599 -0.8255  1.1565
 9251SOL     OW28885   1.607   4.405   3.239 -0.4106  0.2174 -0.1405
 9251SOL    HW128886   1.697   4.426   3.213 -0.6768  0.7489 -0.6702
 9251SOL    HW228887   1.603   4.426   3.332  0.4593 -1.3481  0.2780
 9252SOL     OW28888   2.126   1.739   6.033 -0.2684  0.2065  0.2824
 9252SOL    HW128889   2.035   1.729   6.005 -0.5249  0.7684  0.8805
 9252SOL    HW228890   2.157   1.817   5.986  0.4191 -0.8653 -1.1433
 9253SOL     OW28891   6.974   2.196   4.361 -0.2267 -0.4986 -0.3539
 9253SOL    HW128892   6.891   2.148   4.352  0.0192 -0.9318 -0.3486
 9253SOL    HW228893   6.984   2.241   4.277 -0.1626 -0.9478 -0.5925
 9254SOL     OW28894   2.565   2.968   6.051  0.2358  0.2467 -0.0301
 9254SOL    HW128895   2.502   3.001   5.986 -0.2032  0.7256  0.6221
 9254SOL    HW228896   2.511   2.935   6.122  0.7096 -0.5362 -0.0235
 9255SOL     OW28897   1.321   6.397   2.718  0.0357 -0.1730  0.9093
 9255SOL    HW128898   1.257   6.454   2.675  0.6664 -0.7603 -0.9272
 9255SOL    HW228899   1.392   6.389   2.654  0.6326 -1.8089  1.7180
 9256SOL     OW28900   2.472   5.419   3.876 -0.2685  0.4516  0.7353
 9256SOL    HW128901   2.400   5.475   3.846 -1.6703 -1.6344 -0.0377
 9256SOL    HW228902   2.550   5.456   3.835 -1.3742  0.9584 -1.0203
 9257SOL     OW28903   3.590   0.245   8.362 -0.0221 -0.0854  0.1208
 9257SOL    HW128904   3.539   0.326   8.372 -0.9757 -0.5211 -0.9233
 9257SOL    HW228905   3.674   0.264   8.403 -0.4913  1.1846  0.5451
 9258SOL     OW28906   0.468   5.674   0.606  0.1181  0.5328  0.1952
 9258SOL    HW128907   0.386   5.696   0.649 -0.2956 -0.3840 -0.0920
 9258SOL    HW228908   0.484   5.745   0.544 -0.3141  0.8493  0.4433
 9259SOL     OW28909   2.871   0.169   4.550  0.5229 -0.0648  0.6790
 9259SOL    HW128910   2.814   0.094   4.532  0.6993  0.2595 -1.5269
 9259SOL    HW228911   2.937   0.135   4.611 -0.5125 -1.1545  1.2250
 9260SOL     OW28912   8.896   5.949   5.199 -0.0995 -0.0449 -0.1525
 9260SOL    HW128913   8.924   5.884   5.264 -0.4170  2.3930  2.6191
 9260SOL    HW228914   8.957   5.937   5.126  0.6976 -2.5188  0.7969
 9261SOL     OW28915   8.159   0.287   0.544 -0.2603 -0.1741 -0.5566
 9261SOL    HW128916   8.226   0.288   0.612 -3.3333 -1.6628  2.8336
 9261SOL    HW228917   8.153   0.378   0.515  3.1610  0.0090 -1.1536
 9262SOL     OW28918   7.096   1.439   1.125  0.1048  0.3124  0.1447
 9262SOL    HW128919   7.077   1.533   1.133 -0.9244 -0.0049  1.9042
 9262SOL    HW228920   7.132   1.415   1.210  0.8149 -0.8112 -0.4484
 9263SOL     OW28921   1.817   3.489   0.458 -0.4448  0.1736 -0.1908
 9263SOL    HW128922   1.770   3.571   0.475  1.5906  1.5207 -0.6766
 9263SOL    HW228923   1.898   3.517   0.415 -0.8708 -2.3147 -2.8477
 9264SOL     OW28924   5.233   5.533   6.851 -0.1130  0.2998 -0.4783
 9264SOL    HW128925   5.201   5.542   6.762  1.1207 -0.3392 -1.0083
 9264SOL    HW228926   5.284   5.612   6.867  0.0716  0.1858 -0.5099
 9265SOL     OW28927   6.713   8.536   7.303 -0.7908 -0.3028  0.3716
 9265SOL    HW128928   6.684   8.619   7.342  1.2232  0.6173  0.0975
 9265SOL    HW228929   6.640   8.508   7.248 -1.6383  1.1761  0.6858
 9266SOL     OW28930   1.027   7.644   7.041 -0.0866 -0.1166 -0.2840
 9266SOL    HW128931   0.944   7.611   7.075  0.3270 -0.5506  0.3306
 9266SOL    HW228932   1.005   7.683   6.957 -0.9167 -0.2028 -0.1126
 9267SOL     OW28933   3.969   4.192   3.532  0.3771  0.2443  0.0380
 9267SOL    HW128934   3.877   4.178   3.508  0.4729 -1.6061  0.5838
 9267SOL    HW228935   3.986   4.125   3.598  0.6907  3.7702  3.8947
 9268SOL     OW28936   2.195   1.484   7.585 -0.1321  0.1832 -0.4127
 9268SOL    HW128937   2.283   1.483   7.546 -0.3101  1.4389 -0.9081
 9268SOL    HW228938   2.139   1.448   7.516 -0.1894  0.6634 -0.6204
 9269SOL     OW28939   3.142   2.862   5.978 -0.1852 -0.2762 -0.1637
 9269SOL    HW128940   3.236   2.856   5.961 -0.1614 -0.3963  0.0056
 9269SOL    HW228941   3.102   2.873   5.892 -0.2891 -3.4034 -0.6281
 9270SOL     OW28942   1.807   7.388   5.941 -0.4505 -0.2696 -0.2934
 9270SOL    HW128943   1.757   7.450   5.889  1.7913 -0.2606 -2.6739
 9270SOL    HW228944   1.856   7.442   6.003 -1.5432 -0.0782  0.4230
 9271SOL     OW28945   3.667   1.103   7.031 -0.3317  0.2072 -0.2316
 9271SOL    HW128946   3.736   1.083   7.095 -0.2197  0.4925 -0.2576
 9271SOL    HW228947   3.703   1.177   6.981 -0.6792  0.3916 -0.2112
 9272SOL     OW28948   5.430   3.977   3.506  0.1723 -0.1301  0.2190
 9272SOL    HW128949   5.379   3.901   3.535  0.2069  0.1177  0.9533
 9272SOL    HW228950   5.464   3.952   3.420 -2.0650  0.1363 -0.7898
 9273SOL     OW28951   6.757   2.628   4.895 -0.2833 -0.0432 -0.1449
 9273SOL    HW128952   6.741   2.708   4.945  2.2780  1.9920 -2.2683
 9273SOL    HW228953   6.822   2.580   4.946  1.7055  1.6174 -1.0173
 9274SOL     OW28954   3.297   3.950   7.662  0.0533  0.5165 -0.0686
 9274SOL    HW128955   3.246   3.884   7.710  0.5617 -0.5754 -0.9723
 9274SOL    HW228956   3.317   4.017   7.727 -0.3822 -0.2761  0.9101
 9275SOL     OW28957   3.006   5.818   5.701  0.0276  0.1551  0.0710
 9275SOL    HW128958   2.945   5.867   5.646  0.9593  0.2038 -0.9410
 9275SOL    HW228959   2.958   5.805   5.783 -0.6857  1.7184 -0.0584
 9276SOL     OW28960   9.013   1.397   2.146 -0.4077 -0.0931  0.0245
 9276SOL    HW128961   9.005   1.303   2.127 -0.1848  0.3187 -2.6067
 9276SOL    HW228962   9.096   1.405   2.192 -0.8168 -1.2638  1.0104
 9277SOL     OW28963   7.006   4.806   0.379  0.1116  0.3187  0.1400
 9277SOL    HW128964   7.028   4.899   0.381 -1.2672  0.6683  0.3430
 9277SOL    HW228965   6.940   4.795   0.447 -2.4277 -0.0392 -2.1681
 9278SOL     OW28966   0.326   0.346   5.508 -0.0151  0.2535  0.0354
 9278SOL    HW128967   0.250   0.379   5.461  1.1037  0.2279 -1.8617
 9278SOL    HW228968   0.321   0.251   5.500 -2.3045 -0.2378  4.0606
 9279SOL     OW28969   3.061   4.540   5.198  0.5223  0.5011 -0.1883
 9279SOL    HW128970   3.101   4.507   5.118  1.3511 -0.2292  0.5000
 9279SOL    HW228971   3.050   4.462   5.253 -0.9404  0.8420  0.0340
 9280SOL     OW28972   6.397   6.034   7.308  0.5028 -0.3005 -0.0499
 9280SOL    HW128973   6.344   6.052   7.385  1.1015 -0.5156  0.4205
 9280SOL    HW228974   6.487   6.029   7.341  0.7986 -0.0962 -0.8062
 9281SOL     OW28975   2.396   8.236   2.564  0.1787 -0.1490 -0.1551
 9281SOL    HW128976   2.453   8.245   2.487  0.8736 -3.1095 -0.0930
 9281SOL    HW228977   2.307   8.236   2.528  0.4751 -0.9153 -0.9162
 9282SOL     OW28978   6.695   7.471   5.580 -0.0566  0.0480  0.6621
 9282SOL    HW128979   6.720   7.431   5.496  0.4913  0.4650  0.6273
 9282SOL    HW228980   6.607   7.507   5.563 -0.8166 -1.6141  0.8601
 9283SOL     OW28981   2.595   6.947   3.673 -0.2458 -0.2822 -0.2980
 9283SOL    HW128982   2.556   7.015   3.619  0.1765  1.5779  1.5910
 9283SOL    HW228983   2.675   6.922   3.627 -0.3718  0.5454 -0.9847
 9284SOL     OW28984   2.293   5.674   3.080 -0.1149 -0.4917 -0.0847
 9284SOL    HW128985   2.303   5.620   3.002 -0.5369 -2.3426  1.0803
 9284SOL    HW228986   2.274   5.762   3.047 -0.5883 -1.2931 -2.0398
 9285SOL     OW28987   4.097   7.793   7.710  0.2822 -0.1989  0.3873
 9285SOL    HW128988   4.101   7.715   7.764  1.3378 -1.2614 -1.1388
 9285SOL    HW228989   4.123   7.764   7.623  2.4351  2.1512  0.1195
 9286SOL     OW28990   6.217   7.437   8.368 -0.2025 -0.3475  0.5045
 9286SOL    HW128991   6.214   7.411   8.276 -2.4551 -0.8393  0.6567
 9286SOL    HW228992   6.158   7.512   8.374  0.3253  0.0132  1.4648
 9287SOL     OW28993   4.252   9.047   3.643  0.1091  0.1390  0.3638
 9287SOL    HW128994   4.264   9.058   3.548 -0.2799 -1.1581  0.1375
 9287SOL    HW228995   4.276   9.132   3.680 -2.7171  1.7445 -1.1261
 9288SOL     OW28996   3.423   3.277   8.185  0.2332 -0.1728 -0.8524
 9288SOL    HW128997   3.427   3.284   8.089 -0.0777  0.9843 -0.7957
 9288SOL    HW228998   3.338   3.237   8.203  1.0152 -2.0636 -1.1043
 9289SOL     OW28999   4.106   7.755   8.211 -0.4702  0.3666  0.2870
 9289SOL    HW129000   4.021   7.777   8.248 -0.2818  0.4699  0.6641
 9289SOL    HW229001   4.152   7.710   8.282 -0.6242 -0.7038 -0.2638
 9290SOL     OW29002   7.262   8.034   5.633  0.0200 -0.0453  0.0266
 9290SOL    HW129003   7.201   8.040   5.706 -1.3134  0.2545 -1.0827
 9290SOL    HW229004   7.207   8.041   5.555  1.2240 -1.8056 -1.0416
 9291SOL     OW29005   4.452   4.648   2.277  0.6911  0.4433 -0.1315
 9291SOL    HW129006   4.529   4.673   2.329  0.6154  0.3115  0.0438
 9291SOL    HW229007   4.377   4.678   2.329  0.5098 -1.7920  1.0096
 9292SOL     OW29008   1.250   2.284   2.936 -0.1519  0.2240 -0.1786
 9292SOL    HW129009   1.203   2.335   2.869 -0.7726 -0.3334 -0.1763
 9292SOL    HW229010   1.235   2.193   2.911 -1.0468 -0.0256  1.1420
 9293SOL     OW29011   2.297   7.458   5.388  0.1250 -0.3983  0.2080
 9293SOL    HW129012   2.211   7.424   5.413  0.2163 -0.1687  0.8587
 9293SOL    HW229013   2.359   7.395   5.424  0.3517  0.9743  2.4263
 9294SOL     OW29014   6.158   1.303   4.456  0.2253  0.5299  0.5573
 9294SOL    HW129015   6.091   1.273   4.395  0.8786  1.9692 -0.9551
 9294SOL    HW229016   6.177   1.393   4.429  2.4525  0.3206  1.1857
 9295SOL     OW29017   7.100   2.732   7.419 -0.0702  0.1865  0.1032
 9295SOL    HW129018   7.021   2.696   7.380  0.0031 -0.2762  0.3780
 9295SOL    HW229019   7.129   2.666   7.482  2.7711 -1.5949 -2.7723
 9296SOL     OW29020   5.346   1.179   8.380 -0.7153  0.3689 -0.1221
 9296SOL    HW129021   5.323   1.270   8.399 -0.6751  0.7180 -1.6171
 9296SOL    HW229022   5.426   1.164   8.431 -0.6587  1.2113  0.0630
 9297SOL     OW29023   6.968   4.408   7.344 -0.5093 -0.5177  0.2271
 9297SOL    HW129024   6.920   4.430   7.264 -1.0371  2.6076  1.2775
 9297SOL    HW229025   7.049   4.459   7.338 -0.9804  0.5041  2.0483
 9298SOL     OW29026   4.229   3.675   1.461  0.2310  0.0788  0.1697
 9298SOL    HW129027   4.311   3.718   1.487 -0.3262  1.8361 -0.7948
 9298SOL    HW229028   4.257   3.595   1.416  1.6012  1.7461 -2.1869
 9299SOL     OW29029   7.615   2.771   6.395 -0.1755 -0.2985  0.3879
 9299SOL    HW129030   7.580   2.683   6.413  3.4135 -1.7422  1.0937
 9299SOL    HW229031   7.645   2.802   6.480  1.2250  0.3166 -0.3018
 9300SOL     OW29032   8.810   0.517   0.088  0.0033 -0.0116 -0.6415
 9300SOL    HW129033   8.831   0.605   0.059 -1.2451  0.2645 -0.7732
 9300SOL    HW229034   8.844   0.512   0.177  1.4263  0.0698 -1.1634
 9301SOL     OW29035   4.497   4.690   4.491  0.1635 -0.2813 -0.0461
 9301SOL    HW129036   4.591   4.670   4.489  0.0772 -0.7350  0.2906
 9301SOL    HW229037   4.455   4.611   4.458 -0.1430 -0.4040  0.6203
 9302SOL     OW29038   4.591   5.175   2.113  0.2358  0.3709 -0.0066
 9302SOL    HW129039   4.635   5.248   2.156  0.3442  0.3888 -0.1485
 9302SOL    HW229040   4.662   5.122   2.078  0.1407  0.4411 -0.3038
 9303SOL     OW29041   4.659   8.510   4.945  0.2561  0.0092 -0.2872
 9303SOL    HW129042   4.656   8.517   5.040  0.9879 -1.5090 -0.1296
 9303SOL    HW229043   4.682   8.598   4.915 -1.3871  0.8822  0.8240
 9304SOL     OW29044   3.000   2.872   6.965 -0.3070 -0.3120  0.1325
 9304SOL    HW129045   3.000   2.956   6.919 -0.3455 -0.7905 -0.7741
 9304SOL    HW229046   2.935   2.819   6.917 -0.5320 -0.7451  0.8990
 9305SOL     OW29047   0.772   1.930   7.622  0.0064 -0.3850  0.4506
 9305SOL    HW129048   0.822   1.928   7.540  0.5168  1.1972  0.6890
 9305SOL    HW229049   0.682   1.910   7.596  0.1634  0.1226 -0.4946
 9306SOL     OW29050   2.791   3.023   4.674  0.0573 -0.3322 -0.7571
 9306SOL    HW129051   2.723   3.024   4.742 -0.4151 -1.3955 -1.1874
 9306SOL    HW229052   2.848   3.096   4.696 -2.3426  1.9411 -1.5304
 9307SOL     OW29053   3.939   0.896   0.586 -0.2471  0.2799 -0.1571
 9307SOL    HW129054   3.878   0.849   0.643  1.3263 -1.2975  0.3042
 9307SOL    HW229055   4.009   0.834   0.569  0.3276  1.3992 -2.2202
 9308SOL     OW29056   8.974   3.341   1.448 -0.3574 -0.0989 -0.4970
 9308SOL    HW129057   8.963   3.246   1.446  0.9295 -0.2792 -0.0040
 9308SOL    HW229058   9.052   3.358   1.395  1.1607  0.3594  1.7026
 9309SOL     OW29059   3.748   7.233   7.572 -0.0386 -0.2339 -0.0326
 9309SOL    HW129060   3.683   7.200   7.510 -0.0079 -0.5405  0.0955
 9309SOL    HW229061   3.829   7.188   7.548  0.3603  0.8526 -0.7979
 9310SOL     OW29062   7.203   7.768   6.564  0.4972  0.2616  0.0983
 9310SOL    HW129063   7.281   7.798   6.611  1.3999 -0.3090 -0.9933
 9310SOL    HW229064   7.137   7.836   6.580  0.8487  0.2259  1.9358
 9311SOL     OW29065   6.264   4.202   3.941 -0.0061 -0.2253 -0.0643
 9311SOL    HW129066   6.349   4.233   3.908  0.2715  0.7735  1.4658
 9311SOL    HW229067   6.200   4.259   3.898  0.0416 -1.2117 -1.4933
 9312SOL     OW29068   0.593   3.596   6.456 -0.6069  0.5290 -0.6401
 9312SOL    HW129069   0.582   3.691   6.449 -0.7547  0.5005 -0.8088
 9312SOL    HW229070   0.651   3.584   6.531 -0.6694  0.7478 -0.5555
 9313SOL     OW29071   2.648   8.079   3.801 -0.0766  0.1886 -0.4280
 9313SOL    HW129072   2.627   7.986   3.809 -0.7457  0.2701 -1.0798
 9313SOL    HW229073   2.685   8.087   3.713 -0.5814  0.6290 -0.6063
 9314SOL     OW29074   5.220   2.850   4.684 -0.3413  0.3736  0.6301
 9314SOL    HW129075   5.274   2.862   4.606 -0.3216  1.5327  0.7944
 9314SOL    HW229076   5.133   2.880   4.658 -0.5344 -0.0338  0.8033
 9315SOL     OW29077   6.607   5.647   1.046  0.4592  0.0129  0.1802
 9315SOL    HW129078   6.540   5.649   0.977  0.3855 -0.7259  0.2175
 9315SOL    HW229079   6.562   5.679   1.124  0.9449  2.2870 -0.4170
 9316SOL     OW29080   7.426   4.451   4.617 -0.3877  0.3621  0.5160
 9316SOL    HW129081   7.408   4.363   4.583  0.4445  1.3036 -2.6334
 9316SOL    HW229082   7.339   4.489   4.632 -0.8553  0.2548 -1.6720
 9317SOL     OW29083   0.467   4.333   8.007  0.5955 -0.2534  0.1973
 9317SOL    HW129084   0.443   4.357   7.917  0.8255 -2.5827 -0.5385
 9317SOL    HW229085   0.562   4.341   8.010  0.6204 -0.5044  0.1166
 9318SOL     OW29086   1.743   5.754   3.831  0.0273  0.5182 -0.2509
 9318SOL    HW129087   1.707   5.742   3.919  0.6329 -0.7544 -0.1535
 9318SOL    HW229088   1.676   5.804   3.784 -1.5328 -1.1174  0.1441
 9319SOL     OW29089   1.891   0.289   5.182  0.3646 -0.0755 -0.3474
 9319SOL    HW129090   1.847   0.206   5.199  0.7230  0.1034  1.6899
 9319SOL    HW229091   1.851   0.321   5.101 -1.6510 -0.9683  0.2320
 9320SOL     OW29092   0.391   1.218   2.634  0.3604  0.4260 -0.3535
 9320SOL    HW129093   0.348   1.176   2.559  0.2438 -1.4236  0.6956
 9320SOL    HW229094   0.378   1.312   2.619 -1.7307  0.0283 -1.4494
 9321SOL     OW29095   7.105   7.866   8.776 -0.7578 -0.1869 -0.2263
 9321SOL    HW129096   7.043   7.929   8.740 -1.4252 -0.4932  0.3671
 9321SOL    HW229097   7.162   7.843   8.702  0.5905  2.3475 -0.0741
 9322SOL     OW29098   6.443   5.744   2.538  0.3022  0.0183  0.0982
 9322SOL    HW129099   6.429   5.835   2.512  0.6280  0.1864  0.5146
 9322SOL    HW229100   6.504   5.710   2.473  1.3926  0.5381  0.8337
 9323SOL     OW29101   2.494   1.403   1.891  0.5101  0.5576 -0.4091
 9323SOL    HW129102   2.438   1.474   1.923  0.7096 -0.4895  2.5763
 9323SOL    HW229103   2.437   1.350   1.836 -0.7920  0.8318  0.6304
 9324SOL     OW29104   0.525   1.622   7.158  0.1998 -0.1200  0.3935
 9324SOL    HW129105   0.579   1.634   7.080 -0.9325  0.1010 -0.3921
 9324SOL    HW229106   0.505   1.711   7.187  0.5058 -0.2020  0.8635
 9325SOL     OW29107   5.295   1.432   4.760 -0.3226 -0.4882 -0.1596
 9325SOL    HW129108   5.324   1.433   4.852 -1.5598 -0.4508  0.2444
 9325SOL    HW229109   5.270   1.522   4.742 -3.2121 -1.0419  0.5389
 9326SOL     OW29110   0.183   5.832   0.104 -0.0186 -0.6086 -0.4450
 9326SOL    HW129111   0.265   5.838   0.054 -1.2093  2.1836 -2.3738
 9326SOL    HW229112   0.196   5.893   0.177 -0.5587  0.3835 -1.1519
 9327SOL     OW29113   1.341   3.888   8.752 -0.3075  0.2148  0.0376
 9327SOL    HW129114   1.402   3.815   8.747 -0.2347  0.3410 -1.4650
 9327SOL    HW229115   1.274   3.868   8.687 -1.2824  0.6180  0.8860
 9328SOL     OW29116   8.214   8.443   7.801  0.3643  0.0117  0.4740
 9328SOL    HW129117   8.178   8.354   7.792 -2.8884  1.1594  0.9343
 9328SOL    HW229118   8.253   8.445   7.888  1.8274 -1.3426 -0.1020
 9329SOL     OW29119   5.800   4.801   1.754 -0.4990  0.1923  0.5470
 9329SOL    HW129120   5.784   4.796   1.848  0.9740 -0.0503  0.8095
 9329SOL    HW229121   5.713   4.812   1.715 -0.9612  2.2347  2.0385
 9330SOL     OW29122   4.005   7.516   4.209 -0.2367  0.2916 -0.7021
 9330SOL    HW129123   3.977   7.587   4.152 -2.6510  0.8738  1.0214
 9330SOL    HW229124   3.948   7.443   4.185  1.4708 -0.7841 -1.6958
 9331SOL     OW29125   0.905   5.304   2.013 -0.3098 -0.3414  0.1141
 9331SOL    HW129126   0.998   5.324   2.000  0.4064 -1.5580  2.7790
 9331SOL    HW229127   0.901   5.209   2.024 -2.1812 -0.5599 -1.6590
 9332SOL     OW29128   5.065   7.830   2.906  0.1429 -0.1933  0.0435
 9332SOL    HW129129   5.139   7.882   2.876 -1.2962  2.1799  0.3181
 9332SOL    HW229130   4.991   7.863   2.854 -1.0482 -1.1560  1.0754
 9333SOL     OW29131   3.539   2.573   4.068 -0.1402  0.3397 -0.0707
 9333SOL    HW129132   3.464   2.632   4.061  0.4942  1.3473  1.2639
 9333SOL    HW229133   3.615   2.627   4.045  0.6080  0.4784  2.4441
 9334SOL     OW29134   2.040   3.167   8.982  0.0265 -0.5632 -0.3121
 9334SOL    HW129135   2.027   3.072   8.976 -1.3726 -0.3688 -0.7548
 9334SOL    HW229136   2.029   3.198   8.892  3.7557 -0.2947 -0.8190
 9335SOL     OW29137   1.708   6.550   7.353 -0.2067  0.8117  0.1353
 9335SOL    HW129138   1.782   6.579   7.301 -0.0706 -0.1690 -0.2368
 9335SOL    HW229139   1.658   6.630   7.371  0.9230  1.4752  0.3796
 9336SOL     OW29140   5.555   4.854   1.557 -0.8527 -0.4148 -0.3148
 9336SOL    HW129141   5.565   4.910   1.480 -1.3467 -0.2623 -0.2673
 9336SOL    HW229142   5.603   4.774   1.534 -0.0489  0.0578 -0.3383
 9337SOL     OW29143   6.374   1.562   3.120 -0.3594 -0.3017  0.3526
 9337SOL    HW129144   6.321   1.504   3.176 -0.2019  1.2410  2.2083
 9337SOL    HW229145   6.436   1.603   3.180 -0.0676  1.3483 -1.0001
 9338SOL     OW29146   6.159   6.642   2.235  0.1405 -0.4949 -0.1531
 9338SOL    HW129147   6.083   6.672   2.185 -1.9591 -0.6189  2.7128
 9338SOL    HW229148   6.129   6.563   2.280  1.1038  0.7183  2.8972
 9339SOL     OW29149   1.157   6.793   3.773 -0.1691 -0.5586 -0.2996
 9339SOL    HW129150   1.093   6.735   3.813 -0.2829 -1.0830 -1.2074
 9339SOL    HW229151   1.106   6.847   3.712  0.2288 -0.8825 -0.9228
 9340SOL     OW29152   5.666   1.820   2.469 -0.4151  0.2047  0.8236
 9340SOL    HW129153   5.691   1.910   2.491  0.9958 -0.0082  0.2522
 9340SOL    HW229154   5.725   1.765   2.521 -0.2446 -0.3590  0.0668
 9341SOL     OW29155   1.957   7.784   6.310 -0.1423 -0.5979 -0.1556
 9341SOL    HW129156   1.967   7.710   6.370 -2.1986  0.5702  1.7907
 9341SOL    HW229157   1.878   7.764   6.260  0.9780 -1.0647 -1.8258
 9342SOL     OW29158   8.120   1.238   8.467 -0.4505  0.0468  0.1475
 9342SOL    HW129159   8.151   1.259   8.379  0.5504 -0.6290  0.3208
 9342SOL    HW229160   8.190   1.268   8.526 -0.0456 -1.5736  0.5386
 9343SOL     OW29161   3.523   9.062   1.868  0.1305  0.4149  0.4600
 9343SOL    HW129162   3.580   9.007   1.815  1.0359  1.5271  0.2656
 9343SOL    HW229163   3.582   9.108   1.927 -0.6079  1.2685  0.5453
 9344SOL     OW29164   4.934   0.459   4.171 -0.8617 -0.0719 -0.1070
 9344SOL    HW129165   4.911   0.547   4.141  0.5258  0.5778  0.6271
 9344SOL    HW229166   4.965   0.414   4.092 -0.0876  0.6257 -0.2126
 9345SOL     OW29167   2.871   7.279   8.839 -0.1690 -0.1598  0.2972
 9345SOL    HW129168   2.854   7.229   8.919  0.8974  1.8790  1.9131
 9345SOL    HW229169   2.794   7.336   8.830  1.3965  2.5062  2.3281
 9346SOL     OW29170   6.136   7.911   8.183  0.1513  0.4919 -0.4963
 9346SOL    HW129171   6.194   7.951   8.248 -0.0179 -0.0066 -0.0426
 9346SOL    HW229172   6.060   7.969   8.180 -1.4922 -1.2752  2.3442
 9347SOL     OW29173   4.930   4.382   4.879 -0.1959 -0.7683 -0.0746
 9347SOL    HW129174   4.992   4.452   4.858 -0.7925 -0.9590 -2.9124
 9347SOL    HW229175   4.959   4.348   4.964  2.1481  0.6518 -0.2241
 9348SOL     OW29176   8.426   2.513   6.588 -0.1256 -0.4429 -0.1576
 9348SOL    HW129177   8.398   2.590   6.539  0.6608  0.4963  0.8280
 9348SOL    HW229178   8.452   2.450   6.521  1.1047  0.8805 -0.9711
 9349SOL     OW29179   0.098   3.730   7.581  0.6927  0.0468  0.1712
 9349SOL    HW129180   0.109   3.637   7.563 -0.1345 -0.1762  0.7437
 9349SOL    HW229181   0.039   3.761   7.512 -2.5095 -0.8168  2.3095
 9350SOL     OW29182   1.520   6.166   6.003 -0.0428  0.3474  0.2003
 9350SOL    HW129183   1.510   6.220   5.924  0.0424 -1.4743 -1.1253
 9350SOL    HW229184   1.614   6.149   6.008 -0.0354  0.5486  0.7682
 9351SOL     OW29185   3.011   6.682   7.777 -0.1749  0.3679  0.6190
 9351SOL    HW129186   2.986   6.764   7.734 -1.6378  0.0058  0.7316
 9351SOL    HW229187   3.031   6.623   7.705  1.9490  1.0805  0.5372
 9352SOL     OW29188   3.974   7.459   5.060 -0.1160 -0.2664  0.5909
 9352SOL    HW129189   3.991   7.411   4.979  1.1923  0.2048  0.5674
 9352SOL    HW229190   3.879   7.468   5.063 -0.2424 -1.1106 -0.4064
 9353SOL     OW29191   0.656   5.415   1.905 -0.1098 -0.2558 -0.8049
 9353SOL    HW129192   0.729   5.373   1.951  0.1140  3.2247  2.5072
 9353SOL    HW229193   0.698   5.478   1.845 -0.2541  1.3480  0.6963
 9354SOL     OW29194   3.527   2.407   0.303  0.1704  0.4630 -0.7706
 9354SOL    HW129195   3.543   2.484   0.356  0.4108  0.6999 -1.1775
 9354SOL    HW229196   3.560   2.334   0.356 -0.8263  0.5378 -0.0350
 9355SOL     OW29197   7.139   4.383   4.910 -0.4290  0.0248 -0.3459
 9355SOL    HW129198   7.046   4.396   4.891  0.1724  1.8217 -2.6652
 9355SOL    HW229199   7.167   4.314   4.850 -0.6011 -2.0014  1.7774
 9356SOL     OW29200   6.678   6.451   0.160  0.5219  0.2824 -0.4194
 9356SOL    HW129201   6.706   6.541   0.181 -0.0954  0.6891 -1.2601
 9356SOL    HW229202   6.729   6.396   0.218 -1.2517  1.3228  2.3071
 9357SOL     OW29203   1.215   7.541   3.266  0.2964  0.3780 -0.9392
 9357SOL    HW129204   1.232   7.447   3.278  0.0859  0.3442 -0.9074
 9357SOL    HW229205   1.130   7.545   3.224  0.6660  0.5288 -1.6950
 9358SOL     OW29206   5.316   7.029   0.613  0.0594 -0.1736  0.2401
 9358SOL    HW129207   5.313   6.947   0.663 -0.1540 -1.3751 -1.6305
 9358SOL    HW229208   5.262   7.090   0.664  0.5837 -1.0335  1.9085
 9359SOL     OW29209   4.228   4.757   3.933 -0.3598  0.3090  0.1194
 9359SOL    HW129210   4.271   4.674   3.956 -1.1413 -0.4100 -0.9486
 9359SOL    HW229211   4.290   4.801   3.876  0.0360  0.4519  0.6479
 9360SOL     OW29212   6.292   7.517   0.635  0.0339 -0.1478 -0.4491
 9360SOL    HW129213   6.260   7.606   0.619  1.1387  0.1820 -0.9970
 9360SOL    HW229214   6.281   7.504   0.729 -0.3195  0.5024 -0.3914
 9361SOL     OW29215   6.324   2.958   6.334  0.0824  0.3790  0.1143
 9361SOL    HW129216   6.395   2.909   6.293  1.0617  0.4757  1.6481
 9361SOL    HW229217   6.257   2.891   6.353  0.8203 -0.1486  0.9207
 9362SOL     OW29218   2.469   5.658   5.329  0.2763 -0.1994  0.0066
 9362SOL    HW129219   2.526   5.588   5.297  2.9459  1.3850  0.9610
 9362SOL    HW229220   2.442   5.630   5.416 -0.7016 -1.0752 -0.5492
 9363SOL     OW29221   4.221   3.561   7.678  0.5214  0.0960 -0.0406
 9363SOL    HW129222   4.161   3.608   7.620 -0.9147 -1.1421  0.3694
 9363SOL    HW229223   4.289   3.528   7.620 -0.3026 -0.1989 -0.8743
 9364SOL     OW29224   8.382   3.051   3.905 -0.1068  0.2429  0.2714
 9364SOL    HW129225   8.299   3.005   3.912 -0.6811  1.5275  2.9096
 9364SOL    HW229226   8.373   3.104   3.825 -1.4623 -0.2617  0.0563
 9365SOL     OW29227   3.337   7.480   3.039  0.2056 -0.2132 -0.4273
 9365SOL    HW129228   3.243   7.484   3.057  0.1142 -0.0729 -0.9300
 9365SOL    HW229229   3.343   7.452   2.948  0.5977  2.3828 -1.2679
 9366SOL     OW29230   2.836   7.804   6.328  0.2221 -0.4299  0.5100
 9366SOL    HW129231   2.879   7.748   6.263 -1.6632 -0.3249 -0.9110
 9366SOL    HW229232   2.837   7.891   6.289 -2.4619 -0.6678 -0.2584
 9367SOL     OW29233   8.494   0.551   8.798 -0.6332 -0.3471  0.1585
 9367SOL    HW129234   8.497   0.581   8.889  1.6466  0.6277 -0.1707
 9367SOL    HW229235   8.527   0.462   8.802 -1.3616 -0.6108  0.3840
 9368SOL     OW29236   8.661   1.673   6.084  0.4191  0.2770  0.2958
 9368SOL    HW129237   8.654   1.769   6.089 -0.0881  0.2118  0.9474
 9368SOL    HW229238   8.734   1.652   6.142  0.2332  0.2295  0.5109
 9369SOL     OW29239   1.281   8.848   7.165  0.4724  0.5840 -0.1236
 9369SOL    HW129240   1.320   8.919   7.116  0.1588 -0.7327 -2.4109
 9369SOL    HW229241   1.301   8.769   7.114 -1.9400 -0.5774  0.5894
 9370SOL     OW29242   1.673   0.776   1.623 -0.0284  0.3671 -0.4350
 9370SOL    HW129243   1.645   0.816   1.541 -0.2314  1.7681  0.2762
 9370SOL    HW229244   1.618   0.818   1.690 -1.6473 -2.5228  0.2174
 9371SOL     OW29245   1.211   2.577   5.435  0.1062  0.0244  0.4105
 9371SOL    HW129246   1.164   2.551   5.514 -0.2398  0.5540  0.3827
 9371SOL    HW229247   1.163   2.535   5.363  0.0908 -0.0006  0.4352
 9372SOL     OW29248   5.574   0.180   1.220 -0.2508  0.4562 -0.0760
 9372SOL    HW129249   5.641   0.118   1.248 -0.5521  0.3343  0.3983
 9372SOL    HW229250   5.528   0.203   1.300 -0.8655  0.4295 -0.4150
 9373SOL     OW29251   6.464   0.548   4.243  0.2297  0.3886  0.1516
 9373SOL    HW129252   6.492   0.494   4.317 -0.6490  3.2924  2.7891
 9373SOL    HW229253   6.374   0.520   4.226 -0.0244  0.6190  1.0947
 9374SOL     OW29254   9.025   8.891   4.466  0.3943 -0.1206 -0.0574
 9374SOL    HW129255   8.994   8.982   4.469 -0.8186 -0.4762 -1.3213
 9374SOL    HW229256   9.046   8.871   4.558 -0.5820  1.0058  0.4432
 9375SOL     OW29257   1.433   0.915   1.719  0.0176 -0.0161  0.3068
 9375SOL    HW129258   1.444   0.998   1.766 -1.5595  0.9327 -0.8748
 9375SOL    HW229259   1.383   0.860   1.780  1.5512 -0.3582  1.3191
 9376SOL     OW29260   5.199   0.394   6.371  0.4863  0.3136  0.0772
 9376SOL    HW129261   5.138   0.454   6.413 -0.5745 -0.7967  0.1721
 9376SOL    HW229262   5.270   0.383   6.435 -0.1912  0.0814  0.7969
 9377SOL     OW29263   4.854   3.489   6.550 -0.1894 -0.3081  1.2099
 9377SOL    HW129264   4.767   3.527   6.566 -0.0963  0.6635 -0.4153
 9377SOL    HW229265   4.914   3.549   6.595 -0.2203  0.2052  0.5831
 9378SOL     OW29266   6.630   0.219   0.022  0.2033 -0.0161  0.0607
 9378SOL    HW129267   6.583   0.254   0.098 -0.2294 -0.2359 -0.1046
 9378SOL    HW229268   6.597   0.130   0.013 -2.5088  1.1071 -2.5951
 9379SOL     OW29269   5.744   0.663   0.132 -0.1218  0.6070  0.4108
 9379SOL    HW129270   5.675   0.608   0.169 -0.2283 -0.0883 -0.7832
 9379SOL    HW229271   5.698   0.737   0.094 -0.0714  0.9550  1.0208
 9380SOL     OW29272   6.324   7.635   2.204  0.1704  0.3221  0.6953
 9380SOL    HW129273   6.329   7.724   2.240 -0.2829  0.8307 -0.4498
 9380SOL    HW229274   6.396   7.630   2.142 -1.4646  0.9174 -1.3544
 9381SOL     OW29275   1.563   6.825   7.443  0.8931 -0.1684 -0.2627
 9381SOL    HW129276   1.573   6.890   7.512  0.0637 -1.1517  0.8300
 9381SOL    HW229277   1.544   6.876   7.364 -1.2916  0.8803  0.8513
 9382SOL     OW29278   0.572   4.476   4.814 -0.1935 -0.1414 -0.3077
 9382SOL    HW129279   0.626   4.441   4.885 -0.8073 -1.9116 -0.6694
 9382SOL    HW229280   0.630   4.477   4.738  0.3677  1.4523  0.0876
 9383SOL     OW29281   1.060   4.887   1.556 -0.1018 -0.5382 -0.1225
 9383SOL    HW129282   0.979   4.837   1.571  0.0587 -1.8313 -3.0278
 9383SOL    HW229283   1.130   4.824   1.569  0.6620  0.8125  3.3950
 9384SOL     OW29284   5.919   5.323   4.446  0.1695  0.3736  0.0640
 9384SOL    HW129285   5.948   5.412   4.466  3.9302 -0.4283 -0.9830
 9384SOL    HW229286   5.877   5.293   4.527  3.4426  1.4468  2.3981
 9385SOL     OW29287   5.086   2.253   1.381  0.4274  0.4748 -0.2709
 9385SOL    HW129288   5.006   2.205   1.361  1.7036 -1.3417 -1.3644
 9385SOL    HW229289   5.114   2.219   1.466  0.7774  0.0206 -0.5604
 9386SOL     OW29290   2.653   5.105   5.061  0.9447 -0.1195  0.2818
 9386SOL    HW129291   2.705   5.161   5.119 -1.4491  2.6728 -0.0125
 9386SOL    HW229292   2.602   5.049   5.120 -0.3058  1.5920  0.8955
 9387SOL     OW29293   9.059   3.422   4.376 -0.2638  0.3232 -0.9881
 9387SOL    HW129294   9.127   3.447   4.439  0.5435 -0.6222 -1.4495
 9387SOL    HW229295   9.000   3.365   4.425  0.2814 -0.2936 -1.0383
 9388SOL     OW29296   6.399   1.097   6.102 -0.0785 -0.4541 -0.1801
 9388SOL    HW129297   6.332   1.033   6.080  0.1486 -0.3928 -1.0977
 9388SOL    HW229298   6.482   1.050   6.092  0.2410  0.5660 -3.2619
 9389SOL     OW29299   3.958   6.800   5.290 -0.2164  0.0939 -0.0893
 9389SOL    HW129300   3.981   6.776   5.200  0.4233 -0.7826  0.2883
 9389SOL    HW229301   4.032   6.767   5.342 -0.8434  0.0975  0.8135
 9390SOL     OW29302   8.247   3.529   2.986  0.1054 -0.2754  0.0557
 9390SOL    HW129303   8.181   3.562   2.925 -0.9481  0.7002  1.6391
 9390SOL    HW229304   8.248   3.435   2.971 -3.1963 -0.6498  1.3077
 9391SOL     OW29305   4.722   6.850   3.170  0.4567  0.4328  0.2298
 9391SOL    HW129306   4.716   6.946   3.164 -0.2875  0.5794  2.3470
 9391SOL    HW229307   4.802   6.834   3.220 -0.8359  0.1567  2.3526
 9392SOL     OW29308   7.869   1.331   2.493  0.3871 -0.6940 -0.3513
 9392SOL    HW129309   7.811   1.401   2.461  0.2862 -1.7645 -2.6772
 9392SOL    HW229310   7.812   1.255   2.503  0.4877 -0.5111  2.2286
 9393SOL     OW29311   3.271   1.316   0.132  0.0632  0.0308  0.3872
 9393SOL    HW129312   3.316   1.360   0.205  0.6448  1.1999 -0.6429
 9393SOL    HW229313   3.207   1.259   0.175  0.4833  0.5796  1.8144
 9394SOL     OW29314   6.828   8.750   2.644 -0.2455 -0.6660 -0.0596
 9394SOL    HW129315   6.865   8.666   2.671  0.5598 -0.2340  0.2146
 9394SOL    HW229316   6.748   8.758   2.696  0.2455 -0.7628  0.7256
 9395SOL     OW29317   5.983   3.661   1.884  0.1461 -0.0100 -0.2425
 9395SOL    HW129318   5.913   3.617   1.837 -1.2199  0.5523  1.1757
 9395SOL    HW229319   6.037   3.590   1.919 -0.6601 -0.5082  0.0175
 9396SOL     OW29320   5.559   2.338   0.200 -0.0706 -0.2604 -0.0868
 9396SOL    HW129321   5.652   2.351   0.181 -0.2864 -1.2315 -2.1243
 9396SOL    HW229322   5.550   2.360   0.293  1.8329  1.5599 -0.2481
 9397SOL     OW29323   1.406   7.328   6.545 -0.2123 -0.2741 -0.6283
 9397SOL    HW129324   1.403   7.344   6.640 -0.0270  1.1518 -0.8388
 9397SOL    HW229325   1.498   7.307   6.528 -0.0666  0.3127 -0.6011
 9398SOL     OW29326   3.823   7.677   3.524  0.2046 -0.0608 -0.2143
 9398SOL    HW129327   3.821   7.732   3.602  1.6021  2.8122 -2.0045
 9398SOL    HW229328   3.742   7.627   3.527  0.3682 -0.3172  3.1601
 9399SOL     OW29329   0.301   0.675   0.957  0.3420 -0.2598 -0.3212
 9399SOL    HW129330   0.335   0.722   0.881 -0.8529  2.3804  0.6337
 9399SOL    HW229331   0.374   0.622   0.989  1.0238 -0.9861 -2.9151
 9400SOL     OW29332   0.051   0.424   4.449 -0.0237 -0.0393  0.2824
 9400SOL    HW129333  -0.035   0.384   4.432  0.4318 -3.9742  5.1179
 9400SOL    HW229334   0.042   0.463   4.536  2.8324  0.3615  0.4656
 9401SOL     OW29335   7.483   2.382   7.479  0.2468  0.1054 -0.7084
 9401SOL    HW129336   7.463   2.375   7.386 -0.0687 -0.1615 -0.6236
 9401SOL    HW229337   7.536   2.461   7.487  0.8791 -0.2544 -1.2148
 9402SOL     OW29338   1.963   0.125   9.100 -0.1035 -0.0018 -0.3702
 9402SOL    HW129339   1.965   0.137   9.005  0.1020  0.3201 -0.3248
 9402SOL    HW229340   1.963   0.030   9.112 -0.5469 -0.0496 -0.6987
 9403SOL     OW29341   0.540   5.191   0.120 -0.3110  0.3719 -0.8338
 9403SOL    HW129342   0.587   5.173   0.202  0.8615 -0.3178 -1.6312
 9403SOL    HW229343   0.510   5.281   0.129  1.9457  1.1700 -0.6150
 9404SOL     OW29344   8.960   5.731   0.942 -0.3018 -0.1832  0.1635
 9404SOL    HW129345   8.990   5.740   1.033  0.0602 -1.5262  0.1953
 9404SOL    HW229346   8.874   5.773   0.941  0.8105  2.3326  0.4559
 9405SOL     OW29347   0.631   6.858   4.700  0.3718 -0.1412  0.1250
 9405SOL    HW129348   0.559   6.798   4.684 -1.5136  2.3802 -1.6142
 9405SOL    HW229349   0.592   6.929   4.751  0.6922  2.6717 -3.1511
 9406SOL     OW29350   7.058   0.126   8.225 -0.1685 -0.5072 -0.5228
 9406SOL    HW129351   7.085   0.138   8.134  1.7200 -1.2410 -0.0940
 9406SOL    HW229352   7.069   0.033   8.242  2.4856  0.0325  1.2986
 9407SOL     OW29353   8.449   7.435   8.894  0.2014 -0.0589  0.6723
 9407SOL    HW129354   8.477   7.428   8.802  0.7952  0.1194  0.8368
 9407SOL    HW229355   8.378   7.499   8.893  1.0279  0.8583  0.5166
 9408SOL     OW29356   0.709   9.007   7.935 -0.1446 -0.5381 -0.0315
 9408SOL    HW129357   0.634   9.055   7.970  0.4492  0.5002 -0.1250
 9408SOL    HW229358   0.725   8.938   8.000 -0.3522  0.0627  0.6811
 9409SOL     OW29359   3.374   4.706   3.705 -0.2299 -0.7326  0.0531
 9409SOL    HW129360   3.331   4.766   3.643 -2.1233 -0.8917  1.1296
 9409SOL    HW229361   3.465   4.704   3.677 -0.3994  1.5273 -0.8960
 9410SOL     OW29362   6.398   7.488   0.089  0.2883 -0.5370 -0.1647
 9410SOL    HW129363   6.464   7.420   0.070 -0.6540 -1.5333  0.0620
 9410SOL    HW229364   6.322   7.462   0.038  0.4024  1.2388 -1.3416
 9411SOL     OW29365   5.701   1.511   4.836  0.5855  0.2917 -0.2935
 9411SOL    HW129366   5.670   1.601   4.836 -0.1278  0.1223 -2.8535
 9411SOL    HW229367   5.770   1.509   4.770  1.1794 -0.8596  0.3361
 9412SOL     OW29368   3.663   7.381   3.769 -0.4226  0.3392  0.0023
 9412SOL    HW129369   3.604   7.426   3.709 -1.4621  0.6410  1.2101
 9412SOL    HW229370   3.735   7.350   3.713 -1.4723  0.3646 -1.4228
 9413SOL     OW29371   2.362   4.389   7.188  0.1106  0.2795  0.0395
 9413SOL    HW129372   2.380   4.366   7.097  0.3189  2.0395 -0.3998
 9413SOL    HW229373   2.435   4.446   7.214 -1.0340  1.5490  0.5969
 9414SOL     OW29374   8.134   5.062   2.875  0.5981  0.1287  0.1190
 9414SOL    HW129375   8.073   5.077   2.947  0.8066 -0.9634  0.5395
 9414SOL    HW229376   8.168   5.149   2.854 -2.4323  1.1126 -1.3669
 9415SOL     OW29377   5.724   5.536   6.710  0.7242  0.0530  0.1657
 9415SOL    HW129378   5.736   5.568   6.799  1.3715 -0.8684  0.4336
 9415SOL    HW229379   5.710   5.615   6.657 -4.0032  0.4735  1.6288
 9416SOL     OW29380   0.272   2.815   5.502  0.5758 -0.2791  0.4525
 9416SOL    HW129381   0.300   2.905   5.520  0.3426 -0.2289  0.5699
 9416SOL    HW229382   0.278   2.805   5.407  0.4359 -0.0844  0.4238
 9417SOL     OW29383   7.827   2.138   9.064  0.4768  0.2779 -0.0723
 9417SOL    HW129384   7.835   2.229   9.090 -0.3058 -0.1399  1.7714
 9417SOL    HW229385   7.907   2.096   9.097  0.6111  0.1971 -0.4927
 9418SOL     OW29386   2.553   6.098   5.129 -0.2327  0.2137 -0.2097
 9418SOL    HW129387   2.515   6.012   5.148 -0.9777  0.7125  0.6236
 9418SOL    HW229388   2.645   6.079   5.107 -0.3682 -0.7854  0.0295
 9419SOL     OW29389   8.721   6.006   8.018 -0.1347  0.5768 -0.4250
 9419SOL    HW129390   8.778   6.065   7.968 -0.1746 -0.0196 -1.1778
 9419SOL    HW229391   8.781   5.941   8.055 -0.0272  1.3352  0.8024
 9420SOL     OW29392   0.672   2.031   3.586 -0.2056 -0.0653 -0.2424
 9420SOL    HW129393   0.714   2.100   3.535 -0.3324  1.6314  1.8011
 9420SOL    HW229394   0.579   2.056   3.587 -1.0244 -2.4985 -2.7513
 9421SOL     OW29395   3.972   0.611   0.322 -0.2343  0.1717 -0.3516
 9421SOL    HW129396   3.894   0.563   0.297 -0.2981  0.1249 -0.0640
 9421SOL    HW229397   4.039   0.581   0.261 -0.7044  1.0189 -1.2995
 9422SOL     OW29398   0.845   3.638   0.562  0.3300 -0.6193  0.4207
 9422SOL    HW129399   0.880   3.622   0.649  0.6332  0.7026  0.5619
 9422SOL    HW229400   0.852   3.733   0.550  0.1752 -0.7619 -0.9871
 9423SOL     OW29401   3.532   4.610   1.694  0.1473  0.2433  0.0236
 9423SOL    HW129402   3.505   4.690   1.649 -0.0572 -0.7237 -1.6754
 9423SOL    HW229403   3.627   4.612   1.691  0.2505 -1.5069 -3.9175
 9424SOL     OW29404   1.514   3.174   1.846 -0.0367 -0.1913  0.4418
 9424SOL    HW129405   1.581   3.166   1.914 -0.1848 -0.0215  0.6089
 9424SOL    HW229406   1.556   3.224   1.776 -0.1359  0.3289  0.7461
 9425SOL     OW29407   1.501   6.673   8.754  0.2412  0.1806 -0.9215
 9425SOL    HW129408   1.481   6.763   8.783 -2.2549 -0.9959  1.4792
 9425SOL    HW229409   1.420   6.625   8.769  2.6095 -3.4175  2.0082
 9426SOL     OW29410   6.566   8.447   4.722 -0.1416 -0.3993  0.1679
 9426SOL    HW129411   6.555   8.384   4.651  0.6485  0.8398 -1.1139
 9426SOL    HW229412   6.661   8.459   4.729 -0.2412  0.0479  0.9469
 9427SOL     OW29413   1.200   5.404   9.059 -0.4382 -0.2484 -0.0167
 9427SOL    HW129414   1.270   5.436   9.002  0.4625  2.1817  2.2671
 9427SOL    HW229415   1.153   5.483   9.086 -0.9104 -1.2907  2.4466
 9428SOL     OW29416   7.410   1.810   0.264  0.2194  0.1250 -0.5472
 9428SOL    HW129417   7.480   1.852   0.314 -1.5389  0.8138  1.4924
 9428SOL    HW229418   7.391   1.729   0.313 -0.5028  0.0163 -0.9964
 9429SOL     OW29419   5.000   6.121   4.031  0.6230 -0.5596  0.3173
 9429SOL    HW129420   4.977   6.040   3.985  0.4155 -0.0974 -0.4043
 9429SOL    HW229421   4.919   6.171   4.034  1.5389  1.4432 -2.9741
 9430SOL     OW29422   8.152   4.024   7.487 -0.4660 -0.1526  0.3008
 9430SOL    HW129423   8.177   4.116   7.472 -1.1346 -0.3395 -2.4800
 9430SOL    HW229424   8.226   3.987   7.534 -0.4778  1.9423  2.1551
 9431SOL     OW29425   6.578   7.204   0.261 -0.9138  0.0988 -0.9405
 9431SOL    HW129426   6.641   7.274   0.284  0.0661 -1.1571  0.4193
 9431SOL    HW229427   6.510   7.212   0.328 -0.1404 -1.0109  0.0182
 9432SOL     OW29428   4.448   7.465   5.177 -0.4213 -0.4596 -0.6905
 9432SOL    HW129429   4.457   7.474   5.082  0.9419  1.6493 -0.4372
 9432SOL    HW229430   4.374   7.520   5.200 -0.6934 -0.8955 -0.5198
 9433SOL     OW29431   1.966   4.177   5.508 -0.2883  0.3789 -0.7467
 9433SOL    HW129432   1.907   4.102   5.498  1.9601 -1.8859  1.3937
 9433SOL    HW229433   1.933   4.224   5.584 -0.4911  0.2989 -0.7840
 9434SOL     OW29434   4.831   7.242   5.294 -0.9298  0.1610 -0.9709
 9434SOL    HW129435   4.927   7.243   5.291 -0.7997 -2.5951 -0.1859
 9434SOL    HW229436   4.810   7.283   5.378 -0.4622  0.7118 -1.1125
 9435SOL     OW29437   2.122   2.989   1.598 -0.0580  0.0812  0.0150
 9435SOL    HW129438   2.049   3.048   1.578  0.3368  0.2131 -1.1130
 9435SOL    HW229439   2.080   2.905   1.618 -0.5281  0.2342 -0.3200
 9436SOL     OW29440   1.350   9.078   7.090 -0.0497  0.1811  0.2261
 9436SOL    HW129441   1.258   9.100   7.080 -0.0954  0.1863  0.6159
 9436SOL    HW229442   1.372   9.108   7.179  0.3028  0.1039  0.1670
 9437SOL     OW29443   4.294   7.221   3.048 -0.1855  0.3759  0.0943
 9437SOL    HW129444   4.256   7.256   2.968 -0.2305 -0.8513 -0.4495
 9437SOL    HW229445   4.362   7.160   3.018  1.0340  1.2346  1.0289
 9438SOL     OW29446   8.993   5.287   1.346  0.2694  0.3294 -0.1323
 9438SOL    HW129447   8.918   5.232   1.366  0.1745  0.8307  0.9270
 9438SOL    HW229448   9.067   5.243   1.387 -0.0714  1.8589  2.3280
 9439SOL     OW29449   7.364   6.374   8.039  0.0363  0.0066  0.0803
 9439SOL    HW129450   7.435   6.418   7.994 -0.5419  1.5508  0.5760
 9439SOL    HW229451   7.358   6.288   7.998  0.0569  1.0266 -2.2075
 9440SOL     OW29452   2.370   1.236   0.643 -0.4005 -0.4863 -0.2788
 9440SOL    HW129453   2.373   1.330   0.659 -2.4127 -0.5550  0.6686
 9440SOL    HW229454   2.386   1.227   0.549  0.4206  0.7355 -0.2705
 9441SOL     OW29455   6.098   7.954   7.294 -0.2780  0.1931  0.4318
 9441SOL    HW129456   6.074   7.931   7.205  1.4265 -0.5666  0.1398
 9441SOL    HW229457   6.193   7.943   7.298 -0.3098  0.2115  2.3410
 9442SOL     OW29458   7.667   0.994   0.386  0.1366  0.1892 -0.4907
 9442SOL    HW129459   7.592   0.981   0.328  0.3464  0.5888 -0.8540
 9442SOL    HW229460   7.651   0.934   0.459 -0.0865 -0.3807 -0.9981
 9443SOL     OW29461   6.753   5.429   8.994 -0.0834  0.4139  0.4143
 9443SOL    HW129462   6.730   5.430   9.087  1.7219  0.8084  0.8964
 9443SOL    HW229463   6.822   5.364   8.987  0.6170  1.2090 -0.4225
 9444SOL     OW29464   4.577   4.828   5.750 -0.8560  0.4451  0.5880
 9444SOL    HW129465   4.657   4.830   5.803 -0.5095  0.2573  0.0852
 9444SOL    HW229466   4.550   4.919   5.744  0.9182  0.9435 -1.5691
 9445SOL     OW29467   4.687   0.560   4.985 -0.3027 -0.2904 -0.3883
 9445SOL    HW129468   4.707   0.623   4.916 -0.7398 -0.9041 -1.0845
 9445SOL    HW229469   4.602   0.587   5.018 -0.8945 -1.0275 -1.2877
 9446SOL     OW29470   0.334   5.306   3.913  0.0593  0.8545 -0.2689
 9446SOL    HW129471   0.282   5.299   3.833 -0.8546 -0.2823  0.3860
 9446SOL    HW229472   0.424   5.301   3.883 -0.2758  0.1609 -1.2184
 9447SOL     OW29473   6.912   1.959   8.501 -0.4458  0.3054  0.0819
 9447SOL    HW129474   6.875   1.879   8.464 -0.2451  0.9582 -1.6180
 9447SOL    HW229475   6.895   1.952   8.595  1.0415 -2.4863  0.2422
 9448SOL     OW29476   0.625   6.407   0.333 -0.2973  0.0973  0.1431
 9448SOL    HW129477   0.670   6.490   0.346 -0.7581  0.4886 -0.6702
 9448SOL    HW229478   0.569   6.422   0.256 -0.0828 -1.0894 -0.2656
 9449SOL     OW29479   1.913   0.192   8.829  0.9643 -0.2606 -0.2010
 9449SOL    HW129480   1.882   0.275   8.865  0.3309 -0.3900 -0.4360
 9449SOL    HW229481   1.838   0.133   8.837  1.1562 -0.5889 -0.7618
 9450SOL     OW29482   7.245   0.767   8.651  0.0239 -0.0311  0.0090
 9450SOL    HW129483   7.321   0.713   8.628 -0.2480 -0.8150  0.8714
 9450SOL    HW229484   7.187   0.760   8.575  0.5631  0.1187 -0.4230
 9451SOL     OW29485   2.338   7.991   5.256 -0.1022 -0.0923  0.0795
 9451SOL    HW129486   2.428   8.009   5.229  0.8314 -2.0620  1.5646
 9451SOL    HW229487   2.344   7.908   5.303 -2.3819  0.6760  1.9127
 9452SOL     OW29488   4.997   8.231   0.574  0.0590 -0.4895 -0.5341
 9452SOL    HW129489   5.085   8.256   0.600 -0.1622 -1.4586  1.2978
 9452SOL    HW229490   5.004   8.213   0.480  1.8141 -0.5349 -0.4244
 9453SOL     OW29491   0.497   5.210   3.440  0.0333 -0.2679 -0.3239
 9453SOL    HW129492   0.520   5.222   3.532 -0.0820  0.4655 -0.3868
 9453SOL    HW229493   0.547   5.132   3.413 -0.1667 -0.6736  0.4322
 9454SOL     OW29494   9.060   6.474   1.052  0.1921  0.0960  0.1742
 9454SOL    HW129495   9.121   6.406   1.024  0.7754  0.1971  1.1668
 9454SOL    HW229496   9.116   6.545   1.085 -0.4510 -0.0012  1.5320
 9455SOL     OW29497   6.820   1.148   2.860  0.7857  0.2365  0.4600
 9455SOL    HW129498   6.752   1.146   2.793  1.0613  1.4335  0.1146
 9455SOL    HW229499   6.774   1.170   2.941  0.7409  1.0615  0.2225
 9456SOL     OW29500   3.480   6.800   4.284 -0.1823  0.1837  0.2654
 9456SOL    HW129501   3.523   6.886   4.280  0.8780 -0.3853 -1.1190
 9456SOL    HW229502   3.512   6.753   4.207 -1.4707 -1.1358  0.4910
 9457SOL     OW29503   3.422   8.539   2.516 -0.5340 -0.2761  0.0461
 9457SOL    HW129504   3.407   8.632   2.502  0.8278  0.3039  2.0354
 9457SOL    HW229505   3.517   8.530   2.512 -0.6467 -1.6064 -0.0995
 9458SOL     OW29506   2.454   5.967   4.043  0.4844 -0.0204  0.3762
 9458SOL    HW129507   2.476   6.060   4.035  0.8265  0.0592  1.9012
 9458SOL    HW229508   2.373   5.958   3.994  0.3847  1.1073  0.2933
 9459SOL     OW29509   3.182   8.277   0.895  0.2708  0.2161  0.0273
 9459SOL    HW129510   3.273   8.278   0.863  0.4361  2.3415  0.3874
 9459SOL    HW229511   3.151   8.366   0.879 -1.9152 -0.5775 -0.4493
 9460SOL     OW29512   5.947   8.989   5.276  0.4077  0.1781  0.8288
 9460SOL    HW129513   6.021   9.003   5.216  0.8701 -1.3580  1.0152
 9460SOL    HW229514   5.871   8.986   5.218  0.8249 -1.0695  0.2991
 9461SOL     OW29515   5.846   2.420   0.492  0.2194  0.0533  0.3584
 9461SOL    HW129516   5.800   2.498   0.462  2.0756  0.8321 -0.5650
 9461SOL    HW229517   5.915   2.405   0.428  0.5681 -1.7609  1.0744
 9462SOL     OW29518   6.808   5.009   0.459 -0.3244  0.1576  0.0648
 9462SOL    HW129519   6.769   5.087   0.498  2.6059  1.4947  0.6074
 9462SOL    HW229520   6.889   5.040   0.418  0.2836 -2.3933 -0.9084
 9463SOL     OW29521   2.796   6.474   4.695 -0.0975 -0.1827  0.3100
 9463SOL    HW129522   2.776   6.514   4.780 -1.1547 -0.4500  0.2057
 9463SOL    HW229523   2.822   6.547   4.639  0.4292  0.0192  0.8133
 9464SOL     OW29524   6.562   6.902   5.213 -0.3079 -0.0852 -0.3089
 9464SOL    HW129525   6.490   6.892   5.276  0.7489 -0.8062  0.8244
 9464SOL    HW229526   6.523   6.878   5.129 -0.7925 -3.0567  0.6453
 9465SOL     OW29527   8.872   5.981   6.161 -0.0624  0.4944 -0.0823
 9465SOL    HW129528   8.918   5.941   6.087  1.1655  1.4062  0.1553
 9465SOL    HW229529   8.870   6.074   6.141  1.1809  0.9067  1.4516
 9466SOL     OW29530   3.890   1.817   0.478  0.6271 -0.2537  0.3443
 9466SOL    HW129531   3.957   1.826   0.410  1.7774 -1.7124  1.2154
 9466SOL    HW229532   3.842   1.738   0.453  0.5411 -0.3412  0.7802
 9467SOL     OW29533   2.616   6.608   5.697 -0.1362 -0.1782  0.5096
 9467SOL    HW129534   2.707   6.587   5.675  0.1629  0.9645  0.6195
 9467SOL    HW229535   2.564   6.550   5.641  0.6194  1.3857 -1.9680
 9468SOL     OW29536   8.226   3.478   0.571 -0.4065  0.4115 -0.3926
 9468SOL    HW129537   8.242   3.571   0.586 -0.3006  0.9566 -3.3293
 9468SOL    HW229538   8.308   3.445   0.534 -0.3480 -0.9585  0.8483
 9469SOL     OW29539   1.953   7.598   4.836 -0.2997 -0.0558 -0.1866
 9469SOL    HW129540   1.981   7.684   4.870  3.0986 -1.7321  1.8263
 9469SOL    HW229541   1.904   7.559   4.908  1.6876 -1.2708  0.5921
 9470SOL     OW29542   1.796   1.823   8.311 -0.0729  0.1429 -0.0568
 9470SOL    HW129543   1.837   1.760   8.370 -0.3161  0.1058  0.0726
 9470SOL    HW229544   1.863   1.840   8.245  0.4366  0.6712  0.5824
 9471SOL     OW29545   8.196   1.926   6.166  0.0561  0.0915 -0.0524
 9471SOL    HW129546   8.193   1.911   6.260  0.7080 -0.6068 -0.1291
 9471SOL    HW229547   8.270   1.874   6.136 -1.1266 -1.0314 -1.1899
 9472SOL     OW29548   8.781   4.127   5.783  0.4177 -0.4175 -1.0051
 9472SOL    HW129549   8.856   4.132   5.724  0.9050  1.5268 -0.3080
 9472SOL    HW229550   8.800   4.052   5.840  2.1232  0.3321 -0.5209
 9473SOL     OW29551   4.337   6.776   1.125  0.0401 -0.5325 -0.2290
 9473SOL    HW129552   4.242   6.774   1.116 -0.3542 -0.4952  2.9187
 9473SOL    HW229553   4.361   6.867   1.112 -0.6280 -0.1855  0.8890
 9474SOL     OW29554   0.178   6.063   8.338 -0.1782 -0.9449 -0.2487
 9474SOL    HW129555   0.158   6.155   8.358  1.9017 -0.3732 -0.6401
 9474SOL    HW229556   0.268   6.051   8.367 -0.7783 -3.2292  0.9135
 9475SOL     OW29557   8.674   1.835   2.477 -0.4307 -0.5132 -0.1260
 9475SOL    HW129558   8.607   1.841   2.545 -1.6762  0.7739 -1.3806
 9475SOL    HW229559   8.743   1.895   2.505 -0.5112 -0.6845  0.4430
 9476SOL     OW29560   6.593   7.427   8.064  0.1089 -0.5234  0.3310
 9476SOL    HW129561   6.617   7.498   8.004 -0.1972 -0.7034 -0.0084
 9476SOL    HW229562   6.669   7.418   8.122 -0.1761  0.6373  0.9176
 9477SOL     OW29563   4.914   3.598   7.334 -0.6582 -0.1483 -0.1832
 9477SOL    HW129564   4.825   3.617   7.302 -0.4442  0.7839 -0.2377
 9477SOL    HW229565   4.901   3.529   7.399 -1.2915 -0.8414 -1.0057
 9478SOL     OW29566   4.775   2.895   3.623 -0.1247  0.0589 -0.3446
 9478SOL    HW129567   4.687   2.893   3.585 -0.8686  0.8479  1.2452
 9478SOL    HW229568   4.806   2.984   3.605  0.2044 -0.0936 -0.5471
 9479SOL     OW29569   0.770   8.619   1.158  0.0329 -0.1151 -0.3369
 9479SOL    HW129570   0.824   8.695   1.137  1.6706 -1.1999 -0.3385
 9479SOL    HW229571   0.761   8.621   1.254  3.4827 -1.9153  0.2165
 9480SOL     OW29572   0.039   7.815   1.016  0.4336 -0.2778  0.1476
 9480SOL    HW129573  -0.017   7.752   1.061 -0.6265 -0.1798 -0.9771
 9480SOL    HW229574   0.114   7.765   0.986 -0.1450 -0.8904 -0.2809
 9481SOL     OW29575   0.088   8.503   4.938  0.6330 -0.4697 -0.3359
 9481SOL    HW129576   0.118   8.423   4.982  2.6690  0.7034  0.5245
 9481SOL    HW229577   0.087   8.570   5.006  0.5507  0.6265 -1.3766
 9482SOL     OW29578   8.376   9.063   2.122  0.0582  0.0080 -0.1799
 9482SOL    HW129579   8.407   8.973   2.114 -1.6512 -0.6336 -0.1387
 9482SOL    HW229580   8.390   9.085   2.214  0.6172 -0.1562 -0.2215
 9483SOL     OW29581   3.011   6.634   4.825  0.8074 -0.0895  0.2073
 9483SOL    HW129582   3.051   6.706   4.873  0.0700 -0.0271  0.7476
 9483SOL    HW229583   2.919   6.636   4.850  0.7895 -1.2928  0.3214
 9484SOL     OW29584   8.890   7.017   3.774  0.3579  0.1724  0.0972
 9484SOL    HW129585   8.828   7.082   3.807  1.3886  0.7943  0.8572
 9484SOL    HW229586   8.960   7.015   3.839  1.5061  0.0370 -1.1151
 9485SOL     OW29587   3.417   5.824   0.638 -0.1273  0.0401 -0.1334
 9485SOL    HW129588   3.461   5.885   0.578  0.5804  0.0499  0.3858
 9485SOL    HW229589   3.367   5.766   0.580  2.3919 -1.4667 -0.9415
 9486SOL     OW29590   8.904   7.642   5.547 -0.0985 -0.4007  0.0631
 9486SOL    HW129591   8.874   7.578   5.612 -1.6166 -1.0891 -1.2334
 9486SOL    HW229592   8.994   7.662   5.572 -0.2955 -1.4453  1.7401
 9487SOL     OW29593   4.570   0.752   0.460  0.2243  0.6330 -0.0835
 9487SOL    HW129594   4.486   0.733   0.502  1.4615 -0.2152  2.1787
 9487SOL    HW229595   4.553   0.830   0.408 -2.2004 -0.0812 -0.5108
 9488SOL     OW29596   3.629   4.281   2.944  0.3467 -0.4904 -0.3704
 9488SOL    HW129597   3.714   4.272   2.900 -0.2837 -1.9616 -1.3655
 9488SOL    HW229598   3.649   4.266   3.037  1.0552 -1.7261 -0.6990
 9489SOL     OW29599   7.188   4.548   7.290 -0.0861  0.2213  0.2776
 9489SOL    HW129600   7.259   4.610   7.308  0.3160 -0.4881  1.1663
 9489SOL    HW229601   7.220   4.497   7.215  0.5375 -0.3625  0.9215
 9490SOL     OW29602   1.146   3.204   6.862 -0.1772 -0.2998  0.4964
 9490SOL    HW129603   1.110   3.177   6.947  0.2075 -1.5142  0.2890
 9490SOL    HW229604   1.069   3.227   6.810 -0.3975  0.9666  1.3160
 9491SOL     OW29605   2.565   4.584   2.066 -0.0827  0.2520 -0.3445
 9491SOL    HW129606   2.513   4.524   2.119 -1.3997  0.5285 -1.2848
 9491SOL    HW229607   2.642   4.603   2.120 -2.0648  1.7531  2.1728
 9492SOL     OW29608   1.547   0.309   5.537  0.1714 -0.3037  0.0024
 9492SOL    HW129609   1.642   0.302   5.525 -0.1814 -4.3405 -2.0140
 9492SOL    HW229610   1.530   0.262   5.619 -0.1333  0.9143  0.6733
 9493SOL     OW29611   1.488   6.857   6.326  0.1733  0.0620  0.0743
 9493SOL    HW129612   1.506   6.765   6.306  0.6266 -0.1103  1.1933
 9493SOL    HW229613   1.439   6.889   6.250  0.4993 -0.9467 -0.5808
 9494SOL     OW29614   6.974   1.219   4.460  0.1413  0.4029  0.6033
 9494SOL    HW129615   6.956   1.313   4.453  1.4373  0.7124  1.0389
 9494SOL    HW229616   6.891   1.180   4.487 -0.9979  1.1179 -1.5850
 9495SOL     OW29617   6.370   8.536   7.650  0.2652 -0.3289  0.1103
 9495SOL    HW129618   6.392   8.547   7.743 -0.5378  1.8412  0.0851
 9495SOL    HW229619   6.314   8.458   7.648  0.4218 -0.5030  1.4086
 9496SOL     OW29620   8.373   8.780   4.699 -0.4797  0.4091 -0.6143
 9496SOL    HW129621   8.335   8.787   4.612  1.1344  2.2808 -1.2498
 9496SOL    HW229622   8.356   8.865   4.740 -1.3078 -0.4735  0.9837
 9497SOL     OW29623   6.263   5.238   4.368  0.4018  0.3897 -0.6406
 9497SOL    HW129624   6.329   5.248   4.299 -0.4418 -1.3633 -1.7805
 9497SOL    HW229625   6.184   5.277   4.331 -0.7096 -2.6499 -1.7856
 9498SOL     OW29626   5.848   7.479   4.257  0.7045 -0.2915 -0.1456
 9498SOL    HW129627   5.812   7.491   4.345  0.5021 -0.6486 -0.1774
 9498SOL    HW229628   5.785   7.422   4.213 -0.1964  1.3720 -1.1338
 9499SOL     OW29629   7.969   5.373   3.718  0.0630 -0.3961  0.3907
 9499SOL    HW129630   7.913   5.438   3.676 -0.5386 -0.4000  1.1834
 9499SOL    HW229631   8.058   5.405   3.702 -0.1139 -0.7397 -1.4480
 9500SOL     OW29632   4.443   1.066   4.823 -0.3583  0.1578 -0.0361
 9500SOL    HW129633   4.521   1.062   4.768  1.1572  0.8939  1.9667
 9500SOL    HW229634   4.424   1.159   4.832  0.6100  0.1846  2.2312
 9501SOL     OW29635   1.510   6.837   0.614  0.4157 -0.5472 -0.1388
 9501SOL    HW129636   1.587   6.797   0.655  0.6028 -0.8185 -0.7497
 9501SOL    HW229637   1.436   6.802   0.664  0.6033 -1.3657 -0.4204
 9502SOL     OW29638   3.285   2.421   2.862 -0.1463 -0.2796  0.4367
 9502SOL    HW129639   3.345   2.491   2.885 -0.2259 -0.6566  1.8791
 9502SOL    HW229640   3.341   2.345   2.848  0.0157  0.1910 -1.8820
 9503SOL     OW29641   3.627   3.855   3.765  1.0049  0.4469  0.3099
 9503SOL    HW129642   3.645   3.775   3.815  0.3333  0.2018  0.1730
 9503SOL    HW229643   3.643   3.830   3.674  1.1423  0.5769  0.2972
 9504SOL     OW29644   5.322   8.934   1.520 -0.7543  0.2756 -0.1259
 9504SOL    HW129645   5.324   9.027   1.543 -0.8818  0.2969 -0.1998
 9504SOL    HW229646   5.238   8.922   1.476 -0.9766  0.0070  0.3642
 9505SOL     OW29647   4.404   7.655   2.395  0.4695 -0.0224 -0.0763
 9505SOL    HW129648   4.449   7.713   2.333 -0.0082  0.8566  0.3727
 9505SOL    HW229649   4.318   7.641   2.357  0.6908 -0.7225 -0.3418
 9506SOL     OW29650   7.397   5.115   0.407  0.1349  0.1551 -0.2777
 9506SOL    HW129651   7.460   5.076   0.346 -0.1065  1.0741 -1.1439
 9506SOL    HW229652   7.423   5.207   0.413 -0.5812  0.3468  0.0538
 9507SOL     OW29653   0.378   7.133   6.030 -0.2888 -0.4813  0.1959
 9507SOL    HW129654   0.373   7.103   5.939  0.1501 -1.2808  0.4223
 9507SOL    HW229655   0.303   7.191   6.041 -0.3939 -0.4475 -0.6522
 9508SOL     OW29656   2.169   2.128   8.166 -0.0031 -0.6442  0.3669
 9508SOL    HW129657   2.148   2.043   8.128  1.4753 -1.2697  0.8874
 9508SOL    HW229658   2.192   2.108   8.257  1.6678  0.1233  0.1376
 9509SOL     OW29659   8.979   2.964   8.572 -0.0623  0.9006  0.4600
 9509SOL    HW129660   9.035   3.041   8.571  1.1723  0.0376 -1.1772
 9509SOL    HW229661   8.904   2.989   8.626  1.3679  2.4618  1.8315
 9510SOL     OW29662   3.719   8.670   8.077  0.4208 -0.2425 -0.0895
 9510SOL    HW129663   3.639   8.720   8.066  0.2404 -0.7486 -1.1478
 9510SOL    HW229664   3.763   8.712   8.151 -1.3235 -0.6530  1.2264
 9511SOL     OW29665   7.036   0.448   3.061 -0.1640  0.0210 -0.5055
 9511SOL    HW129666   7.062   0.418   3.148 -0.6777 -0.7346 -0.6039
 9511SOL    HW229667   7.118   0.467   3.017  0.2147 -1.5407 -0.5347
 9512SOL     OW29668   3.040   7.722   4.951  0.2718 -0.2871  0.0517
 9512SOL    HW129669   2.961   7.764   4.918  0.1383 -0.6904 -0.1488
 9512SOL    HW229670   3.109   7.788   4.940 -0.1314  0.2631  0.7306
 9513SOL     OW29671   4.569   8.220   4.576  0.1456  0.2868  0.3475
 9513SOL    HW129672   4.617   8.154   4.626 -0.3666 -0.7495 -0.4913
 9513SOL    HW229673   4.520   8.170   4.510 -0.7372  1.4541  0.0792
 9514SOL     OW29674   5.884   5.973   7.856 -0.6793 -0.2557  0.0804
 9514SOL    HW129675   5.803   5.972   7.907 -0.7893  0.5078 -0.0538
 9514SOL    HW229676   5.868   5.911   7.785 -0.3827 -1.5980  1.1496
 9515SOL     OW29677   2.853   4.044   1.807  0.6566  0.0874 -0.2815
 9515SOL    HW129678   2.869   4.094   1.727  1.0938 -0.7278 -0.7182
 9515SOL    HW229679   2.760   4.022   1.803  1.0454 -1.4563 -1.4717
 9516SOL     OW29680   7.908   6.663   7.736 -0.2665  0.1184 -0.2438
 9516SOL    HW129681   7.966   6.679   7.811 -0.8347 -0.6675  0.3852
 9516SOL    HW229682   7.916   6.569   7.720 -0.2823  0.2562 -1.0654
 9517SOL     OW29683   7.390   2.101   0.457  0.1355 -0.1052 -0.6092
 9517SOL    HW129684   7.449   2.026   0.463  0.2624 -0.0573 -1.2426
 9517SOL    HW229685   7.371   2.110   0.364 -3.0588 -1.7849 -0.2758
 9518SOL     OW29686   1.182   2.810   7.160  0.1868  0.2174 -0.3350
 9518SOL    HW129687   1.144   2.758   7.089 -2.4438  0.1233  1.0395
 9518SOL    HW229688   1.249   2.753   7.197 -2.0863 -1.9941  0.6295
 9519SOL     OW29689   1.261   2.513   1.499 -0.0128 -0.1927  0.3972
 9519SOL    HW129690   1.303   2.492   1.415  2.3788  1.0125  1.1882
 9519SOL    HW229691   1.178   2.553   1.476  1.6260  2.3646 -1.5609
 9520SOL     OW29692   7.476   0.809   1.784  0.0896 -0.4602 -0.0223
 9520SOL    HW129693   7.447   0.893   1.750  2.5103 -0.0506 -1.2590
 9520SOL    HW229694   7.433   0.801   1.869  1.1541  2.8898  0.9709
 9521SOL     OW29695   3.262   2.878   3.602 -0.1122 -0.0282  0.6943
 9521SOL    HW129696   3.207   2.868   3.525  0.3673 -1.4655  0.5193
 9521SOL    HW229697   3.240   2.965   3.636 -1.4892 -0.0297 -0.1353
 9522SOL     OW29698   3.737   5.242   6.048  0.6522  0.1369 -0.3681
 9522SOL    HW129699   3.737   5.256   5.953  0.3955  0.1969 -0.3581
 9522SOL    HW229700   3.827   5.215   6.067  0.7945  0.4474 -0.5812
 9523SOL     OW29701   4.126   7.130   3.262  0.1196 -0.1529 -0.1471
 9523SOL    HW129702   4.207   7.160   3.302 -0.0720  1.9702 -1.1996
 9523SOL    HW229703   4.149   7.113   3.171 -0.1552 -1.7749  0.0556
 9524SOL     OW29704   7.794   3.383   7.660  0.4248 -0.3005 -0.0211
 9524SOL    HW129705   7.804   3.457   7.720  0.0908  0.4204 -0.8375
 9524SOL    HW229706   7.881   3.370   7.622  0.1956  0.5032 -0.8288
 9525SOL     OW29707   2.224   0.838   0.808 -0.0181  0.2624 -0.0366
 9525SOL    HW129708   2.288   0.870   0.745  0.4430  1.5694  1.0470
 9525SOL    HW229709   2.276   0.788   0.872 -0.4666 -0.9698 -0.5958
 9526SOL     OW29710   4.169   6.442   5.319  0.7191  0.3849  0.5254
 9526SOL    HW129711   4.193   6.530   5.347  1.6970  0.3817 -0.2494
 9526SOL    HW229712   4.122   6.455   5.236  1.7476  0.1358 -0.1159
 9527SOL     OW29713   4.187   2.717   2.477  0.1844 -0.2207  0.7629
 9527SOL    HW129714   4.188   2.787   2.543  2.8257  0.2396  0.3779
 9527SOL    HW229715   4.148   2.642   2.521 -0.8758  0.9222  1.8423
 9528SOL     OW29716   2.413   3.115   9.003 -0.0789 -0.0084  0.5780
 9528SOL    HW129717   2.430   3.145   8.913  0.2769  0.7329  0.8869
 9528SOL    HW229718   2.396   3.195   9.052 -1.1150 -0.4751  1.0072
 9529SOL     OW29719   5.889   4.006   7.977  0.6955  0.3968 -0.3976
 9529SOL    HW129720   5.893   4.060   8.056 -0.1405  0.5932 -0.4767
 9529SOL    HW229721   5.970   4.025   7.930  1.2858  0.1394  0.4985
 9530SOL     OW29722   3.972   5.807   4.536 -0.1178  0.0084 -0.2282
 9530SOL    HW129723   3.909   5.752   4.583 -0.6353  0.4771 -0.3670
 9530SOL    HW229724   3.922   5.883   4.508  0.2056 -0.2209 -1.4725
 9531SOL     OW29725   1.030   8.809   7.295  0.7414  0.6698  0.1244
 9531SOL    HW129726   1.013   8.901   7.313  2.9904  0.8770  1.5656
 9531SOL    HW229727   1.108   8.809   7.240  1.2245 -0.3795  0.7797
 9532SOL     OW29728   0.181   7.526   7.490  0.2505  0.0608 -0.5409
 9532SOL    HW129729   0.096   7.517   7.448  1.8060  1.2710 -4.3396
 9532SOL    HW229730   0.213   7.611   7.462  2.5084 -0.1069  1.2575
 9533SOL     OW29731   7.941   7.264   8.865 -0.2288  0.2024  0.1230
 9533SOL    HW129732   7.943   7.351   8.905 -0.3323  0.4120 -0.3150
 9533SOL    HW229733   8.003   7.271   8.792  0.0585 -0.2136  0.3249
 9534SOL     OW29734   6.447   3.131   0.533 -0.4613  0.3722  0.1966
 9534SOL    HW129735   6.475   3.222   0.548  0.7815  0.2100 -0.9109
 9534SOL    HW229736   6.441   3.094   0.621 -3.9486  2.2830  0.9328
 9535SOL     OW29737   3.051   1.184   0.336 -0.6350 -0.0305 -0.4519
 9535SOL    HW129738   3.073   1.145   0.420 -0.4136  0.0435 -0.4767
 9535SOL    HW229739   3.017   1.110   0.284 -0.5078 -0.1292 -0.3944
 9536SOL     OW29740   0.080   4.734   0.476 -0.1938  0.2558 -0.3142
 9536SOL    HW129741   0.164   4.690   0.462  0.2583  1.1988 -0.6569
 9536SOL    HW229742   0.049   4.701   0.560  0.9074  0.4942  0.1974
 9537SOL     OW29743   6.881   2.318   0.855  0.5428  0.0458 -0.4249
 9537SOL    HW129744   6.964   2.329   0.900  1.4583 -0.7915 -1.8426
 9537SOL    HW229745   6.903   2.319   0.762 -0.9642 -0.6684 -0.8272
 9538SOL     OW29746   3.980   6.178   8.016  0.0163  0.9772 -0.3697
 9538SOL    HW129747   3.967   6.238   8.090  0.6195  0.5023  0.1355
 9538SOL    HW229748   4.034   6.226   7.954 -0.6210  1.4347 -0.5789
 9539SOL     OW29749   8.601   2.355   3.047 -0.5722  0.0452 -0.0293
 9539SOL    HW129750   8.620   2.299   3.122 -1.3868  0.4689  0.5025
 9539SOL    HW229751   8.604   2.295   2.972 -2.1339 -0.8707  0.6038
 9540SOL     OW29752   7.243   7.150   4.094 -0.2168  0.3055  0.0616
 9540SOL    HW129753   7.230   7.090   4.167 -0.8325 -0.4520 -0.6527
 9540SOL    HW229754   7.154   7.179   4.071 -0.0150  0.6676 -0.2845
 9541SOL     OW29755   0.705   1.253   6.152 -0.5895  0.0002  0.1758
 9541SOL    HW129756   0.621   1.299   6.145 -0.9136 -0.3946  1.2685
 9541SOL    HW229757   0.735   1.271   6.241  1.8559  2.3869 -0.9882
 9542SOL     OW29758   8.259   0.001   0.389 -0.2768 -0.0868 -0.4729
 9542SOL    HW129759   8.252  -0.093   0.372 -0.3576 -0.2357  0.3417
 9542SOL    HW229760   8.345   0.025   0.353 -0.2285 -0.4859 -0.6322
 9543SOL     OW29761   7.197   7.915   1.626 -0.2163 -0.0606 -0.2938
 9543SOL    HW129762   7.171   7.823   1.629 -0.7432  0.1124  1.4944
 9543SOL    HW229763   7.120   7.961   1.593 -1.3555  0.1219  2.3629
 9544SOL     OW29764   6.732   4.619   4.515  0.2164 -0.4826  0.1326
 9544SOL    HW129765   6.780   4.701   4.523 -1.6080  0.6561 -0.1482
 9544SOL    HW229766   6.748   4.591   4.425  1.7875 -1.0978  0.5627
 9545SOL     OW29767   6.116   5.966   6.929 -0.3706  0.3485 -0.4464
 9545SOL    HW129768   6.142   6.003   6.845 -0.1510  1.2240 -0.0088
 9545SOL    HW229769   6.174   5.892   6.942  1.3273  1.7094  0.0755
 9546SOL     OW29770   1.740   4.419   0.256 -0.1625  0.0263  0.4914
 9546SOL    HW129771   1.666   4.433   0.315 -0.9281 -0.1409 -0.4195
 9546SOL    HW229772   1.817   4.437   0.310 -0.7931 -1.1042  1.8368
 9547SOL     OW29773   6.161   6.759   2.678  0.0899 -0.0833  0.1476
 9547SOL    HW129774   6.080   6.802   2.652 -0.9671 -1.1905  1.4508
 9547SOL    HW229775   6.158   6.758   2.774  1.8106  0.1258  0.2338
 9548SOL     OW29776   1.375   8.577   2.732  0.0781  0.4369  0.4859
 9548SOL    HW129777   1.415   8.491   2.746  2.4564  1.5941  1.3994
 9548SOL    HW229778   1.428   8.616   2.662 -0.3552  1.5137  0.7498
 9549SOL     OW29779   1.564   3.567   7.317 -0.5707 -0.6898  0.4818
 9549SOL    HW129780   1.480   3.611   7.298 -0.9917 -1.7454 -0.1510
 9549SOL    HW229781   1.540   3.477   7.338  0.4207 -1.0368  0.1869
 9550SOL     OW29782   7.434   5.900   3.383 -0.0370  0.6940 -0.5702
 9550SOL    HW129783   7.432   5.813   3.423  0.2917 -0.2107 -2.4371
 9550SOL    HW229784   7.526   5.926   3.385 -0.4418  2.4510  2.7924
 9551SOL     OW29785   2.568   6.383   3.354  0.4199 -0.4693 -0.5475
 9551SOL    HW129786   2.634   6.414   3.416 -0.3739 -1.5899  0.9015
 9551SOL    HW229787   2.508   6.457   3.346  0.8870 -0.0773 -0.4951
 9552SOL     OW29788   0.327   1.185   5.635 -0.6051  0.2386  0.3813
 9552SOL    HW129789   0.231   1.186   5.643 -0.6019  0.8390  0.3824
 9552SOL    HW229790   0.349   1.274   5.606 -0.0656  0.0391  0.1822
 9553SOL     OW29791   1.867   0.972   9.035 -0.1334 -0.1498  0.1201
 9553SOL    HW129792   1.818   1.034   8.980  0.1564  1.1608  1.2914
 9553SOL    HW229793   1.950   1.016   9.053 -0.1373 -0.6398  1.4329
 9554SOL     OW29794   4.289   6.709   1.401 -0.1549  0.0784  0.1111
 9554SOL    HW129795   4.312   6.622   1.432  1.0528  0.7059  1.0610
 9554SOL    HW229796   4.325   6.713   1.312  0.3151 -0.1716  0.2917
 9555SOL     OW29797   8.684   4.762   6.727 -0.2650  0.5558 -0.8336
 9555SOL    HW129798   8.768   4.780   6.769 -1.1291 -0.7930  1.7389
 9555SOL    HW229799   8.635   4.844   6.735  0.1740  0.8073 -0.6837
 9556SOL     OW29800   1.300   6.620   3.225  0.4265 -0.5233  0.0347
 9556SOL    HW129801   1.327   6.554   3.162  0.6771 -0.5743  0.1955
 9556SOL    HW229802   1.326   6.703   3.186 -0.7738 -0.4414 -0.6260
 9557SOL     OW29803   3.194   8.963   7.376  0.1565 -0.7798 -0.6780
 9557SOL    HW129804   3.118   8.905   7.382 -0.8603  0.4062 -1.4423
 9557SOL    HW229805   3.221   8.958   7.284  1.3787 -1.6157 -0.2954
 9558SOL     OW29806   2.951   5.717   5.124 -0.0962  0.1473  0.0651
 9558SOL    HW129807   2.930   5.657   5.052 -0.9891  1.6225 -0.9425
 9558SOL    HW229808   3.002   5.663   5.185  0.4211 -1.2413 -1.4975
 9559SOL     OW29809   6.012   0.852   5.639 -0.8466 -0.0073  0.4205
 9559SOL    HW129810   6.016   0.805   5.722 -0.3170 -1.2274 -0.2684
 9559SOL    HW229811   6.031   0.943   5.663  2.4781 -0.7748  1.3198
 9560SOL     OW29812   3.981   5.269   4.925  0.0368 -0.5240  0.2569
 9560SOL    HW129813   3.941   5.237   4.844 -0.6880  0.0387  0.3783
 9560SOL    HW229814   4.062   5.219   4.933 -0.1793 -1.0185 -0.4977
 9561SOL     OW29815   4.981   1.891   3.722  0.2490 -0.5714 -0.0528
 9561SOL    HW129816   4.981   1.917   3.630  1.5877 -0.1601  0.0406
 9561SOL    HW229817   4.889   1.886   3.746 -0.0931  0.3280 -1.1317
 9562SOL     OW29818   4.843   5.539   0.503 -0.1559  0.1283 -0.3683
 9562SOL    HW129819   4.926   5.587   0.509 -0.8488  1.2880  0.3413
 9562SOL    HW229820   4.777   5.602   0.531 -1.4737 -0.3160 -2.3306
 9563SOL     OW29821   2.423   1.492   7.969  0.0652 -0.0103  0.1452
 9563SOL    HW129822   2.352   1.428   7.963 -0.4948  0.5777  0.4324
 9563SOL    HW229823   2.462   1.491   7.882 -0.8995  0.3413 -0.3069
 9564SOL     OW29824   8.004   1.016   3.167  0.3016 -0.3797 -0.4871
 9564SOL    HW129825   8.075   1.063   3.212 -0.3635  1.1165 -0.9435
 9564SOL    HW229826   8.049   0.959   3.105  1.1842 -1.4578  1.0647
 9565SOL     OW29827   2.499   8.716   7.034 -0.5241 -0.0600  0.1502
 9565SOL    HW129828   2.461   8.731   7.121  0.9180 -0.0767  0.8279
 9565SOL    HW229829   2.593   8.735   7.046 -0.4892  1.2061 -1.7281
 9566SOL     OW29830   2.547   7.561   1.631 -0.1578 -0.3673  1.0430
 9566SOL    HW129831   2.547   7.657   1.623 -0.4291 -0.5225 -2.1362
 9566SOL    HW229832   2.627   7.541   1.679  1.5359  1.3962 -0.8334
 9567SOL     OW29833   7.777   4.628   3.024  0.0196  0.1214 -0.0349
 9567SOL    HW129834   7.870   4.622   3.045  0.0815  0.3371 -0.2361
 9567SOL    HW229835   7.740   4.685   3.092  0.0519  0.1133 -0.0106
 9568SOL     OW29836   5.245   1.673   7.472 -0.0740 -0.3650  0.8374
 9568SOL    HW129837   5.264   1.604   7.536  0.5807  0.2100  1.2732
 9568SOL    HW229838   5.331   1.706   7.447 -0.2001 -1.5595 -1.4616
 9569SOL     OW29839   2.278   2.189   5.512  0.0796  0.4804  0.3288
 9569SOL    HW129840   2.347   2.152   5.567  1.1502  1.2561 -0.4600
 9569SOL    HW229841   2.264   2.277   5.546 -1.5735 -0.1523  1.3968
 9570SOL     OW29842   1.574   4.330   8.460  0.2237 -0.4297 -0.2622
 9570SOL    HW129843   1.608   4.412   8.495 -2.2729 -0.3496  2.3127
 9570SOL    HW229844   1.544   4.352   8.372 -0.6824  1.5507  0.4833
 9571SOL     OW29845   5.504   8.360   5.482  0.2069 -0.5235 -0.2284
 9571SOL    HW129846   5.437   8.373   5.415  0.3183 -1.2665 -0.4969
 9571SOL    HW229847   5.583   8.400   5.444  0.1177 -0.3711 -0.2571
 9572SOL     OW29848   6.688   3.795   4.027  0.0269  0.6655  0.3361
 9572SOL    HW129849   6.615   3.763   4.080  0.2486  1.9504  1.4632
 9572SOL    HW229850   6.742   3.846   4.087  2.2043 -0.7072 -0.3337
 9573SOL     OW29851   2.338   7.356   5.778 -0.0367  0.2227  0.4152
 9573SOL    HW129852   2.354   7.270   5.816 -1.2581 -0.8456 -1.3135
 9573SOL    HW229853   2.397   7.360   5.702 -0.1543  0.8307  0.3483
 9574SOL     OW29854   6.769   5.950   0.701  0.1328  0.7366  0.1758
 9574SOL    HW129855   6.793   5.926   0.612  1.6679  0.2124  0.6924
 9574SOL    HW229856   6.849   5.987   0.738 -0.5309  1.1190  1.2781
 9575SOL     OW29857   4.393   8.948   7.221  0.3053 -1.0342  0.0557
 9575SOL    HW129858   4.402   8.854   7.210  0.2213 -0.8482 -1.8914
 9575SOL    HW229859   4.300   8.960   7.241  0.9591 -1.6189  4.4870
 9576SOL     OW29860   4.835   6.783   0.720 -0.1575  0.2718  0.1650
 9576SOL    HW129861   4.842   6.713   0.785 -0.1228 -0.1294 -0.2648
 9576SOL    HW229862   4.893   6.852   0.753 -0.5240  0.2822  0.8141
 9577SOL     OW29863   8.142   0.407   0.167 -0.3656  0.5031  0.0590
 9577SOL    HW129864   8.119   0.331   0.113 -0.0577  1.4709 -1.5016
 9577SOL    HW229865   8.224   0.439   0.129  0.5802  0.4713  1.9476
 9578SOL     OW29866   1.095   3.491   4.874  0.2585 -0.3222 -0.1785
 9578SOL    HW129867   1.073   3.447   4.957  1.8135 -2.5135 -0.8291
 9578SOL    HW229868   1.129   3.421   4.818  0.8562  1.3949 -2.0840
 9579SOL     OW29869   1.469   2.899   3.758 -0.0736 -0.0981 -0.2321
 9579SOL    HW129870   1.535   2.875   3.692  1.0051  0.3590  0.6479
 9579SOL    HW229871   1.396   2.933   3.707 -0.4484 -2.3881 -1.3475
 9580SOL     OW29872   7.762   8.275   0.388  0.5102  0.0349  0.4932
 9580SOL    HW129873   7.850   8.282   0.425  1.4078  2.7229 -1.7741
 9580SOL    HW229874   7.706   8.318   0.453  0.6411 -2.2336  2.2446
 9581SOL     OW29875   1.850   3.609   3.557  0.6769 -0.8233 -0.5384
 9581SOL    HW129876   1.829   3.619   3.464  0.6121  2.4015 -0.2906
 9581SOL    HW229877   1.938   3.646   3.566  1.1951 -2.2068  0.5491
 9582SOL     OW29878   1.241   6.442   7.008 -0.4886 -0.2184 -0.2988
 9582SOL    HW129879   1.234   6.463   6.915 -1.7974 -2.9956 -0.9130
 9582SOL    HW229880   1.184   6.366   7.020 -0.1809 -0.0907  2.7514
 9583SOL     OW29881   1.659   3.397   2.318 -0.7669  0.9619  0.1854
 9583SOL    HW129882   1.620   3.471   2.272 -0.5261  0.9505 -0.0387
 9583SOL    HW229883   1.618   3.398   2.405 -0.1331  1.8846  0.4829
 9584SOL     OW29884   3.695   4.279   4.650  0.0295  0.1366 -0.1182
 9584SOL    HW129885   3.609   4.250   4.618  0.2490 -1.6525  0.8351
 9584SOL    HW229886   3.719   4.350   4.591 -1.9910  0.5116 -0.5665
 9585SOL     OW29887   4.695   7.135   0.894  0.1447  0.3175 -0.1852
 9585SOL    HW129888   4.767   7.097   0.945 -0.7138  0.2885  1.0458
 9585SOL    HW229889   4.625   7.148   0.957 -0.3508  1.9488 -1.0104
 9586SOL     OW29890   7.434   1.732   8.988 -0.1509 -0.6275  0.0498
 9586SOL    HW129891   7.448   1.663   9.052  0.5793 -0.1813  0.3727
 9586SOL    HW229892   7.404   1.685   8.909 -1.6043 -1.1318  0.8575
 9587SOL     OW29893   2.394   4.202   3.749 -0.1629 -0.1917 -0.2327
 9587SOL    HW129894   2.384   4.126   3.693  0.1542  0.0609 -0.6431
 9587SOL    HW229895   2.467   4.181   3.807  0.2972  0.0194 -0.7277
 9588SOL     OW29896   6.061   5.508   0.591 -0.3940 -0.1451 -0.1540
 9588SOL    HW129897   6.045   5.596   0.625  1.2866  0.7455 -1.4992
 9588SOL    HW229898   6.096   5.460   0.666 -0.8535  0.4885  0.4810
 9589SOL     OW29899   0.688   8.618   1.453 -0.4377  0.3838 -0.0782
 9589SOL    HW129900   0.656   8.698   1.410  0.5969  0.8643  0.0109
 9589SOL    HW229901   0.621   8.552   1.434 -0.6377  0.9189 -1.3131
 9590SOL     OW29902   5.867   1.778   2.690  0.0351 -0.0216 -0.1626
 9590SOL    HW129903   5.847   1.825   2.771 -0.3004  2.8488 -1.8012
 9590SOL    HW229904   5.963   1.773   2.689  0.1598  1.7792 -0.4993
 9591SOL     OW29905   5.750   2.013   0.046  0.4499  0.0566 -0.0566
 9591SOL    HW129906   5.778   2.074   0.114 -0.7841 -1.8051  2.2337
 9591SOL    HW229907   5.669   2.051   0.012 -0.3315 -0.2657  1.3740
 9592SOL     OW29908   7.891   2.563   2.737 -0.2763 -0.1295  0.0300
 9592SOL    HW129909   7.899   2.579   2.643 -0.8669  2.7518  0.3685
 9592SOL    HW229910   7.981   2.558   2.769  0.0086  2.1389 -0.2901
 9593SOL     OW29911   0.185   7.189   2.108  0.1830 -0.0045 -0.2623
 9593SOL    HW129912   0.191   7.140   2.026  1.1348  2.2350 -1.6421
 9593SOL    HW229913   0.188   7.281   2.081 -1.0139  0.8547  2.2003
 9594SOL     OW29914   5.018   1.746   4.755 -0.3885  0.1092  0.3888
 9594SOL    HW129915   4.994   1.818   4.696 -0.7660 -0.4893 -0.1998
 9594SOL    HW229916   5.077   1.691   4.703 -1.0608 -0.6500  0.4123
 9595SOL     OW29917   7.785   0.974   5.337  0.3332  0.1422 -0.4644
 9595SOL    HW129918   7.753   0.930   5.416  1.0072  1.4089  0.5396
 9595SOL    HW229919   7.844   1.042   5.369  1.8742 -0.3256 -2.1337
 9596SOL     OW29920   5.390   6.312   5.156  0.1833 -0.2537 -0.4417
 9596SOL    HW129921   5.443   6.392   5.156 -1.4146  0.8456 -0.2396
 9596SOL    HW229922   5.402   6.275   5.244  0.2928  0.1909 -0.2667
 9597SOL     OW29923   7.299   5.917   4.041 -0.3186  0.0096  0.2148
 9597SOL    HW129924   7.286   5.843   4.100 -0.5017 -0.3010 -0.2113
 9597SOL    HW229925   7.218   5.923   3.991  0.9371 -1.7636 -2.2604
 9598SOL     OW29926   5.225   3.724   1.446  0.0994 -0.3871  0.1332
 9598SOL    HW129927   5.281   3.689   1.515  1.4404  1.8914  0.3186
 9598SOL    HW229928   5.209   3.650   1.387  2.5554 -1.3417  0.5649
 9599SOL     OW29929   7.209   8.388   7.594 -0.0481 -0.0782  0.0844
 9599SOL    HW129930   7.197   8.464   7.537  0.1217 -0.9120 -1.0959
 9599SOL    HW229931   7.145   8.400   7.664  0.2663  1.3516  0.1559
 9600SOL     OW29932   6.053   9.013   2.420  0.2018  0.0328 -0.2832
 9600SOL    HW129933   6.148   9.009   2.407  0.2693  0.3143  0.1030
 9600SOL    HW229934   6.018   9.030   2.333  0.5869  0.9771 -0.2722
 9601SOL     OW29935   7.699   0.402   8.715 -0.1569 -0.0347  0.4980
 9601SOL    HW129936   7.713   0.308   8.718 -0.0393 -0.0402 -0.1478
 9601SOL    HW229937   7.755   0.433   8.644 -0.7218  0.4279  0.2432
 9602SOL     OW29938   6.012   4.959   3.997 -0.0358 -0.3763 -0.1326
 9602SOL    HW129939   6.051   4.900   3.932  1.6391  1.3408 -0.7738
 9602SOL    HW229940   6.057   4.937   4.079 -0.5652 -1.0531 -0.0186
 9603SOL     OW29941   7.338   0.728   6.162 -0.2078  0.5874 -0.0338
 9603SOL    HW129942   7.375   0.748   6.248  1.3845  2.4242 -1.0653
 9603SOL    HW229943   7.258   0.780   6.158  0.3422  1.4509 -0.0821
 9604SOL     OW29944   0.375   3.236   5.761 -0.1854 -0.2161 -0.1446
 9604SOL    HW129945   0.291   3.211   5.723 -0.1378 -0.6982  0.0592
 9604SOL    HW229946   0.366   3.329   5.782 -1.0518 -0.5268  0.8999
 9605SOL     OW29947   1.853   5.937   5.242  0.5044 -0.0869  0.6509
 9605SOL    HW129948   1.873   6.016   5.293  0.2530 -0.2350  0.9810
 9605SOL    HW229949   1.929   5.881   5.254  0.2815 -0.2798  1.1769
 9606SOL     OW29950   3.608   1.460   7.045  0.4578  0.5288 -0.3582
 9606SOL    HW129951   3.568   1.544   7.070  0.0770 -0.0458  1.0760
 9606SOL    HW229952   3.594   1.454   6.951 -1.0188  1.3071 -0.2268
 9607SOL     OW29953   3.939   0.976   4.776 -0.2804  0.1566 -0.1666
 9607SOL    HW129954   3.969   0.959   4.865 -0.6496  2.4142  0.4606
 9607SOL    HW229955   3.855   0.931   4.770 -0.6992  0.7418  0.9813
 9608SOL     OW29956   0.028   5.378   2.271  0.0419  0.2791 -0.8304
 9608SOL    HW129957   0.040   5.283   2.266 -0.2558  0.1878 -0.0350
 9608SOL    HW229958   0.115   5.412   2.288  0.0801  0.1065 -0.6770
 9609SOL     OW29959   5.152   8.010   0.926 -0.1458  0.3205 -0.0411
 9609SOL    HW129960   5.210   8.086   0.922  1.1410 -0.4562  2.2575
 9609SOL    HW229961   5.071   8.040   0.884  0.2027  3.0886  1.0425
 9610SOL     OW29962   0.966   0.715   1.761 -0.0476  0.4703 -0.5795
 9610SOL    HW129963   0.885   0.763   1.744  1.0631  2.2023 -1.3501
 9610SOL    HW229964   0.948   0.664   1.839 -2.7877 -1.4635 -2.3106
 9611SOL     OW29965   8.388   7.255   5.907  0.1294 -0.1599 -0.2518
 9611SOL    HW129966   8.474   7.249   5.949  1.2208  0.5695 -2.2407
 9611SOL    HW229967   8.399   7.322   5.840 -1.8568 -0.4539 -0.9347
 9612SOL     OW29968   0.410   5.787   7.703  0.1694 -0.1618  0.1632
 9612SOL    HW129969   0.317   5.763   7.704  0.2123 -0.3492 -0.0496
 9612SOL    HW229970   0.452   5.722   7.760  0.3704 -0.9881 -0.8802
 9613SOL     OW29971   9.039   3.200   5.833  0.1073  0.1607 -0.0325
 9613SOL    HW129972   8.994   3.220   5.751  4.4088  1.0345 -2.4566
 9613SOL    HW229973   9.047   3.285   5.876  0.8151  0.2991 -0.4236
 9614SOL     OW29974   1.439   6.550   5.016  0.1981  0.1742 -0.2263
 9614SOL    HW129975   1.520   6.600   5.001  0.2400 -0.0667 -0.8065
 9614SOL    HW229976   1.426   6.554   5.111  1.8870 -1.3089  0.1200
 9615SOL     OW29977   8.217   1.479   7.047  0.1509 -0.2456 -0.3464
 9615SOL    HW129978   8.240   1.388   7.033 -0.8186 -0.6635  0.6224
 9615SOL    HW229979   8.165   1.479   7.127  1.5016  1.3809  0.6007
 9616SOL     OW29980   5.629   3.026   7.485  0.2983 -0.3460 -0.5721
 9616SOL    HW129981   5.703   3.031   7.425 -0.2354 -0.1628 -1.2249
 9616SOL    HW229982   5.552   3.036   7.429 -0.2430 -1.0863  0.0174
 9617SOL     OW29983   2.903   0.404   5.457 -0.2757 -0.2336 -0.1826
 9617SOL    HW129984   2.837   0.336   5.473  0.0986 -0.8674 -1.2452
 9617SOL    HW229985   2.973   0.385   5.520 -0.1766 -0.8263 -0.4701
 9618SOL     OW29986   6.122   7.805   3.993  0.0832  0.3425  0.4112
 9618SOL    HW129987   6.061   7.731   3.997 -1.1960  1.1779 -1.8477
 9618SOL    HW229988   6.194   7.779   4.049 -1.8328 -1.1654  2.3683
 9619SOL     OW29989   5.218   5.471   4.206 -0.3254  0.7198 -0.3304
 9619SOL    HW129990   5.151   5.520   4.253 -0.6917  0.5936 -0.7156
 9619SOL    HW229991   5.274   5.435   4.274 -0.8615  0.5207  0.0070
 9620SOL     OW29992   3.669   6.146   7.464  0.2801 -0.0389 -0.1827
 9620SOL    HW129993   3.691   6.198   7.541  2.4858 -0.8729 -0.1827
 9620SOL    HW229994   3.578   6.119   7.478  1.4096 -2.6436  3.6732
 9621SOL     OW29995   8.043   2.044   3.898 -0.4377 -0.1789 -0.1523
 9621SOL    HW129996   8.004   1.977   3.953 -0.1278 -0.2686 -0.0366
 9621SOL    HW229997   8.020   2.127   3.941  0.3392 -0.2755  0.4735
 9622SOL     OW29998   5.440   7.121   2.065  0.1669  0.0481  0.8529
 9622SOL    HW129999   5.522   7.165   2.043 -0.8334  1.3789 -0.4095
 9622SOL    HW230000   5.461   7.028   2.059  1.5346  0.3632  0.3812
 9623SOL     OW30001   3.407   0.024   6.103 -0.0244  0.3472 -0.5156
 9623SOL    HW130002   3.429   0.113   6.131 -0.1434  0.3289 -0.3617
 9623SOL    HW230003   3.432  -0.031   6.177 -0.6169  0.3300 -0.3255
 9624SOL     OW30004   4.336   3.753   8.612  0.0425  0.5906  0.2546
 9624SOL    HW130005   4.375   3.668   8.591  0.2315  0.2373  1.9227
 9624SOL    HW230006   4.408   3.804   8.650 -0.5804  0.6995  1.3291
 9625SOL     OW30007   3.015   5.077   3.021 -0.1069 -0.4306 -0.1375
 9625SOL    HW130008   3.099   5.113   3.050 -0.1807  0.2136 -0.7118
 9625SOL    HW230009   3.034   5.038   2.935 -0.1115 -1.4449  0.3043
 9626SOL     OW30010   8.818   2.777   3.867 -0.0838  0.8868  0.0380
 9626SOL    HW130011   8.851   2.850   3.814 -1.4647  1.8116  0.3825
 9626SOL    HW230012   8.749   2.816   3.920  1.6592  0.1955  3.0677
 9627SOL     OW30013   4.117   7.844   6.780 -0.2997 -0.7016  0.1356
 9627SOL    HW130014   4.029   7.841   6.817  0.1184 -1.0294  1.1358
 9627SOL    HW230015   4.174   7.868   6.854  0.2569  1.3842 -0.8725
 9628SOL     OW30016   6.511   7.844   6.260  0.6821  0.0039  0.1144
 9628SOL    HW130017   6.604   7.841   6.278  0.5583 -1.5243  0.6510
 9628SOL    HW230018   6.504   7.827   6.166  0.9864  1.4688 -0.1984
 9629SOL     OW30019   0.479   2.455   3.552  0.1316  0.3949  0.3407
 9629SOL    HW130020   0.537   2.400   3.604  2.1842  1.7441 -0.4071
 9629SOL    HW230021   0.484   2.541   3.594 -0.9353  0.6621 -0.0543
 9630SOL     OW30022   7.083   7.539   3.672 -0.2283 -0.3762 -0.2027
 9630SOL    HW130023   7.137   7.515   3.748  0.3977 -0.7009 -0.7375
 9630SOL    HW230024   7.145   7.580   3.611 -1.2524  2.7779  0.7144
 9631SOL     OW30025   1.379   6.386   1.021 -0.0054  0.0618  0.2488
 9631SOL    HW130026   1.439   6.452   0.988  0.7145 -0.8438 -0.2941
 9631SOL    HW230027   1.319   6.434   1.079  1.2047  0.9835  0.7654
 9632SOL     OW30028   7.647   1.732   7.999 -0.0520 -0.3272 -0.0424
 9632SOL    HW130029   7.722   1.761   8.052 -1.5089 -0.2379  2.0903
 9632SOL    HW230030   7.653   1.636   8.000 -0.8465 -0.3954  1.5842
 9633SOL     OW30031   1.001   7.623   7.532 -0.3526  0.3258 -0.3672
 9633SOL    HW130032   0.974   7.666   7.451 -1.8148  0.5191  0.1812
 9633SOL    HW230033   0.962   7.535   7.526 -0.5335  0.3674  0.1515
 9634SOL     OW30034   6.483   6.627   5.565 -0.0085 -0.0784  0.1293
 9634SOL    HW130035   6.468   6.553   5.506  0.1786 -0.3156  0.3733
 9634SOL    HW230036   6.399   6.641   5.608 -0.8700  1.6933 -1.9613
 9635SOL     OW30037   4.561   2.835   3.819 -0.0609 -0.5131 -0.2275
 9635SOL    HW130038   4.470   2.838   3.850 -0.4327  0.4795 -1.3449
 9635SOL    HW230039   4.591   2.926   3.825  1.0183 -0.9073  0.5543
 9636SOL     OW30040   3.532   0.287   1.797 -0.0948 -0.5835  0.5294
 9636SOL    HW130041   3.449   0.241   1.813 -1.3081  0.5383 -2.0053
 9636SOL    HW230042   3.519   0.374   1.834 -0.1824 -0.3002 -0.1622
 9637SOL     OW30043   3.614   2.372   4.827  0.1992 -0.1032  0.2174
 9637SOL    HW130044   3.556   2.323   4.887 -0.8221 -1.1679 -1.5523
 9637SOL    HW230045   3.591   2.339   4.740  1.9864  1.0386 -0.7360
 9638SOL     OW30046   1.137   3.818   5.336 -0.2196  0.0508 -0.1494
 9638SOL    HW130047   1.104   3.817   5.426 -0.1862 -0.7926 -0.1372
 9638SOL    HW230048   1.146   3.911   5.314  1.5214  0.2923  1.3586
 9639SOL     OW30049   8.560   4.975   2.003 -0.2191 -0.0362  0.4295
 9639SOL    HW130050   8.636   4.946   1.953  0.7875 -1.1438  2.4790
 9639SOL    HW230051   8.492   4.911   1.982 -0.2159  0.2483 -0.4770
 9640SOL     OW30052   0.954   8.452   4.503 -0.1738  0.9456  0.3164
 9640SOL    HW130053   0.931   8.410   4.420  0.1791 -0.1277  0.7423
 9640SOL    HW230054   1.048   8.437   4.513  0.1231  2.5050  0.1359
 9641SOL     OW30055   5.164   8.553   1.133  0.9499  0.5381  0.3714
 9641SOL    HW130056   5.200   8.470   1.102 -1.2189 -0.6587  0.8247
 9641SOL    HW230057   5.113   8.587   1.060 -0.1446  0.2133  0.9608
 9642SOL     OW30058   4.032   6.687   8.549 -0.2601  0.3742 -0.3083
 9642SOL    HW130059   4.027   6.760   8.488  0.0358  1.4536  0.9060
 9642SOL    HW230060   4.009   6.725   8.634  0.6415 -0.7622  0.4831
 9643SOL     OW30061   8.486   8.734   0.148 -0.1377  0.6460  0.6202
 9643SOL    HW130062   8.533   8.817   0.149  0.3496  0.4363 -1.0415
 9643SOL    HW230063   8.554   8.667   0.156 -0.5124  0.3921  1.8026
 9644SOL     OW30064   2.796   2.760   7.532 -0.1057  0.3369  0.2828
 9644SOL    HW130065   2.704   2.765   7.557  0.4664  1.5779  2.3270
 9644SOL    HW230066   2.794   2.750   7.437 -2.3342  0.9846  0.2020
 9645SOL     OW30067   5.887   0.545   5.799  0.3816  0.1999  0.5477
 9645SOL    HW130068   5.934   0.590   5.869 -0.9015  1.4853  0.6221
 9645SOL    HW230069   5.956   0.514   5.740  1.6326 -2.4417  3.1677
 9646SOL     OW30070   5.412   3.053   4.191 -0.8415  0.3094  0.2874
 9646SOL    HW130071   5.331   3.104   4.186 -0.9204  0.1995  0.4406
 9646SOL    HW230072   5.480   3.113   4.161 -1.1173  0.0787 -0.8342
 9647SOL     OW30073   3.712   1.081   1.849  0.1723 -0.1471 -0.1073
 9647SOL    HW130074   3.781   1.014   1.842  1.2601  0.9375 -0.0055
 9647SOL    HW230075   3.748   1.157   1.805 -1.1311  0.3363 -0.3762
 9648SOL     OW30076   8.743   8.112   1.476  0.5973 -0.1734  0.1661
 9648SOL    HW130077   8.688   8.191   1.475  0.0038 -0.5182 -2.1591
 9648SOL    HW230078   8.688   8.044   1.514  0.1377 -0.0311 -0.2269
 9649SOL     OW30079   0.962   7.377   2.081 -0.2910  0.5314  0.0738
 9649SOL    HW130080   1.036   7.396   2.138  0.4567 -0.3458 -0.5608
 9649SOL    HW230081   0.924   7.462   2.059  0.6319  0.9982  0.2829
 9650SOL     OW30082   2.810   7.322   3.463 -0.0605  0.4117  0.0609
 9650SOL    HW130083   2.884   7.285   3.414  0.8926 -0.0165  1.7131
 9650SOL    HW230084   2.747   7.348   3.396  1.0376 -0.3967 -1.3534
 9651SOL     OW30085   5.308   2.439   5.960 -0.3619  0.1840  0.4253
 9651SOL    HW130086   5.233   2.494   5.936 -0.2918  0.1183  0.0473
 9651SOL    HW230087   5.381   2.500   5.971 -0.7845  0.4312  2.2612
 9652SOL     OW30088   8.608   5.177   1.493  0.0730 -0.4189 -0.2649
 9652SOL    HW130089   8.580   5.137   1.575 -0.0522  1.4070  0.6261
 9652SOL    HW230090   8.614   5.271   1.512  3.5338 -0.2795 -1.3219
 9653SOL     OW30091   5.377   4.725   0.557  0.7478 -0.1529 -0.6050
 9653SOL    HW130092   5.467   4.741   0.587  0.5477 -0.1339 -0.0064
 9653SOL    HW230093   5.347   4.810   0.524  0.2400  0.3646  1.1059
 9654SOL     OW30094   1.305   5.984   2.537 -0.0565 -0.0262 -0.1160
 9654SOL    HW130095   1.260   6.030   2.466 -0.8739 -2.4023 -1.2325
 9654SOL    HW230096   1.283   5.892   2.524 -0.0137 -0.6136  3.0661
 9655SOL     OW30097   3.127   2.783   6.695  0.8721 -0.2418 -0.0832
 9655SOL    HW130098   3.109   2.862   6.747  3.1619  0.7121 -0.6513
 9655SOL    HW230099   3.049   2.773   6.641 -0.5523  0.1254  1.7792
 9656SOL     OW30100   2.414   0.534   2.298  0.1979 -0.6952  0.3459
 9656SOL    HW130101   2.456   0.609   2.341  0.1829 -1.4845  1.7924
 9656SOL    HW230102   2.334   0.520   2.347  0.2549 -1.7380  0.1598
 9657SOL     OW30103   4.707   3.856   9.108  0.0842  0.0334 -0.2434
 9657SOL    HW130104   4.752   3.811   9.180 -2.3807 -0.1676  1.3030
 9657SOL    HW230105   4.726   3.949   9.122 -0.6764  0.0310  0.9580
 9658SOL     OW30106   6.463   0.677   2.829  0.0659  0.1769 -0.4997
 9658SOL    HW130107   6.428   0.596   2.865  2.7960 -0.3068  1.3936
 9658SOL    HW230108   6.462   0.738   2.902  0.4593  1.0454 -1.1999
 9659SOL     OW30109   3.120   4.675   7.398  0.0324  0.0107 -0.4529
 9659SOL    HW130110   3.182   4.616   7.356 -1.0328 -2.5284  1.2876
 9659SOL    HW230111   3.166   4.759   7.402  2.4109 -1.1491 -1.3105
 9660SOL     OW30112   5.414   7.716   4.352 -0.1704 -0.2078  0.4775
 9660SOL    HW130113   5.365   7.720   4.270 -0.2875  1.0350  0.5914
 9660SOL    HW230114   5.487   7.656   4.334 -0.0161  0.2991 -0.6274
 9661SOL     OW30115   5.261   0.999   1.057  0.4414  0.1958 -0.0579
 9661SOL    HW130116   5.335   1.012   0.999 -0.6388  0.8653 -1.3618
 9661SOL    HW230117   5.201   0.944   1.008 -0.2080  0.2053  0.6975
 9662SOL     OW30118   6.747   0.661   1.083 -0.0448 -0.0141 -0.3290
 9662SOL    HW130119   6.696   0.734   1.119  0.5843 -0.6870  2.1122
 9662SOL    HW230120   6.736   0.669   0.988 -1.7386  1.9641 -0.0494
 9663SOL     OW30121   3.248   7.058   3.998 -0.4456  0.2139 -0.3784
 9663SOL    HW130122   3.197   7.108   4.062 -0.3616  0.0126 -0.1516
 9663SOL    HW230123   3.307   7.123   3.959  0.0824  0.1892  0.3416
 9664SOL     OW30124   4.168   5.420   1.819 -0.0937 -0.4065  0.5299
 9664SOL    HW130125   4.115   5.343   1.840 -0.6749 -0.0004  0.6144
 9664SOL    HW230126   4.200   5.451   1.904  1.0085 -1.1440  0.4001
 9665SOL     OW30127   3.942   2.337   1.107 -0.0420  0.2810 -0.0874
 9665SOL    HW130128   4.013   2.401   1.100  1.2620 -0.9310  1.0693
 9665SOL    HW230129   3.956   2.297   1.193 -1.5233 -0.7165 -0.2884
 9666SOL     OW30130   7.919   1.747   3.736 -0.2093 -0.2590 -0.2846
 9666SOL    HW130131   7.857   1.674   3.732 -1.6019  0.8531  0.0062
 9666SOL    HW230132   7.865   1.823   3.758  1.5275  0.4283  2.0874
 9667SOL     OW30133   0.045   5.539   0.929  0.0338  0.1522 -0.1498
 9667SOL    HW130134   0.110   5.592   0.883  0.8925  0.9909  1.8878
 9667SOL    HW230135  -0.032   5.595   0.936 -0.4798 -0.3625 -1.4217
 9668SOL     OW30136   5.941   7.341   7.212 -0.3137  0.1710 -0.4505
 9668SOL    HW130137   5.916   7.382   7.129  1.7496  2.4447 -0.0608
 9668SOL    HW230138   6.036   7.327   7.204 -0.7151 -3.8127 -0.1466
 9669SOL     OW30139   5.901   2.884   3.219 -0.0680  0.2086  0.7223
 9669SOL    HW130140   5.913   2.951   3.152 -0.4610  0.8636  1.2926
 9669SOL    HW230141   5.986   2.876   3.261  0.2891 -0.4881 -0.0958
 9670SOL     OW30142   1.211   2.646   8.066  0.1888  0.5557  0.0549
 9670SOL    HW130143   1.303   2.671   8.074  0.2997  0.1290  0.1204
 9670SOL    HW230144   1.181   2.638   8.157  0.2062  0.2563  0.0337
 9671SOL     OW30145   6.583   0.932   0.427 -0.1534 -0.0523  0.4115
 9671SOL    HW130146   6.647   0.890   0.369  1.1153 -1.2610  2.5385
 9671SOL    HW230147   6.632   1.003   0.469 -0.5835 -0.1624  1.1177
 9672SOL     OW30148   5.749   8.652   1.984  0.0716 -0.3467  0.3625
 9672SOL    HW130149   5.779   8.578   1.931  0.8963  0.7341 -0.7430
 9672SOL    HW230150   5.724   8.718   1.920 -0.3504  0.4543  1.3259
 9673SOL     OW30151   6.696   4.101   8.492  0.2471  0.2812  0.4900
 9673SOL    HW130152   6.607   4.070   8.479  0.8787 -1.7328  0.6505
 9673SOL    HW230153   6.750   4.021   8.495  1.7935  1.2864  2.3729
 9674SOL     OW30154   3.804   3.995   5.178  0.1452 -0.7134  0.3188
 9674SOL    HW130155   3.719   4.002   5.135  0.2040  0.2775  0.3343
 9674SOL    HW230156   3.843   3.915   5.142 -0.8026 -1.1945  0.3414
 9675SOL     OW30157   0.851   8.420   6.835 -0.2615  0.6754 -0.0643
 9675SOL    HW130158   0.941   8.390   6.829 -0.4828 -0.1272  0.3740
 9675SOL    HW230159   0.856   8.506   6.877  0.2250  0.0620  1.2030
 9676SOL     OW30160   2.824   7.731   3.442  0.3779 -0.7801 -0.4814
 9676SOL    HW130161   2.856   7.710   3.530 -0.3381 -0.3994 -0.1200
 9676SOL    HW230162   2.854   7.820   3.427 -1.0477 -0.1731  0.1335
 9677SOL     OW30163   7.361   6.101   6.944 -0.0086  0.1213 -0.0329
 9677SOL    HW130164   7.446   6.105   6.900  0.7711 -1.9323  1.1313
 9677SOL    HW230165   7.366   6.170   7.011  0.9456 -0.2282  0.2886
 9678SOL     OW30166   2.312   3.492   6.183 -0.0243 -0.4055 -0.0244
 9678SOL    HW130167   2.407   3.482   6.173  0.1225  0.4774  0.3601
 9678SOL    HW230168   2.301   3.583   6.211 -0.9021 -0.8058  0.9887
 9679SOL     OW30169   1.709   2.446   1.428  0.2506 -0.2945 -0.6143
 9679SOL    HW130170   1.694   2.540   1.418  0.3146 -0.4394 -2.2976
 9679SOL    HW230171   1.783   2.440   1.489 -0.1124  0.7086 -0.0384
 9680SOL     OW30172   2.589   4.499   1.123 -0.2460  0.3037 -0.7932
 9680SOL    HW130173   2.512   4.555   1.127  0.3010  1.1125 -1.4052
 9680SOL    HW230174   2.554   4.410   1.117 -1.1484  0.7089 -1.7415
 9681SOL     OW30175   7.164   7.568   3.939  0.3088 -0.1351 -0.2606
 9681SOL    HW130176   7.205   7.527   4.016 -0.8748  1.0669  1.0644
 9681SOL    HW230177   7.105   7.634   3.975 -1.7955 -0.8653 -2.1372
 9682SOL     OW30178   2.827   4.806   8.750 -0.0599 -0.4484  0.8728
 9682SOL    HW130179   2.836   4.712   8.734  0.3483 -0.3799  0.6810
 9682SOL    HW230180   2.888   4.847   8.688 -0.5862 -0.0325  0.6278
 9683SOL     OW30181   7.772   5.076   9.070  0.2941  0.4157  0.1708
 9683SOL    HW130182   7.810   5.162   9.052 -0.6954  1.0198  0.8737
 9683SOL    HW230183   7.687   5.078   9.026  0.0584 -0.0117  0.5983
 9684SOL     OW30184   3.462   2.359   2.228 -0.5006  0.3082 -0.4825
 9684SOL    HW130185   3.520   2.311   2.287  0.6422 -0.0811 -1.8463
 9684SOL    HW230186   3.384   2.376   2.280  0.0736 -0.8273  0.8403
 9685SOL     OW30187   5.751   6.330   4.316 -0.0665  0.6781  0.3637
 9685SOL    HW130188   5.733   6.382   4.238  0.2098  0.1213 -0.0851
 9685SOL    HW230189   5.837   6.292   4.300 -0.7588 -0.8945  0.0965
 9686SOL     OW30190   1.949   8.084   4.755 -0.0466  0.5232 -0.2729
 9686SOL    HW130191   1.981   8.028   4.826 -1.2070 -0.0385 -0.1755
 9686SOL    HW230192   1.898   8.025   4.699  0.4164  1.0705 -1.2997
 9687SOL     OW30193   5.613   3.006   2.594 -0.1939 -0.4831 -0.3020
 9687SOL    HW130194   5.639   2.915   2.577 -0.1812 -0.3987 -0.7597
 9687SOL    HW230195   5.686   3.058   2.560 -1.3237 -0.2008 -2.5128
 9688SOL     OW30196   1.845   6.777   2.820 -0.3930 -0.4345  0.2468
 9688SOL    HW130197   1.872   6.701   2.767  1.3398 -1.1911  2.1096
 9688SOL    HW230198   1.926   6.815   2.852 -1.2498  2.0025 -0.2395
 9689SOL     OW30199   1.175   5.265   3.960 -0.4950  0.1437 -0.2182
 9689SOL    HW130200   1.235   5.210   4.009  0.0277 -0.2526 -1.2837
 9689SOL    HW230201   1.092   5.259   4.009  0.6325  1.8634  2.1034
 9690SOL     OW30202   0.429   5.294   7.369 -0.3031 -0.1536 -0.6064
 9690SOL    HW130203   0.507   5.248   7.399 -0.0269  0.6649 -0.0089
 9690SOL    HW230204   0.364   5.225   7.355 -0.2561 -0.6601  1.3281
 9691SOL     OW30205   6.559   3.528   8.235  0.0295  0.3377 -0.2879
 9691SOL    HW130206   6.624   3.458   8.233 -1.8675 -1.6915  1.8772
 9691SOL    HW230207   6.484   3.493   8.187 -0.8033  0.9969  0.4745
 9692SOL     OW30208   7.556   4.237   4.223 -0.0293  0.8207 -0.1061
 9692SOL    HW130209   7.495   4.229   4.149 -0.9409 -3.4641  0.8664
 9692SOL    HW230210   7.638   4.202   4.191  0.2030  1.0065  0.2771
 9693SOL     OW30211   7.139   4.922   5.743 -0.2565  0.2074  0.1762
 9693SOL    HW130212   7.070   4.955   5.686  0.2428  0.0404 -0.5353
 9693SOL    HW230213   7.221   4.943   5.698  0.0942 -3.1485 -1.0364
 9694SOL     OW30214   7.683   6.237   1.630  0.1126 -0.0754 -0.0812
 9694SOL    HW130215   7.766   6.284   1.635 -0.0567  0.6170 -2.3180
 9694SOL    HW230216   7.635   6.281   1.560 -1.8259 -0.9628  0.6149
 9695SOL     OW30217   2.141   6.506   6.588 -0.4750  0.2283 -0.8081
 9695SOL    HW130218   2.204   6.466   6.527 -0.9941  0.2842 -1.3908
 9695SOL    HW230219   2.173   6.595   6.600  1.9810 -0.8797  2.2482
 9696SOL     OW30220   7.944   2.818   4.178  0.5218  0.2958  0.1500
 9696SOL    HW130221   7.893   2.865   4.113 -0.2960 -0.5608  0.1624
 9696SOL    HW230222   7.927   2.864   4.260 -1.5801 -0.9373  0.4725
 9697SOL     OW30223   4.663   5.240   5.285  0.5411  0.0185 -0.3408
 9697SOL    HW130224   4.665   5.150   5.253 -1.3262 -0.4247  0.6237
 9697SOL    HW230225   4.745   5.279   5.254  1.6147 -2.1299 -0.3681
 9698SOL     OW30226   5.772   0.740   7.238  0.5558  0.0237  0.6004
 9698SOL    HW130227   5.680   0.764   7.251  0.8423  0.5862  1.7084
 9698SOL    HW230228   5.821   0.805   7.288  1.6441  0.4928 -0.9967
 9699SOL     OW30229   6.618   3.679   7.148  0.2845  0.6021  0.1834
 9699SOL    HW130230   6.708   3.657   7.121 -0.6485 -1.8704 -1.3252
 9699SOL    HW230231   6.569   3.683   7.066 -1.1585  0.9650  1.0311
 9700SOL     OW30232   8.736   0.485   5.262  0.5624 -0.3715  0.0149
 9700SOL    HW130233   8.692   0.534   5.331  0.2205 -0.3879 -0.1946
 9700SOL    HW230234   8.754   0.549   5.194  0.2157 -0.5144 -0.2105
 9701SOL     OW30235   7.014   8.827   5.901 -0.3990  0.3563  0.8498
 9701SOL    HW130236   7.047   8.917   5.906 -0.8454  0.6715 -1.0711
 9701SOL    HW230237   6.931   8.830   5.950 -0.7304  1.1685  0.2655
 9702SOL     OW30238   0.544   6.546   5.305  0.0350  0.0018  0.0278
 9702SOL    HW130239   0.575   6.456   5.318  0.3306  0.1475  0.3384
 9702SOL    HW230240   0.595   6.598   5.367 -0.7993  0.2500  0.5294
 9703SOL     OW30241   2.253   1.445   7.222 -0.1223  0.0321 -0.1086
 9703SOL    HW130242   2.167   1.486   7.216  0.5966  2.1015  2.1282
 9703SOL    HW230243   2.300   1.476   7.145 -1.6170 -1.9709 -1.9359
 9704SOL     OW30244   5.810   2.352   2.862  0.2297 -0.4982  0.2626
 9704SOL    HW130245   5.777   2.400   2.939 -3.3464  0.0049 -1.3684
 9704SOL    HW230246   5.899   2.384   2.850  0.0108  1.3262  2.6902
 9705SOL     OW30247   0.406   6.851   4.333  0.1698 -0.2921 -0.3790
 9705SOL    HW130248   0.330   6.809   4.293  0.3444 -1.9976  0.9270
 9705SOL    HW230249   0.377   6.872   4.422  1.2196 -1.1205  0.1930
 9706SOL     OW30250   7.975   3.898   6.799  0.1990 -0.2056 -0.1344
 9706SOL    HW130251   7.908   3.966   6.795  0.8478  0.6287  1.8484
 9706SOL    HW230252   8.057   3.944   6.787  0.7406 -0.3600  2.3378
 9707SOL     OW30253   1.855   5.417   4.424  0.3759 -0.3401  0.3863
 9707SOL    HW130254   1.912   5.437   4.349  0.1686  0.5658  0.4565
 9707SOL    HW230255   1.806   5.339   4.397  1.4557 -0.9884  0.2223
 9708SOL     OW30256   7.276   8.411   3.592 -0.1550 -0.4889  0.7739
 9708SOL    HW130257   7.285   8.438   3.684  1.0107 -0.4618  0.6701
 9708SOL    HW230258   7.238   8.488   3.549  2.4638  0.8550  0.6240
 9709SOL     OW30259   8.601   4.374   1.248 -0.1031 -0.2803 -0.5831
 9709SOL    HW130260   8.549   4.435   1.196  0.8363  0.6769 -0.4433
 9709SOL    HW230261   8.556   4.369   1.332 -0.4987 -0.2260 -0.7878
 9710SOL     OW30262   5.901   8.209   2.450  0.3386  0.3157 -0.3181
 9710SOL    HW130263   5.884   8.131   2.396 -0.0434 -0.4513  0.8799
 9710SOL    HW230264   5.814   8.238   2.478  0.5992 -0.0653  0.9309
 9711SOL     OW30265   8.175   6.935   1.319  0.1334  0.4802 -0.3162
 9711SOL    HW130266   8.147   6.944   1.410  1.1581 -0.0966  0.0781
 9711SOL    HW230267   8.104   6.888   1.276  0.0077 -0.0042  0.4025
 9712SOL     OW30268   6.334   6.394   6.566  0.1808 -0.5913  0.2958
 9712SOL    HW130269   6.283   6.412   6.645 -0.1793 -1.8976  0.3893
 9712SOL    HW230270   6.368   6.479   6.539 -1.0286  0.1199  0.9394
 9713SOL     OW30271   1.978   6.030   3.661 -0.1893  0.4649 -0.4095
 9713SOL    HW130272   1.911   5.978   3.615  0.2767 -0.7057  0.1925
 9713SOL    HW230273   1.981   5.992   3.749  2.8181 -1.0566 -1.0522
 9714SOL     OW30274   3.271   4.150   0.486  0.5616  0.2358 -0.1790
 9714SOL    HW130275   3.265   4.108   0.400 -3.0301  3.1952 -1.6276
 9714SOL    HW230276   3.295   4.241   0.467  1.9097  0.4750  2.2271
 9715SOL     OW30277   3.717   9.063   2.702  0.3301  0.3607  0.4111
 9715SOL    HW130278   3.737   9.075   2.795  1.0201 -2.9757  0.8347
 9715SOL    HW230279   3.623   9.046   2.700  0.1540  1.2995  0.3598
 9716SOL     OW30280   2.134   8.667   8.395  0.0706  0.1708 -0.2080
 9716SOL    HW130281   2.135   8.586   8.344  2.1724 -0.6337  0.9851
 9716SOL    HW230282   2.067   8.653   8.461  0.0127 -0.3659 -0.3713
 9717SOL     OW30283   5.008   8.603   3.524  0.4127 -0.1964  0.4899
 9717SOL    HW130284   5.102   8.589   3.517  0.2659 -0.8662 -0.1764
 9717SOL    HW230285   4.986   8.572   3.612  0.2141 -3.7251 -0.6415
 9718SOL     OW30286   7.675   1.353   5.974 -0.3925  0.1947 -0.0302
 9718SOL    HW130287   7.749   1.414   5.975  0.6264 -0.9672 -1.0232
 9718SOL    HW230288   7.703   1.280   6.029 -1.0659  0.0447  0.1153
 9719SOL     OW30289   6.405   8.205   7.785  0.0855 -0.0995 -0.0384
 9719SOL    HW130290   6.395   8.111   7.767 -0.0313 -0.5172  1.8812
 9719SOL    HW230291   6.499   8.220   7.782  0.2562 -0.7143  1.3493
 9720SOL     OW30292   6.043   8.867   6.743 -0.6423 -0.0121  0.1948
 9720SOL    HW130293   6.074   8.840   6.830 -0.6716  0.4266  0.3460
 9720SOL    HW230294   5.996   8.791   6.710  1.2854 -1.0083 -0.3940
 9721SOL     OW30295   4.817   7.739   7.727 -0.0732  0.3412 -0.5392
 9721SOL    HW130296   4.793   7.815   7.674 -0.8306  1.2889  1.0990
 9721SOL    HW230297   4.865   7.776   7.801 -0.5961 -0.7379  0.3657
 9722SOL     OW30298   8.116   2.050   3.280  0.3030 -0.1281 -0.0847
 9722SOL    HW130299   8.040   2.104   3.260 -0.5430 -0.6897  1.4169
 9722SOL    HW230300   8.153   2.028   3.195 -1.7210 -0.5531 -0.9073
 9723SOL     OW30301   0.323   0.968   4.806  0.2043 -0.2082 -0.1601
 9723SOL    HW130302   0.317   0.914   4.727 -0.3415  0.2471 -0.4343
 9723SOL    HW230303   0.354   1.053   4.774  0.5006 -0.1842  0.1913
 9724SOL     OW30304   0.343   8.370   4.820  0.2800  0.3068 -0.0919
 9724SOL    HW130305   0.394   8.388   4.899  2.1130 -1.2698 -0.8492
 9724SOL    HW230306   0.313   8.456   4.791 -0.3919  0.9482  2.2269
 9725SOL     OW30307   5.683   7.211   4.001  0.2550 -0.2666  0.7962
 9725SOL    HW130308   5.625   7.163   3.941  0.8943  0.7681 -0.6986
 9725SOL    HW230309   5.638   7.205   4.086 -0.7137 -1.7165  0.2433
 9726SOL     OW30310   8.273   2.591   3.399 -0.4894 -0.2019 -0.0093
 9726SOL    HW130311   8.267   2.684   3.423  0.3380 -0.4691  1.3319
 9726SOL    HW230312   8.356   2.584   3.351 -0.6831 -0.2114 -0.3489
 9727SOL     OW30313   7.020   6.563   8.346 -0.1555 -0.7500  0.2627
 9727SOL    HW130314   7.053   6.484   8.304  0.4482 -0.3331 -0.0489
 9727SOL    HW230315   7.086   6.629   8.329 -0.9890  0.0150 -0.0930
 9728SOL     OW30316   6.625   3.054   3.245 -0.2046 -0.2087  0.5861
 9728SOL    HW130317   6.546   3.080   3.293 -0.0752  0.1927  0.5852
 9728SOL    HW230318   6.617   3.096   3.160 -0.2338 -0.5833  0.4048
 9729SOL     OW30319   8.334   3.660   3.240 -0.5711 -0.5242  0.0254
 9729SOL    HW130320   8.368   3.742   3.204  0.1920 -0.8404  0.0043
 9729SOL    HW230321   8.291   3.617   3.166 -0.8825 -0.1917  0.0119
 9730SOL     OW30322   4.305   6.614   0.013 -0.0983 -0.0719  0.3814
 9730SOL    HW130323   4.331   6.679   0.079  3.3074 -0.7902 -0.0930
 9730SOL    HW230324   4.306   6.663  -0.069 -0.3908 -0.0984  0.3602
 9731SOL     OW30325   6.573   2.851   0.455 -0.5250 -0.5854  0.0543
 9731SOL    HW130326   6.663   2.829   0.431  0.3833  0.8688  1.8896
 9731SOL    HW230327   6.545   2.780   0.512 -0.0108 -0.3265  0.6360
 9732SOL     OW30328   5.703   2.070   3.426 -0.2576 -0.0988  0.2526
 9732SOL    HW130329   5.793   2.068   3.395  0.2896  1.4655  1.6077
 9732SOL    HW230330   5.674   1.979   3.423  1.1627 -0.5419 -0.7311
 9733SOL     OW30331   0.805   0.985   2.017 -0.2075 -0.3859 -0.2848
 9733SOL    HW130332   0.734   0.923   2.003 -1.4092  0.9242 -0.1833
 9733SOL    HW230333   0.778   1.036   2.093 -0.2993  1.6744 -1.6337
 9734SOL     OW30334   0.693   4.811   8.116  0.0892  0.1737  0.4315
 9734SOL    HW130335   0.618   4.753   8.130  0.1304 -0.2551 -1.0240
 9734SOL    HW230336   0.720   4.836   8.204 -1.7730  0.3561  0.9919
 9735SOL     OW30337   2.953   4.251   8.131 -0.2759  0.0012  0.4419
 9735SOL    HW130338   2.960   4.278   8.040 -3.0718 -1.8588 -0.4433
 9735SOL    HW230339   3.032   4.200   8.148  0.1604  0.1666 -1.0051
 9736SOL     OW30340   9.097   2.009   5.426 -0.0560 -0.2971  0.5345
 9736SOL    HW130341   9.130   1.925   5.395  0.6467  0.1941 -0.0949
 9736SOL    HW230342   9.034   1.987   5.494  0.1585 -1.3282  0.4112
 9737SOL     OW30343   6.062   1.625   0.213  0.8941  0.9150 -0.5570
 9737SOL    HW130344   6.135   1.630   0.274 -0.9009 -0.7724  1.9302
 9737SOL    HW230345   6.099   1.583   0.135  2.3825 -0.9778  1.0746
 9738SOL     OW30346   8.656   6.101   5.307 -0.2136 -0.3761  0.2590
 9738SOL    HW130347   8.736   6.068   5.267  0.5519  0.7767  0.7928
 9738SOL    HW230348   8.634   6.037   5.374  0.4148 -0.5712  0.2867
 9739SOL     OW30349   3.109   1.932   4.673  0.2054 -0.9366 -0.2667
 9739SOL    HW130350   3.148   1.996   4.613 -0.7362  0.2924  0.4130
 9739SOL    HW230351   3.017   1.957   4.679  0.1323 -1.4861  1.1366
 9740SOL     OW30352   8.430   2.075   5.639  0.1592  0.5159  0.1351
 9740SOL    HW130353   8.410   2.147   5.579  0.1850  1.6541  1.4628
 9740SOL    HW230354   8.350   2.023   5.643 -0.1297  0.9349 -0.1882
 9741SOL     OW30355   2.980   8.718   7.289  0.0556  0.1695  0.3116
 9741SOL    HW130356   3.025   8.651   7.341  1.5761  1.4550  0.7494
 9741SOL    HW230357   2.952   8.673   7.210 -2.2516 -1.8552  2.0948
 9742SOL     OW30358   3.840   4.603   8.246 -0.0091 -0.3677  0.0322
 9742SOL    HW130359   3.832   4.694   8.276  1.8783 -0.0762 -0.2438
 9742SOL    HW230360   3.800   4.604   8.159 -0.2039  0.1516  0.1227
 9743SOL     OW30361   8.433   6.132   4.248  0.5981  0.5176 -0.1133
 9743SOL    HW130362   8.419   6.210   4.301 -1.0110 -0.6200  1.2734
 9743SOL    HW230363   8.444   6.061   4.312  0.1189 -0.6834 -1.2979
 9744SOL     OW30364   7.992   2.666   1.226  0.0199 -0.1935  0.4026
 9744SOL    HW130365   7.985   2.715   1.144 -2.1681  0.5407  0.9600
 9744SOL    HW230366   8.086   2.649   1.236  0.4330  0.5173 -1.7567
 9745SOL     OW30367   3.700   2.130   1.590 -0.2369  0.1071  0.5075
 9745SOL    HW130368   3.669   2.191   1.657  1.2104  1.2092  0.2294
 9745SOL    HW230369   3.794   2.147   1.584 -0.5295  1.3299 -3.0060
 9746SOL     OW30370   5.615   3.878   4.247 -0.7697  0.1019  0.1362
 9746SOL    HW130371   5.649   3.803   4.296  2.5644  0.6344 -1.0885
 9746SOL    HW230372   5.637   3.954   4.301  1.0633  0.5306 -1.1038
 9747SOL     OW30373   7.166   5.614   7.761 -1.0027  0.0470  0.1616
 9747SOL    HW130374   7.150   5.677   7.691 -0.8021  0.0375  0.1045
 9747SOL    HW230375   7.199   5.666   7.834  0.5519 -0.1483 -0.3666
 9748SOL     OW30376   0.807   0.100   0.840  0.0156 -0.0216  0.2426
 9748SOL    HW130377   0.837   0.107   0.749  0.9500 -0.6006  0.4880
 9748SOL    HW230378   0.878   0.138   0.892  0.3259 -1.3412  0.8362
 9749SOL     OW30379   0.422   2.716   4.196 -0.4261  0.2129 -0.5959
 9749SOL    HW130380   0.410   2.721   4.101  0.1248  2.0700 -0.6110
 9749SOL    HW230381   0.470   2.795   4.218  0.4900 -0.7539  1.0998
 9750SOL     OW30382   8.332   1.018   8.176  0.0485  0.4997  0.5647
 9750SOL    HW130383   8.398   0.960   8.139 -2.1571 -1.6700 -0.1818
 9750SOL    HW230384   8.374   1.056   8.253  1.8638 -1.4553  0.6162
 9751SOL     OW30385   0.818   4.271   8.312 -0.2787  0.4950  0.1851
 9751SOL    HW130386   0.740   4.220   8.291  0.4247  0.0672 -1.5473
 9751SOL    HW230387   0.888   4.228   8.263  0.8651  1.4542  0.9356
 9752SOL     OW30388   1.256   4.542   1.773  0.1732 -0.1419  0.2533
 9752SOL    HW130389   1.199   4.484   1.722  0.4295 -1.1085  1.0516
 9752SOL    HW230390   1.283   4.610   1.710 -2.6420  0.9570  0.0526
 9753SOL     OW30391   8.104   6.075   3.766 -0.6552 -0.3260  0.1841
 9753SOL    HW130392   8.107   6.166   3.738 -2.0132  0.2667  1.7852
 9753SOL    HW230393   8.039   6.074   3.837  0.1694 -2.3236  0.9794
 9754SOL     OW30394   1.642   6.886   1.129  0.8592  0.0306  0.2292
 9754SOL    HW130395   1.734   6.891   1.107  0.7790 -1.4995 -0.5479
 9754SOL    HW230396   1.596   6.911   1.049  0.5900 -4.2731 -1.1897
 9755SOL     OW30397   3.309   0.597   4.621 -0.3852 -0.2388  0.3962
 9755SOL    HW130398   3.356   0.557   4.694  3.5881  0.2918 -1.6107
 9755SOL    HW230399   3.307   0.690   4.641 -0.7648 -0.2776  0.5486
 9756SOL     OW30400   2.521   4.919   7.822  0.3887 -0.0787 -0.1203
 9756SOL    HW130401   2.513   4.959   7.735  1.1772  2.5075  0.9051
 9756SOL    HW230402   2.464   4.972   7.878  1.3838 -0.4599  1.3092
 9757SOL     OW30403   4.031   7.436   0.901  0.8271 -0.1721 -0.4152
 9757SOL    HW130404   3.963   7.466   0.840  0.5444  1.8233  0.7701
 9757SOL    HW230405   3.986   7.374   0.958 -0.1873  1.4382  0.6162
 9758SOL     OW30406   1.862   0.713   2.894 -0.4489 -0.1098 -0.3676
 9758SOL    HW130407   1.885   0.674   2.978  0.3719  0.4807 -0.3070
 9758SOL    HW230408   1.916   0.668   2.830 -0.7881 -0.2879 -0.5310
 9759SOL     OW30409   3.333   8.654   1.134 -0.6010  0.2534  0.0540
 9759SOL    HW130410   3.296   8.689   1.054 -0.1973 -0.0429 -0.2716
 9759SOL    HW230411   3.383   8.727   1.172 -0.0881  0.1526 -0.4138
 9760SOL     OW30412   6.604   4.985   2.364  0.6623  0.3186 -0.2567
 9760SOL    HW130413   6.681   5.040   2.379  0.8625 -0.1689  0.5337
 9760SOL    HW230414   6.543   5.041   2.317  1.6571  0.5920 -1.2573
 9761SOL     OW30415   0.261   4.782   5.901  0.3674  0.3106  0.2284
 9761SOL    HW130416   0.318   4.825   5.966  0.4054  1.8401 -0.7617
 9761SOL    HW230417   0.192   4.741   5.953  0.7907  0.8798  1.2767
 9762SOL     OW30418   2.135   6.130   3.210  0.7094  0.5403  0.1744
 9762SOL    HW130419   2.129   6.155   3.303  0.0354 -1.4815  0.7450
 9762SOL    HW230420   2.226   6.101   3.199  0.4945 -0.3283  0.5560
 9763SOL     OW30421   0.425   5.938   7.092  0.5913  0.2328  0.6010
 9763SOL    HW130422   0.479   5.948   7.014 -1.7416 -0.2680 -1.2088
 9763SOL    HW230423   0.463   5.863   7.138  0.8948 -0.6949 -1.0896
 9764SOL     OW30424   1.193   5.968   1.535 -0.2414  0.0685  0.0056
 9764SOL    HW130425   1.191   5.906   1.608  3.6565 -0.0760  0.1729
 9764SOL    HW230426   1.175   6.053   1.575 -0.3734 -0.2757  0.6985
 9765SOL     OW30427   0.422   1.440   5.620  0.4826 -0.3936  0.3354
 9765SOL    HW130428   0.487   1.508   5.598  1.2853 -1.2476 -0.0171
 9765SOL    HW230429   0.338   1.485   5.618  1.0868  0.8107  1.0912
 9766SOL     OW30430   4.318   3.106   8.742 -0.2487 -0.0279  0.2403
 9766SOL    HW130431   4.343   3.018   8.770  0.0626  0.3512  1.1683
 9766SOL    HW230432   4.388   3.163   8.774  0.8787  0.3018 -2.4754
 9767SOL     OW30433   5.878   7.332   7.908  0.3066 -0.1384 -0.4167
 9767SOL    HW130434   5.807   7.313   7.847 -0.3487  0.4774  0.1388
 9767SOL    HW230435   5.891   7.427   7.901 -1.9975  0.5609  2.7064
 9768SOL     OW30436   7.652   8.975   6.393  0.3005 -0.2584 -0.4427
 9768SOL    HW130437   7.621   8.935   6.474  1.1834 -1.1112 -0.5127
 9768SOL    HW230438   7.716   9.040   6.423  0.0013  0.0245 -0.4132
 9769SOL     OW30439   1.110   3.809   0.242 -0.2440 -0.2685  0.1189
 9769SOL    HW130440   1.039   3.828   0.181 -1.3016 -0.0294  1.3828
 9769SOL    HW230441   1.189   3.806   0.188 -0.7783  2.3663 -0.9533
 9770SOL     OW30442   4.012   2.992   3.844 -0.7412  0.1825 -0.5811
 9770SOL    HW130443   3.983   2.904   3.823  0.0134 -0.2228  0.0294
 9770SOL    HW230444   4.039   2.988   3.936  1.6417  0.3824 -1.1988
 9771SOL     OW30445   6.788   0.807   5.384 -0.0285 -0.1120 -0.1602
 9771SOL    HW130446   6.841   0.858   5.446  0.8422 -0.5760 -0.4982
 9771SOL    HW230447   6.700   0.845   5.390  0.3953  0.8469  0.2380
 9772SOL     OW30448   8.118   1.162   5.084  0.4733  0.3572 -0.5848
 9772SOL    HW130449   8.190   1.185   5.025  0.5145 -0.0552 -0.7010
 9772SOL    HW230450   8.075   1.245   5.104 -0.0037  0.4267 -1.7970
 9773SOL     OW30451   3.333   6.118   9.004  0.2069 -0.1293 -0.2966
 9773SOL    HW130452   3.254   6.135   8.952 -0.1254  0.0995  0.2633
 9773SOL    HW230453   3.405   6.151   8.950  0.1538 -2.1047 -1.6722
 9774SOL     OW30454   3.856   5.980   4.293 -0.0489 -0.3660 -0.0388
 9774SOL    HW130455   3.823   5.982   4.203  1.0585 -1.8074 -0.5054
 9774SOL    HW230456   3.779   6.000   4.347 -0.8190  0.1026 -1.2704
 9775SOL     OW30457   5.564   2.172   2.779  0.2740  0.1864  0.0295
 9775SOL    HW130458   5.576   2.095   2.835 -0.0980 -0.8192 -1.2302
 9775SOL    HW230459   5.633   2.233   2.806  1.5068 -1.1928  0.0640
 9776SOL     OW30460   2.427   8.309   4.626 -0.1718 -0.4556  0.0356
 9776SOL    HW130461   2.348   8.276   4.669 -0.4738  1.9825  1.5320
 9776SOL    HW230462   2.499   8.283   4.683 -0.2744  0.2429  0.4981
 9777SOL     OW30463   6.114   2.890   6.851  0.1700  0.0904  0.2387
 9777SOL    HW130464   6.046   2.882   6.919  0.5920  0.0820  0.6597
 9777SOL    HW230465   6.142   2.981   6.855  0.5602 -0.0375  0.4251
 9778SOL     OW30466   3.149   8.443   3.772 -0.0649 -0.5659 -0.0176
 9778SOL    HW130467   3.143   8.353   3.738 -0.1075 -0.4320 -0.3737
 9778SOL    HW230468   3.243   8.460   3.778 -0.0465 -0.2073 -1.1225
 9779SOL     OW30469   7.060   5.957   3.914  0.4986  0.2620 -0.2947
 9779SOL    HW130470   7.053   5.887   3.849 -2.7783 -0.9067  1.1014
 9779SOL    HW230471   7.006   6.028   3.881  0.7418  0.6125  0.0433
 9780SOL     OW30472   5.379   7.625   8.846 -0.4034 -0.3282  0.1290
 9780SOL    HW130473   5.349   7.687   8.913  0.6663 -0.3357  0.6349
 9780SOL    HW230474   5.342   7.541   8.873 -1.5448  0.0064 -0.3503
 9781SOL     OW30475   2.292   5.846   6.373 -0.0788 -0.0538 -0.0656
 9781SOL    HW130476   2.330   5.907   6.310  0.6574 -1.0796 -0.6482
 9781SOL    HW230477   2.367   5.807   6.418 -0.5475 -0.2257  0.5894
 9782SOL     OW30478   3.558   3.929   8.747 -0.5248  0.0934 -0.1346
 9782SOL    HW130479   3.602   3.863   8.695 -0.3150 -0.3939  0.6465
 9782SOL    HW230480   3.603   3.927   8.831 -0.9960  0.7161  0.1392
 9783SOL     OW30481   1.149   5.390   5.491  0.2730  0.0904 -0.6792
 9783SOL    HW130482   1.066   5.346   5.471  0.1376  0.0053  0.0502
 9783SOL    HW230483   1.215   5.337   5.446  0.4028 -2.3765  2.0912
 9784SOL     OW30484   0.186   1.364   1.404  0.1867  0.0949  0.1942
 9784SOL    HW130485   0.255   1.430   1.409  0.2239  0.2491 -1.7429
 9784SOL    HW230486   0.231   1.280   1.414  0.5647  0.2313 -0.3440
 9785SOL     OW30487   6.536   4.329   7.921 -0.3809 -0.6221 -0.4421
 9785SOL    HW130488   6.521   4.367   7.835 -0.8664  0.4853  0.1028
 9785SOL    HW230489   6.459   4.353   7.972  0.3418 -0.3654  0.5881
 9786SOL     OW30490   0.307   2.001   6.381 -0.4290 -0.0668 -0.4227
 9786SOL    HW130491   0.365   2.063   6.338 -1.1854  0.5127 -0.6292
 9786SOL    HW230492   0.259   1.960   6.309  2.3662 -3.4011 -0.6659
 9787SOL     OW30493   3.434   8.655   0.322  0.2584 -0.4580  0.1962
 9787SOL    HW130494   3.462   8.744   0.344 -1.8849  0.0573  1.0777
 9787SOL    HW230495   3.380   8.628   0.396  1.3398 -2.7533  0.2216
 9788SOL     OW30496   1.875   6.252   1.485 -0.2363 -0.2290  0.4770
 9788SOL    HW130497   1.805   6.195   1.518  1.1127 -1.9396  0.4953
 9788SOL    HW230498   1.828   6.330   1.453 -1.8728  0.2213  3.5349
 9789SOL     OW30499   4.535   4.262   7.463 -0.4514 -0.5716 -0.2730
 9789SOL    HW130500   4.442   4.239   7.461 -0.8802  1.0489 -0.0657
 9789SOL    HW230501   4.544   4.320   7.538 -0.1120  2.5170 -2.5135
 9790SOL     OW30502   1.276   7.983   6.171 -0.1140  0.2219 -0.0102
 9790SOL    HW130503   1.248   7.895   6.194  0.3918  0.2097  0.5978
 9790SOL    HW230504   1.277   8.030   6.254  0.9744  0.4079 -0.1098
 9791SOL     OW30505   1.238   5.914   5.293  0.3102 -0.1627  0.1230
 9791SOL    HW130506   1.184   5.968   5.351 -1.3815 -1.3338 -0.2889
 9791SOL    HW230507   1.280   5.977   5.234 -1.5154  0.7475 -0.2784
 9792SOL     OW30508   6.565   6.600   7.615  0.3148  0.2073  0.5154
 9792SOL    HW130509   6.553   6.679   7.668  0.5228  0.6271 -0.0556
 9792SOL    HW230510   6.642   6.557   7.652  0.5619  0.5871  0.4375
 9793SOL     OW30511   8.425   7.696   1.783 -0.7123  0.1285  0.3526
 9793SOL    HW130512   8.436   7.614   1.735 -0.5666 -0.0121  0.6270
 9793SOL    HW230513   8.331   7.711   1.783 -0.9057 -0.9075  1.7460
 9794SOL     OW30514   6.314   7.880   2.305 -0.3509  0.0070 -0.2036
 9794SOL    HW130515   6.258   7.954   2.281 -1.2333 -0.4566  0.3408
 9794SOL    HW230516   6.293   7.864   2.397  0.1076 -0.6854 -0.2125
 9795SOL     OW30517   8.887   2.474   1.406  0.2231 -0.1205  0.0545
 9795SOL    HW130518   8.961   2.520   1.445  0.1038 -0.5650  0.8144
 9795SOL    HW230519   8.919   2.448   1.319  0.2412  1.4836 -0.4505
 9796SOL     OW30520   3.847   2.768   0.992  0.5441  0.5524  0.7085
 9796SOL    HW130521   3.762   2.809   1.006 -0.0968 -0.1462 -0.8715
 9796SOL    HW230522   3.847   2.692   1.049 -0.3434 -0.0262 -0.0320
 9797SOL     OW30523   1.608   0.046   0.654  0.1048  0.2693 -0.6339
 9797SOL    HW130524   1.526   0.012   0.621  0.7268 -2.3736  0.2954
 9797SOL    HW230525   1.588   0.077   0.743  0.4575 -2.4980  0.4991
 9798SOL     OW30526   3.718   7.549   1.000  0.3809 -0.2556 -0.4256
 9798SOL    HW130527   3.802   7.560   0.955  0.5023 -0.4842 -0.2617
 9798SOL    HW230528   3.737   7.573   1.091  0.1040  0.3429 -0.5207
 9799SOL     OW30529   1.142   8.177   1.594 -0.0060  0.3597  0.5030
 9799SOL    HW130530   1.204   8.238   1.634  0.1805  0.3500  0.2347
 9799SOL    HW230531   1.181   8.091   1.610  0.3900  0.3932 -0.2361
 9800SOL     OW30532   8.371   1.228   0.761 -0.2253 -0.1547  0.6891
 9800SOL    HW130533   8.437   1.195   0.699 -0.3714  0.5600  0.1469
 9800SOL    HW230534   8.338   1.149   0.804 -3.9712 -1.5021 -3.8327
 9801SOL     OW30535   7.130   4.670   7.020  0.6350 -0.3241  0.5468
 9801SOL    HW130536   7.201   4.732   7.036 -0.0990  0.2404  1.6954
 9801SOL    HW230537   7.075   4.676   7.098 -0.5719 -0.8997 -0.2447
 9802SOL     OW30538   3.462   1.653   0.352 -0.7024  0.1153 -0.5146
 9802SOL    HW130539   3.556   1.639   0.356 -0.4913  1.5840  1.5098
 9802SOL    HW230540   3.445   1.680   0.262  0.8939  0.3034 -0.7900
 9803SOL     OW30541   6.039   6.571   5.691  0.3286 -0.9303 -0.7676
 9803SOL    HW130542   6.017   6.480   5.667  0.3574 -0.2444 -3.7703
 9803SOL    HW230543   5.954   6.613   5.704  0.2655 -1.0423 -0.8148
 9804SOL     OW30544   4.800   7.432   4.762 -0.5527  0.3584  0.1486
 9804SOL    HW130545   4.843   7.515   4.779  0.4978  0.0185 -0.6712
 9804SOL    HW230546   4.743   7.449   4.687 -0.1788  0.3136 -0.1547
 9805SOL     OW30547   3.277   4.069   4.046  0.3248 -0.3593  0.3523
 9805SOL    HW130548   3.347   4.061   4.110  1.7770  3.6064 -0.4096
 9805SOL    HW230549   3.198   4.082   4.098  1.2912  1.5980  1.4648
 9806SOL     OW30550   7.416   2.055   3.050  0.2199 -0.1275 -0.0755
 9806SOL    HW130551   7.438   2.146   3.072 -0.6236  0.1753 -0.4197
 9806SOL    HW230552   7.419   2.009   3.134 -1.8805  0.7782  0.5778
 9807SOL     OW30553   5.707   4.663   0.151 -0.2645 -0.0821 -0.1554
 9807SOL    HW130554   5.798   4.651   0.180 -0.6328  2.3591  2.3794
 9807SOL    HW230555   5.695   4.758   0.149 -3.8520 -0.2287  3.6405
 9808SOL     OW30556   8.100   2.446   4.374  0.2210 -0.0276 -0.8071
 9808SOL    HW130557   8.053   2.463   4.455  0.4453 -1.1618 -0.4152
 9808SOL    HW230558   8.041   2.474   4.304 -1.0552 -1.4111 -0.3304
 9809SOL     OW30559   5.820   4.917   2.454  0.3687 -0.1019 -0.1722
 9809SOL    HW130560   5.788   4.895   2.542  0.9497 -1.5308 -0.2983
 9809SOL    HW230561   5.909   4.882   2.451  0.3344 -0.1285 -1.3633
 9810SOL     OW30562   5.585   5.113   2.608  0.0573  0.3912 -0.3699
 9810SOL    HW130563   5.504   5.162   2.598  0.0039  0.8136  1.7302
 9810SOL    HW230564   5.558   5.021   2.613 -0.3734  0.5650  0.8233
 9811SOL     OW30565   4.692   3.821   3.167  0.0151 -0.7631  0.2967
 9811SOL    HW130566   4.620   3.782   3.118 -1.8549  3.4114 -0.7921
 9811SOL    HW230567   4.656   3.835   3.255 -1.7607  3.4806 -0.8442
 9812SOL     OW30568   1.544   0.979   0.511  0.6685 -0.4663 -0.4168
 9812SOL    HW130569   1.625   0.991   0.560  0.5918  1.8269 -0.7565
 9812SOL    HW230570   1.476   0.977   0.578  0.2722  5.2059 -0.2404
 9813SOL     OW30571   0.715   8.028   8.663 -0.0612  0.3852  0.2390
 9813SOL    HW130572   0.809   8.012   8.662 -0.2510 -1.0156  1.4888
 9813SOL    HW230573   0.706   8.123   8.656  1.5011  0.6705  1.6305
 9814SOL     OW30574   3.490   0.967   7.570  0.0496 -0.1859 -0.1887
 9814SOL    HW130575   3.495   1.051   7.524  3.4208  0.1947  0.6669
 9814SOL    HW230576   3.511   0.902   7.504 -0.1806 -0.1261 -0.3208
 9815SOL     OW30577   0.489   7.935   4.747  0.2085  0.4363 -1.1045
 9815SOL    HW130578   0.583   7.953   4.746  0.9144 -1.7980  3.0513
 9815SOL    HW230579   0.478   7.862   4.687  2.0206 -1.9278  1.2155
 9816SOL     OW30580   2.805   4.604   2.235 -0.4020 -0.7304 -0.4672
 9816SOL    HW130581   2.746   4.678   2.251 -0.7525 -0.8353 -1.2175
 9816SOL    HW230582   2.892   4.643   2.232  0.0171 -0.9239  3.5326
 9817SOL     OW30583   5.849   3.456   6.660  0.1535 -0.0544 -0.3792
 9817SOL    HW130584   5.931   3.420   6.626 -0.1816 -2.4499  1.0902
 9817SOL    HW230585   5.875   3.505   6.738  0.2883 -0.1245 -0.3784
 9818SOL     OW30586   4.057   1.463   8.342  0.4334 -0.2888 -0.0379
 9818SOL    HW130587   4.045   1.386   8.286  1.5116 -0.6116  0.1345
 9818SOL    HW230588   4.129   1.438   8.401  1.2682  1.0963 -0.4344
 9819SOL     OW30589   1.894   4.266   6.950 -0.3144 -0.8416  0.3179
 9819SOL    HW130590   1.941   4.350   6.952 -2.0401  0.1853 -0.3781
 9819SOL    HW230591   1.821   4.279   7.011 -1.4540 -1.2947 -0.9286
 9820SOL     OW30592   0.317   6.034   3.970 -0.5755 -0.1241  0.1802
 9820SOL    HW130593   0.412   6.030   3.966 -0.5325  1.2656 -1.4747
 9820SOL    HW230594   0.296   6.031   4.063  1.0949 -0.0488  0.5850
 9821SOL     OW30595   2.981   4.563   8.034  0.1642 -0.6531  0.2706
 9821SOL    HW130596   2.891   4.582   8.057 -0.4195  0.5669 -2.5819
 9821SOL    HW230597   2.975   4.495   7.967  1.3824 -0.7548  0.2286
 9822SOL     OW30598   7.103   5.111   6.607 -0.2594  0.1324  0.5628
 9822SOL    HW130599   7.165   5.128   6.535  0.1718  0.9793  1.1175
 9822SOL    HW230600   7.150   5.052   6.666 -0.2129  0.2792  0.6736
 9823SOL     OW30601   1.821   3.480   5.441  0.1287  0.5357 -0.1466
 9823SOL    HW130602   1.907   3.439   5.444  0.4080  1.1140 -0.0297
 9823SOL    HW230603   1.785   3.468   5.529 -0.1315 -0.1573 -0.3416
 9824SOL     OW30604   0.949   3.055   1.653  0.3179  0.0975 -0.0795
 9824SOL    HW130605   0.893   3.085   1.725  0.3216  0.0650 -0.0633
 9824SOL    HW230606   1.028   3.109   1.661  0.1860  0.3194 -0.2551
 9825SOL     OW30607   1.665   2.404   5.746  0.1690  0.0023 -0.7586
 9825SOL    HW130608   1.758   2.415   5.728  0.1903  1.4656  0.0902
 9825SOL    HW230609   1.625   2.486   5.717 -0.7495 -0.3189 -0.4549
 9826SOL     OW30610   0.265   8.558   2.640  0.6138  0.8445  0.6726
 9826SOL    HW130611   0.320   8.518   2.572 -1.2451 -0.8613  0.0762
 9826SOL    HW230612   0.264   8.651   2.617  1.1560  0.5220 -0.8164
 9827SOL     OW30613   1.300   2.018   7.992  0.6324 -0.3098 -0.6516
 9827SOL    HW130614   1.324   1.942   8.046 -0.6927 -0.2839 -0.0032
 9827SOL    HW230615   1.209   2.003   7.968  0.9017  0.1808 -2.0752
 9828SOL     OW30616   4.630   1.662   4.780  0.1930 -0.0920  0.3973
 9828SOL    HW130617   4.646   1.754   4.757 -1.0235 -0.0726 -0.4858
 9828SOL    HW230618   4.679   1.612   4.715  1.2552 -0.0826  1.1773
 9829SOL     OW30619   5.702   7.375   2.353  0.1591 -0.3717 -0.0933
 9829SOL    HW130620   5.662   7.438   2.293 -0.0996  0.5503  1.0161
 9829SOL    HW230621   5.638   7.364   2.423  1.1390 -0.1353  0.8678
 9830SOL     OW30622   4.703   3.107   5.101  0.0975  0.0216 -0.3447
 9830SOL    HW130623   4.789   3.064   5.108 -0.0508 -0.1717  0.3955
 9830SOL    HW230624   4.724   3.199   5.087  0.4190 -0.2685 -2.0092
 9831SOL     OW30625   4.552   3.140   2.711 -0.2668 -0.1980 -0.6593
 9831SOL    HW130626   4.531   3.047   2.713  1.5319 -0.6439 -0.7286
 9831SOL    HW230627   4.636   3.147   2.756 -0.9169  1.5777  0.4050
 9832SOL     OW30628   1.584   5.092   7.396 -0.0211  0.3089 -0.1581
 9832SOL    HW130629   1.516   5.026   7.411  0.7347 -0.5962 -0.6275
 9832SOL    HW230630   1.633   5.060   7.320 -0.0365  1.7523 -0.8133
 9833SOL     OW30631   2.494   2.964   1.764  0.2998 -0.2091 -0.1736
 9833SOL    HW130632   2.587   2.953   1.780  0.6057  1.8102 -0.3952
 9833SOL    HW230633   2.482   3.058   1.750 -2.0266 -0.1679  1.5106
 9834SOL     OW30634   6.775   3.819   7.519 -0.4175 -0.5726 -0.2603
 9834SOL    HW130635   6.752   3.901   7.562 -0.9983 -0.0597 -1.5292
 9834SOL    HW230636   6.751   3.831   7.427  2.3489 -0.9860 -1.1607
 9835SOL     OW30637   3.230   1.125   5.533  0.5628  0.3787 -0.1281
 9835SOL    HW130638   3.211   1.213   5.499  0.3906 -0.5183 -2.5231
 9835SOL    HW230639   3.192   1.065   5.468  1.2277 -1.4779  1.1165
 9836SOL     OW30640   7.043   1.847   3.914  0.3271  0.2969  0.1492
 9836SOL    HW130641   7.110   1.796   3.869 -0.0560 -0.4039  0.3622
 9836SOL    HW230642   6.961   1.819   3.874 -0.0673 -0.6576  1.5592
 9837SOL     OW30643   6.652   1.446   0.602 -0.3826  0.3315 -0.4806
 9837SOL    HW130644   6.617   1.529   0.635 -1.1552  0.4045 -1.4380
 9837SOL    HW230645   6.587   1.381   0.628 -0.1472  0.1328 -0.3834
 9838SOL     OW30646   4.460   7.433   8.339  0.6473 -0.1254  0.3049
 9838SOL    HW130647   4.455   7.525   8.366 -2.3860  0.4689 -1.7289
 9838SOL    HW230648   4.503   7.389   8.412 -0.6772  2.3970  2.8194
 9839SOL     OW30649   6.717   0.524   0.521 -0.5250  0.2201  0.7003
 9839SOL    HW130650   6.754   0.443   0.487 -0.6225  0.6265 -0.4214
 9839SOL    HW230651   6.626   0.523   0.492 -0.5027  0.7604  0.5958
 9840SOL     OW30652   2.844   5.589   6.803  0.2783  0.3447  0.0659
 9840SOL    HW130653   2.751   5.608   6.788  0.5772  1.4831 -0.5163
 9840SOL    HW230654   2.849   5.494   6.806 -0.8612  0.2545 -0.2312
 9841SOL     OW30655   3.995   1.277   2.625 -0.1263 -0.0955  0.1158
 9841SOL    HW130656   3.953   1.192   2.634 -1.5432  0.6038  0.4074
 9841SOL    HW230657   3.986   1.318   2.711 -0.3991  0.7574 -0.3073
 9842SOL     OW30658   8.419   3.082   5.206  0.2880  0.0459 -0.3049
 9842SOL    HW130659   8.420   3.083   5.301 -2.2797 -0.6363 -0.2024
 9842SOL    HW230660   8.503   3.121   5.181  0.4574  1.5222  2.2066
 9843SOL     OW30661   1.243   7.235   4.455 -0.4035  0.5729  0.4741
 9843SOL    HW130662   1.269   7.153   4.414 -0.5059  0.9360 -0.3330
 9843SOL    HW230663   1.323   7.288   4.455 -0.0618  0.1123  1.9472
 9844SOL     OW30664   7.560   1.267   1.527  0.3497 -0.8811 -0.2041
 9844SOL    HW130665   7.635   1.250   1.584 -0.1014 -0.2874  0.5728
 9844SOL    HW230666   7.496   1.200   1.550  0.3969 -1.0095 -0.4387
 9845SOL     OW30667   2.392   2.509   6.138  0.4199  0.0623  0.3343
 9845SOL    HW130668   2.438   2.570   6.196  1.2357 -0.2149 -0.0069
 9845SOL    HW230669   2.432   2.523   6.052 -0.8870  0.5885 -0.2135
 9846SOL     OW30670   5.943   9.096   2.660  0.6147 -0.0153 -0.0392
 9846SOL    HW130671   6.011   9.058   2.715 -0.0994 -1.5778 -0.1809
 9846SOL    HW230672   5.981   9.098   2.572  1.4509  1.6970  0.3369
 9847SOL     OW30673   2.361   7.089   4.238  0.7850  0.2368  0.1708
 9847SOL    HW130674   2.290   7.060   4.181  0.4174  1.0632  0.1891
 9847SOL    HW230675   2.341   7.050   4.323 -0.1086  1.1131  0.3842
 9848SOL     OW30676   1.410   3.002   4.755 -0.3341 -0.7212  0.1549
 9848SOL    HW130677   1.377   3.041   4.836 -1.6545 -1.1363 -0.1529
 9848SOL    HW230678   1.451   3.074   4.708 -0.2639 -0.3062  0.8373
 9849SOL     OW30679   4.453   8.141   0.850 -0.6055 -0.7471  0.0171
 9849SOL    HW130680   4.485   8.152   0.940 -0.7852  0.9248 -0.0821
 9849SOL    HW230681   4.512   8.077   0.811  0.3233 -0.4798  0.9327
 9850SOL     OW30682   5.124   0.340   2.089 -0.2248  0.1792  0.0365
 9850SOL    HW130683   5.185   0.368   2.158  0.0600 -0.2965 -0.0211
 9850SOL    HW230684   5.039   0.342   2.132 -0.2572  1.4064 -0.0437
 9851SOL     OW30685   5.980   1.500   1.405 -0.5173  0.4429 -0.0481
 9851SOL    HW130686   6.014   1.444   1.475 -0.2381 -0.1852 -0.6759
 9851SOL    HW230687   5.999   1.589   1.434 -1.0663  0.2300  1.0221
 9852SOL     OW30688   3.157   3.461   0.033  0.0678  0.2353  0.2585
 9852SOL    HW130689   3.155   3.484  -0.060  1.0068 -0.4076  0.0592
 9852SOL    HW230690   3.097   3.387   0.041  1.2726 -0.8174 -0.1832
 9853SOL     OW30691   7.485   8.771   5.137  0.0318  0.6590  0.5727
 9853SOL    HW130692   7.396   8.753   5.108 -0.4263  0.1658  2.2164
 9853SOL    HW230693   7.522   8.685   5.157  1.4960  0.6760 -1.6824
 9854SOL     OW30694   8.205   0.151   5.256  0.1615 -0.6672  0.6616
 9854SOL    HW130695   8.214   0.067   5.210 -0.3306 -0.8330  0.8556
 9854SOL    HW230696   8.269   0.208   5.215  1.1845 -1.4181  1.1626
 9855SOL     OW30697   4.512   1.669   2.114 -0.0106  0.4309  0.3634
 9855SOL    HW130698   4.566   1.590   2.114 -2.4215 -1.3514 -0.6619
 9855SOL    HW230699   4.574   1.740   2.098  2.5425 -0.9432  3.1447
 9856SOL     OW30700   1.800   1.455   1.648  0.1046 -0.5092 -0.5233
 9856SOL    HW130701   1.736   1.385   1.640 -0.2639 -0.0478 -1.8188
 9856SOL    HW230702   1.761   1.529   1.602  0.1195  0.8493  1.5067
 9857SOL     OW30703   6.519   2.453   3.792  0.6881  0.7394 -0.7124
 9857SOL    HW130704   6.543   2.519   3.857 -1.7572  1.5610 -0.5578
 9857SOL    HW230705   6.514   2.371   3.842 -1.2425  1.3746  0.2247
 9858SOL     OW30706   8.413   1.858   0.164 -0.1551  0.5655  0.4890
 9858SOL    HW130707   8.412   1.769   0.198  0.4854 -0.6007 -2.3210
 9858SOL    HW230708   8.345   1.859   0.096  0.0548  2.1484  0.2573
 9859SOL     OW30709   7.675   2.888   6.623 -0.4007  0.2557 -0.5791
 9859SOL    HW130710   7.701   2.974   6.658 -0.9533  0.3171 -0.2999
 9859SOL    HW230711   7.644   2.840   6.700 -1.3215  0.2709 -0.9299
 9860SOL     OW30712   6.394   4.506   1.198  0.2910 -0.3293 -0.0933
 9860SOL    HW130713   6.486   4.484   1.206  0.3294  0.0714  0.7105
 9860SOL    HW230714   6.383   4.585   1.251 -0.7479 -1.0642  0.8492
 9861SOL     OW30715   6.510   2.684   2.575  0.1189  0.0040  0.7753
 9861SOL    HW130716   6.525   2.732   2.656 -0.2622 -0.9738  1.4478
 9861SOL    HW230717   6.563   2.730   2.509  0.5768  0.6997  1.6148
 9862SOL     OW30718   3.373   0.155   7.078  0.4066 -0.2123  0.4243
 9862SOL    HW130719   3.457   0.183   7.043 -0.1759  0.8568 -0.1771
 9862SOL    HW230720   3.332   0.108   7.005 -0.1918  0.7123  0.1541
 9863SOL     OW30721   4.751   0.986   4.997  0.0040 -0.8442 -0.1197
 9863SOL    HW130722   4.701   0.969   5.077 -1.1565  0.6809 -0.4760
 9863SOL    HW230723   4.777   1.078   5.004 -1.1462 -0.3205 -2.0275
 9864SOL     OW30724   0.589   2.986   2.931 -0.8463  0.0578  0.0449
 9864SOL    HW130725   0.576   3.000   2.838 -0.4935  0.6054  0.0736
 9864SOL    HW230726   0.567   3.070   2.972  2.8276  1.1599  0.0760
 9865SOL     OW30727   6.131   2.639   7.262  0.4058  0.0949 -0.4361
 9865SOL    HW130728   6.045   2.675   7.283 -0.6229 -0.9795 -2.4809
 9865SOL    HW230729   6.194   2.701   7.299 -1.2317  1.1493  0.6912
 9866SOL     OW30730   8.328   4.324   4.736 -0.1347  0.7452  0.3622
 9866SOL    HW130731   8.409   4.289   4.700 -0.1773 -0.1347  1.1008
 9866SOL    HW230732   8.289   4.251   4.784 -2.1769  0.6595 -1.2865
 9867SOL     OW30733   6.425   7.386   4.413 -0.2756 -0.2265  0.0679
 9867SOL    HW130734   6.448   7.300   4.450  0.5199  0.3516  0.9593
 9867SOL    HW230735   6.423   7.445   4.488 -0.3329  0.6416 -0.5984
 9868SOL     OW30736   3.519   4.942   3.954 -0.2602  0.1339  0.0746
 9868SOL    HW130737   3.430   4.937   3.988 -0.3122 -0.8979 -0.1529
 9868SOL    HW230738   3.570   4.882   4.010  0.0982  0.0565 -0.3230
 9869SOL     OW30739   1.888   4.905   5.252 -0.6835 -0.6342 -0.3645
 9869SOL    HW130740   1.807   4.889   5.302 -1.2550  1.0103 -0.7215
 9869SOL    HW230741   1.877   4.992   5.215  0.5165 -1.0805 -1.8871
 9870SOL     OW30742   7.622   1.134   4.650 -0.1810 -0.3693 -0.6112
 9870SOL    HW130743   7.688   1.098   4.710 -0.0981 -0.8479 -0.9801
 9870SOL    HW230744   7.666   1.140   4.566  0.2478  1.9922 -0.2658
 9871SOL     OW30745   4.432   1.905   6.334 -0.3317 -0.4045 -0.2625
 9871SOL    HW130746   4.394   1.880   6.418  0.4730 -0.1174  0.1943
 9871SOL    HW230747   4.403   1.995   6.320 -1.4104 -0.8240 -0.8546
 9872SOL     OW30748   3.332   5.872   6.259 -0.0653  0.7138  0.2528
 9872SOL    HW130749   3.265   5.936   6.235 -2.1831 -1.5281 -0.1347
 9872SOL    HW230750   3.349   5.824   6.178 -0.2761 -0.7387  1.0335
 9873SOL     OW30751   6.516   6.029   5.092  0.4721  0.2031  0.4570
 9873SOL    HW130752   6.436   5.979   5.107  0.1706  0.5254 -0.0442
 9873SOL    HW230753   6.548   6.050   5.180 -0.7994  1.3255  0.6895
 9874SOL     OW30754   3.185   3.099   8.327  0.0072 -0.2452  0.2008
 9874SOL    HW130755   3.274   3.084   8.359  0.6078  0.8321 -0.8822
 9874SOL    HW230756   3.137   3.130   8.404  0.6653 -0.4793  0.7155
 9875SOL     OW30757   7.154   4.292   1.522  0.1718 -0.4222 -0.0202
 9875SOL    HW130758   7.090   4.309   1.452  0.5335  0.6366 -0.1129
 9875SOL    HW230759   7.120   4.215   1.567 -2.7019  1.5914  1.6306
 9876SOL     OW30760   0.743   6.223   7.474  0.1932 -0.3195 -0.0571
 9876SOL    HW130761   0.666   6.227   7.531  1.0050 -0.4929  1.0863
 9876SOL    HW230762   0.739   6.304   7.423 -0.7563 -0.3394 -0.0400
 9877SOL     OW30763   6.836   4.704   2.746  0.2640  0.2580  0.1706
 9877SOL    HW130764   6.776   4.689   2.819 -1.5134  1.6762 -0.9387
 9877SOL    HW230765   6.784   4.749   2.680  2.4054  1.0618 -1.0832
 9878SOL     OW30766   4.307   2.381   7.563 -0.2078  0.0289 -0.2330
 9878SOL    HW130767   4.336   2.296   7.530 -0.0894  0.0092 -0.0789
 9878SOL    HW230768   4.248   2.414   7.495 -0.6509 -0.3997 -0.0725
 9879SOL     OW30769   1.242   3.108   7.997 -0.3329  0.1727  0.0912
 9879SOL    HW130770   1.182   3.035   8.011 -0.5018  0.3282  0.1890
 9879SOL    HW230771   1.262   3.141   8.085  2.0303 -1.5572  0.3000
 9880SOL     OW30772   3.045   1.837   8.114  0.8642  0.4391  0.1495
 9880SOL    HW130773   2.998   1.813   8.035  1.9020  2.5817 -1.2046
 9880SOL    HW230774   3.119   1.775   8.118 -0.4003 -1.0954  0.7280
 9881SOL     OW30775   3.373   6.155   6.041 -0.4371  0.3585 -0.2408
 9881SOL    HW130776   3.372   6.154   5.945 -0.8243 -0.0365 -0.2323
 9881SOL    HW230777   3.308   6.090   6.067 -1.5476  1.6416  0.2940
 9882SOL     OW30778   7.283   6.703   6.941  0.1064 -0.6823  0.9847
 9882SOL    HW130779   7.278   6.786   6.989  1.4061 -1.1646  2.0147
 9882SOL    HW230780   7.256   6.726   6.852  3.0824  1.5251  0.4753
 9883SOL     OW30781   4.681   7.413   6.930 -0.1863  0.7239  0.5328
 9883SOL    HW130782   4.666   7.479   6.997  0.1588  1.1263  0.2193
 9883SOL    HW230783   4.675   7.460   6.847 -0.4318  0.2659  0.2864
 9884SOL     OW30784   0.855   1.491   7.819  0.0011  0.6142 -0.7848
 9884SOL    HW130785   0.797   1.517   7.891 -1.2345  0.4278 -1.6806
 9884SOL    HW230786   0.879   1.574   7.777 -0.6625  0.6035 -1.1901
 9885SOL     OW30787   3.053   1.071   1.535  0.1382 -0.1661  0.1714
 9885SOL    HW130788   2.976   1.128   1.535  0.2760  0.0257 -0.2715
 9885SOL    HW230789   3.095   1.087   1.451 -0.6301 -2.0012 -0.6329
 9886SOL     OW30790   2.802   3.569   0.549  0.1203 -0.8353 -0.2123
 9886SOL    HW130791   2.742   3.643   0.557  0.9176 -0.1370 -0.5624
 9886SOL    HW230792   2.760   3.499   0.598 -2.1928 -1.1637 -2.4594
 9887SOL     OW30793   2.946   0.908   5.958  0.7326 -0.7484 -0.4838
 9887SOL    HW130794   3.012   0.949   5.903  1.4526 -1.9776 -0.5619
 9887SOL    HW230795   2.877   0.882   5.896 -0.1223  0.9700 -0.3469
 9888SOL     OW30796   2.806   2.432   7.806  0.7599 -0.8755  0.2990
 9888SOL    HW130797   2.881   2.476   7.846  1.9039 -0.8738 -1.7588
 9888SOL    HW230798   2.730   2.467   7.853  1.6660  2.6145 -0.5722
 9889SOL     OW30799   8.391   7.104   5.429  0.4148 -0.0951  0.7290
 9889SOL    HW130800   8.482   7.096   5.456  0.4553  0.7231  0.8686
 9889SOL    HW230801   8.373   7.198   5.435  0.0946 -0.0240 -1.0315
 9890SOL     OW30802   9.037   4.418   1.921 -0.1274 -0.8004 -0.1067
 9890SOL    HW130803   9.123   4.399   1.883  0.2882 -0.0761  0.4515
 9890SOL    HW230804   9.054   4.486   1.987 -1.3784  0.7375 -1.2762
 9891SOL     OW30805   8.388   7.654   0.998  0.1004  0.1782 -0.7066
 9891SOL    HW130806   8.383   7.561   1.017 -0.0169  0.5232  1.1481
 9891SOL    HW230807   8.325   7.668   0.927 -1.1938 -0.8778  0.1844
 9892SOL     OW30808   1.804   8.039   1.429  0.0600  0.4261 -0.4991
 9892SOL    HW130809   1.714   8.019   1.453 -0.1385 -1.1108 -2.2543
 9892SOL    HW230810   1.825   8.120   1.476 -1.9340  0.3590  0.5899
 9893SOL     OW30811   3.018   8.254   0.509 -0.3826  0.3806  0.9657
 9893SOL    HW130812   3.098   8.274   0.559  1.2922 -1.6182 -0.7158
 9893SOL    HW230813   2.994   8.337   0.467 -0.1940  1.4064  2.7802
 9894SOL     OW30814   4.102   2.569   6.040 -0.1297 -0.2759  0.0881
 9894SOL    HW130815   4.190   2.564   6.003  1.1818  0.9988  2.7545
 9894SOL    HW230816   4.058   2.636   5.987  1.3747  0.8901  0.2396
 9895SOL     OW30817   3.250   3.047   6.409  0.1767  0.4160 -0.2517
 9895SOL    HW130818   3.161   3.042   6.377  0.3440 -1.5453 -0.5374
 9895SOL    HW230819   3.302   3.002   6.343  1.4639  1.8830 -0.2997
 9896SOL     OW30820   3.811   5.622   7.565  0.4316 -0.1379 -0.0833
 9896SOL    HW130821   3.896   5.579   7.555  1.0219  0.8086  0.7274
 9896SOL    HW230822   3.831   5.709   7.600 -0.8478  0.2349 -0.1976
 9897SOL     OW30823   5.915   8.404   0.926  0.2395  0.7736  0.3094
 9897SOL    HW130824   5.926   8.368   1.014 -0.7447  1.5860  0.7781
 9897SOL    HW230825   5.949   8.335   0.869  0.5109  0.0582  1.2953
 9898SOL     OW30826   5.573   3.847   7.203 -0.2949  0.8944  0.6707
 9898SOL    HW130827   5.584   3.757   7.235 -0.9257  0.3471 -0.5730
 9898SOL    HW230828   5.661   3.874   7.178  0.0428  0.9607  1.8703
 9899SOL     OW30829   4.328   7.829   8.038 -1.2387 -0.2482  0.2491
 9899SOL    HW130830   4.268   7.795   8.105  0.9158 -1.3384  1.7822
 9899SOL    HW230831   4.412   7.788   8.059  0.1164  1.3653 -1.6376
 9900SOL     OW30832   2.021   8.014   3.687  0.2965 -0.0216  0.6854
 9900SOL    HW130833   2.031   8.102   3.651  0.4349 -0.4805 -0.4309
 9900SOL    HW230834   1.982   7.964   3.616 -0.1358 -0.7730  1.4461
 9901SOL     OW30835   1.293   4.068   7.695 -0.3227 -0.4779 -0.3701
 9901SOL    HW130836   1.286   3.973   7.691 -2.1063 -0.4123  0.2416
 9901SOL    HW230837   1.248   4.092   7.776  0.7372  0.8484 -0.1420
 9902SOL     OW30838   4.052   3.351   8.288  0.1986  0.1561  0.3647
 9902SOL    HW130839   4.116   3.294   8.331  0.0961  0.5414  1.0505
 9902SOL    HW230840   4.093   3.438   8.289 -0.4299  0.4555  1.0249
 9903SOL     OW30841   8.770   3.730   3.210 -0.0284  0.2801  0.3230
 9903SOL    HW130842   8.843   3.733   3.272  0.5959 -0.7539 -0.3386
 9903SOL    HW230843   8.803   3.777   3.133 -0.4268  0.6572  0.3780
 9904SOL     OW30844   3.135   6.858   7.492 -0.1477 -0.4489 -0.3711
 9904SOL    HW130845   3.062   6.877   7.552 -0.1939 -0.2773 -0.4795
 9904SOL    HW230846   3.196   6.931   7.505  0.1911 -0.7959  0.0056
 9905SOL     OW30847   2.014   0.018   5.647  0.3920 -0.5682 -0.6174
 9905SOL    HW130848   2.107  -0.002   5.645  0.3939 -0.5770 -0.4784
 9905SOL    HW230849   1.980  -0.013   5.563  0.3307 -1.4441 -0.2755
 9906SOL     OW30850   2.283   8.643   6.533  0.0390 -0.1483 -0.3125
 9906SOL    HW130851   2.306   8.709   6.468 -0.6795 -0.0645 -0.4891
 9906SOL    HW230852   2.248   8.570   6.482  0.8368 -0.6768 -0.1177
 9907SOL     OW30853   4.540   6.539   4.535 -0.5188 -0.0309 -0.4809
 9907SOL    HW130854   4.545   6.630   4.504 -0.6627  0.0347 -0.3063
 9907SOL    HW230855   4.503   6.545   4.622  1.1236 -0.0935  0.2696
 9908SOL     OW30856   2.958   0.750   4.819 -0.5621  0.2386 -0.9271
 9908SOL    HW130857   2.952   0.690   4.893  0.9739  2.0463  0.7907
 9908SOL    HW230858   2.937   0.697   4.742 -2.9607 -1.5791  0.8197
 9909SOL     OW30859   1.054   3.644   1.632 -0.5628 -0.6900 -0.2689
 9909SOL    HW130860   0.966   3.610   1.646 -0.9023 -0.4875 -1.7356
 9909SOL    HW230861   1.041   3.730   1.593  0.2951 -0.3301  0.2007
 9910SOL     OW30862   2.364   8.919   3.818 -0.5232 -0.6176 -0.3402
 9910SOL    HW130863   2.311   8.957   3.747 -0.7615 -0.6345 -0.1721
 9910SOL    HW230864   2.385   8.831   3.787  1.5569  0.2369 -1.5452
 9911SOL     OW30865   5.980   4.455   6.595  0.3821  0.0820 -0.0244
 9911SOL    HW130866   5.907   4.495   6.546  0.1630  1.3127  1.2383
 9911SOL    HW230867   6.057   4.506   6.569  0.9553 -1.5728 -1.7830
 9912SOL     OW30868   3.745   0.686   4.050 -0.4359  0.0697 -0.2223
 9912SOL    HW130869   3.673   0.721   4.102 -0.2276  0.6309 -0.3102
 9912SOL    HW230870   3.734   0.591   4.055 -0.2015  0.0965  1.1517
 9913SOL     OW30871   8.053   7.658   7.627  0.7878 -0.0287 -0.2877
 9913SOL    HW130872   8.111   7.595   7.585  0.4427 -1.2101  0.9361
 9913SOL    HW230873   7.968   7.643   7.585  0.3132 -1.5892  1.0947
 9914SOL     OW30874   6.963   8.335   5.562  0.0211 -0.1436 -0.3519
 9914SOL    HW130875   6.937   8.279   5.635 -1.1883  0.0417 -0.6174
 9914SOL    HW230876   7.053   8.310   5.543 -0.1396 -1.2249  0.2480
 9915SOL     OW30877   7.237   4.966   1.596 -0.5833 -0.3501 -0.1200
 9915SOL    HW130878   7.188   4.979   1.677  0.8613  0.1119  0.7226
 9915SOL    HW230879   7.172   4.938   1.532 -2.1226  1.2923  0.6608
 9916SOL     OW30880   0.425   4.454   7.749 -0.4005  0.3589  0.4486
 9916SOL    HW130881   0.337   4.434   7.718 -0.0612 -3.4791  1.4585
 9916SOL    HW230882   0.483   4.422   7.681  0.2424  1.1234  0.6253
 9917SOL     OW30883   8.064   6.863   6.482 -0.1836  0.0239  0.2110
 9917SOL    HW130884   8.144   6.905   6.452 -0.0630  0.0012  0.5077
 9917SOL    HW230885   7.995   6.928   6.466 -0.2574 -0.3088 -0.9426
 9918SOL     OW30886   1.407   1.717   7.729 -0.2285  0.2030 -0.3655
 9918SOL    HW130887   1.311   1.711   7.722 -0.4388 -0.0602  1.8482
 9918SOL    HW230888   1.428   1.805   7.697 -1.1164  0.0213 -1.5053
 9919SOL     OW30889   4.683   5.904   4.865 -1.0078 -0.1666 -0.4966
 9919SOL    HW130890   4.664   5.827   4.812 -2.6379  0.5654 -1.0607
 9919SOL    HW230891   4.753   5.949   4.818  1.0853 -2.0264  0.6556
 9920SOL     OW30892   5.703   0.763   7.933 -0.0376  0.3771  0.4291
 9920SOL    HW130893   5.744   0.849   7.938  1.6700 -0.3481 -0.2083
 9920SOL    HW230894   5.609   0.781   7.938  0.2644  2.2706  0.1987
 9921SOL     OW30895   3.733   4.376   2.481 -0.3445  0.1227 -0.3490
 9921SOL    HW130896   3.717   4.469   2.468  1.1990  0.4251 -0.2782
 9921SOL    HW230897   3.821   4.371   2.518  0.3477 -1.4321 -2.0127
 9922SOL     OW30898   4.170   6.204   6.588  0.0335 -0.1729 -0.2486
 9922SOL    HW130899   4.255   6.168   6.615 -0.3921  0.4375  2.1302
 9922SOL    HW230900   4.128   6.229   6.670 -3.3902 -2.4738 -1.1102
 9923SOL     OW30901   3.084   9.031   6.492  0.1038  0.5051 -0.5769
 9923SOL    HW130902   3.157   8.983   6.531 -0.2640 -1.2424 -1.9074
 9923SOL    HW230903   3.006   8.998   6.538 -0.2972 -1.3238 -2.4065
 9924SOL     OW30904   8.824   0.756   6.018 -0.1405 -0.3094 -0.0921
 9924SOL    HW130905   8.744   0.776   5.970 -0.6363 -0.4743  0.6600
 9924SOL    HW230906   8.864   0.842   6.034  0.8190 -0.3172 -2.0862
 9925SOL     OW30907   4.275   8.295   4.412  0.2568  0.5370  0.1628
 9925SOL    HW130908   4.274   8.199   4.417 -2.1258  0.4329 -1.1377
 9925SOL    HW230909   4.309   8.314   4.325 -0.3142  0.8213 -0.0025
 9926SOL     OW30910   0.550   8.999   8.664 -0.1330  0.2360 -0.4933
 9926SOL    HW130911   0.491   8.968   8.596 -0.9755  0.9620 -0.1149
 9926SOL    HW230912   0.495   9.006   8.742  0.7548 -0.3351  0.1996
 9927SOL     OW30913   5.678   2.403   6.868 -0.6094 -0.3094 -0.2712
 9927SOL    HW130914   5.626   2.429   6.793 -1.1876  1.2925  0.6181
 9927SOL    HW230915   5.631   2.439   6.943  1.0459  0.0030  0.6734
 9928SOL     OW30916   7.568   7.549   1.215  0.6195  0.4867 -0.4873
 9928SOL    HW130917   7.638   7.615   1.208  0.4650  0.5403 -1.7352
 9928SOL    HW230918   7.576   7.497   1.135 -0.5868  0.3095 -0.5042
 9929SOL     OW30919   6.529   0.672   8.100 -0.0979  0.2249 -0.1304
 9929SOL    HW130920   6.614   0.707   8.073  1.7467 -0.9736  3.4434
 9929SOL    HW230921   6.543   0.642   8.190 -3.9635 -1.3603  0.1426
 9930SOL     OW30922   2.718   5.049   6.583 -0.4497 -0.5941  0.1676
 9930SOL    HW130923   2.671   5.113   6.530 -1.0963 -0.8631  0.4142
 9930SOL    HW230924   2.662   4.972   6.584  0.9541 -1.6874 -1.2949
 9931SOL     OW30925   7.165   8.787   7.015  0.7061 -0.1791 -0.2595
 9931SOL    HW130926   7.150   8.858   7.078  0.6786 -0.2156 -0.2248
 9931SOL    HW230927   7.187   8.711   7.068 -0.3156 -0.4805 -0.2350
 9932SOL     OW30928   1.413   7.748   8.771  0.2170  0.1464 -0.2670
 9932SOL    HW130929   1.468   7.776   8.845 -1.3599  1.2004  0.5488
 9932SOL    HW230930   1.417   7.652   8.774  0.8989  0.1861  0.6205
 9933SOL     OW30931   1.285   7.017   1.520  0.3921  0.0112 -0.0579
 9933SOL    HW130932   1.352   6.995   1.455  1.8176  0.3639  1.2201
 9933SOL    HW230933   1.202   7.002   1.476  1.3166 -0.3757 -1.7336
 9934SOL     OW30934   3.681   4.303   4.269  0.4516  0.8122  0.1120
 9934SOL    HW130935   3.661   4.375   4.329 -1.7178  0.1522  0.2940
 9934SOL    HW230936   3.676   4.341   4.182  1.0180  1.2321  0.2610
 9935SOL     OW30937   2.250   6.594   8.305  0.1154  0.3710 -0.0634
 9935SOL    HW130938   2.171   6.563   8.350  0.5238 -2.8197 -1.2784
 9935SOL    HW230939   2.220   6.668   8.252 -1.7387  0.1327  0.5833
 9936SOL     OW30940   3.633   4.090   0.786 -0.1568 -0.7123 -0.0491
 9936SOL    HW130941   3.693   4.111   0.857  0.1375 -1.7012  0.0087
 9936SOL    HW230942   3.611   3.998   0.799 -2.3394 -0.1975  0.4133
 9937SOL     OW30943   3.963   3.722   5.534  0.2873 -0.3475 -0.1521
 9937SOL    HW130944   3.899   3.666   5.579 -0.3086 -0.8837 -1.6344
 9937SOL    HW230945   3.935   3.811   5.554 -0.2800 -0.5798  0.1023
 9938SOL     OW30946   1.709   8.461   1.445  0.1075 -0.2711 -0.4613
 9938SOL    HW130947   1.771   8.391   1.465 -0.5582 -0.6811  0.2127
 9938SOL    HW230948   1.632   8.417   1.409 -0.5855  0.0247  0.6033
 9939SOL     OW30949   2.408   8.844   5.456 -0.5050  0.3125  0.3741
 9939SOL    HW130950   2.413   8.905   5.382  1.0178 -0.1899  0.0262
 9939SOL    HW230951   2.452   8.889   5.527  0.5226 -0.2947  0.1492
 9940SOL     OW30952   2.667   0.041   4.672  0.2887  0.7281 -0.1556
 9940SOL    HW130953   2.745   0.002   4.713  1.2225  2.3250 -0.3451
 9940SOL    HW230954   2.613  -0.035   4.648  0.2326 -0.3368  2.9133
 9941SOL     OW30955   2.241   1.123   5.721 -0.6324 -0.1404 -0.2497
 9941SOL    HW130956   2.173   1.111   5.787 -1.5024  0.3991 -1.0169
 9941SOL    HW230957   2.216   1.204   5.676 -0.1444 -0.5553 -1.3115
 9942SOL     OW30958   2.785   1.362   6.943 -0.5940  0.0378  0.3958
 9942SOL    HW130959   2.830   1.416   6.878 -0.0347 -0.3214  0.4809
 9942SOL    HW230960   2.696   1.353   6.908 -0.7065  1.0308  0.3986
 9943SOL     OW30961   3.155   3.653   8.862 -0.3542  0.1485 -0.3298
 9943SOL    HW130962   3.199   3.719   8.809  1.2187 -0.1879  0.4996
 9943SOL    HW230963   3.128   3.586   8.798  2.3356 -0.7124 -0.6888
 9944SOL     OW30964   8.603   0.659   2.652 -0.4567  0.4876 -0.3930
 9944SOL    HW130965   8.567   0.734   2.604 -0.8894  1.4713  1.3472
 9944SOL    HW230966   8.620   0.694   2.740  0.1384 -1.2538  0.2160
 9945SOL     OW30967   8.794   1.273   9.026  0.1221  0.5455  0.1875
 9945SOL    HW130968   8.737   1.243   8.956  1.5766  1.1269 -1.3296
 9945SOL    HW230969   8.735   1.295   9.098 -1.3269 -1.2256 -0.3959
 9946SOL     OW30970   9.086   2.660   5.447 -0.2627 -0.2902 -0.7420
 9946SOL    HW130971   9.011   2.624   5.493  0.0997 -1.5961 -1.1409
 9946SOL    HW230972   9.078   2.755   5.458 -1.7923 -0.4282 -0.5243
 9947SOL     OW30973   1.859   6.634   3.637  0.3729  0.3674  0.3768
 9947SOL    HW130974   1.767   6.623   3.613 -0.4191  2.0570  2.3102
 9947SOL    HW230975   1.903   6.655   3.555 -0.7606 -1.3391 -0.7327
 9948SOL     OW30976   7.318   7.656   1.188 -0.4316 -0.2421  0.4895
 9948SOL    HW130977   7.401   7.608   1.184 -0.8225 -0.9296  0.5902
 9948SOL    HW230978   7.250   7.589   1.179 -0.9699  0.4584 -0.9457
 9949SOL     OW30979   4.395   8.902   6.435 -0.2499 -0.2074 -0.1390
 9949SOL    HW130980   4.422   8.828   6.489  2.5965  1.4037  0.8412
 9949SOL    HW230981   4.368   8.970   6.497  1.1587  0.9745 -0.7491
 9950SOL     OW30982   2.680   8.652   5.101  0.4045 -0.4945 -0.4593
 9950SOL    HW130983   2.618   8.682   5.168 -0.0039 -0.6842 -0.7493
 9950SOL    HW230984   2.648   8.565   5.076  1.4426 -1.1090  0.2204
 9951SOL     OW30985   7.907   1.477   6.997  0.0183 -0.1985  0.8803
 9951SOL    HW130986   7.985   1.487   7.052 -0.1676  0.7366  0.9905
 9951SOL    HW230987   7.870   1.393   7.024 -0.0920  0.2553  2.2322
 9952SOL     OW30988   7.066   2.950   4.858 -0.3687 -0.0047 -0.3163
 9952SOL    HW130989   7.050   2.873   4.804  3.4026 -1.5733  0.4725
 9952SOL    HW230990   7.022   2.931   4.941 -1.6706 -0.0381 -0.9925
 9953SOL     OW30991   8.970   3.288   7.527  0.9816 -0.3948  0.1613
 9953SOL    HW130992   8.977   3.374   7.486  0.8406 -0.0270  0.8903
 9953SOL    HW230993   8.876   3.276   7.541  1.0450 -0.4028  0.5962
 9954SOL     OW30994   8.380   4.451   2.425  0.3168  0.0909 -0.2443
 9954SOL    HW130995   8.343   4.535   2.399  1.1492  0.4825 -0.2068
 9954SOL    HW230996   8.389   4.457   2.520  4.3147  1.7085 -0.5387
 9955SOL     OW30997   1.669   1.817   2.817 -0.5275  0.2765 -0.1690
 9955SOL    HW130998   1.734   1.887   2.821  0.6692 -0.7924 -0.0703
 9955SOL    HW230999   1.708   1.745   2.867 -1.2478 -0.8229 -1.1214
 9956SOL     OW31000   4.324   5.304   3.057  0.2700 -0.4665 -0.6086
 9956SOL    HW131001   4.363   5.264   2.979  0.3736  0.5516 -1.1037
 9956SOL    HW231002   4.230   5.294   3.045  0.1946  1.2458 -1.7721
 9957SOL     OW31003   4.815   6.982   8.539 -0.3484  0.4839 -0.0593
 9957SOL    HW131004   4.776   6.898   8.518 -0.2602  0.5152 -0.3549
 9957SOL    HW231005   4.835   7.021   8.454  3.0698 -0.8059 -0.0023
 9958SOL     OW31006   8.993   2.635   6.309 -0.1902  0.5571  0.2589
 9958SOL    HW131007   9.000   2.714   6.255  0.4879  1.0200  0.9952
 9958SOL    HW231008   8.961   2.668   6.393  0.3913  0.1008  0.6665
 9959SOL     OW31009   1.211   1.761   8.556  0.0921 -0.2337 -0.1068
 9959SOL    HW131010   1.219   1.694   8.624  1.4449 -0.2930 -0.2892
 9959SOL    HW231011   1.290   1.751   8.503 -0.2447  0.7540 -0.8368
 9960SOL     OW31012   5.755   1.850   1.792 -0.4369 -0.2492  0.6916
 9960SOL    HW131013   5.819   1.870   1.861  1.3793  0.8414 -1.1912
 9960SOL    HW231014   5.789   1.771   1.751  0.8863  1.3125 -1.4892
 9961SOL     OW31015   4.735   1.078   1.921  0.5487  0.0430  0.0371
 9961SOL    HW131016   4.756   0.996   1.876 -0.8247 -0.4241  0.2166
 9961SOL    HW231017   4.811   1.094   1.978  0.0924 -2.0783  1.3625
 9962SOL     OW31018   4.269   5.379   2.084  0.9220 -0.2314 -0.1662
 9962SOL    HW131019   4.214   5.439   2.133  0.4401  0.5786 -1.6425
 9962SOL    HW231020   4.351   5.426   2.071  0.4110  0.3104 -1.6506
 9963SOL     OW31021   1.426   1.399   8.568  0.5197  0.0276  0.0215
 9963SOL    HW131022   1.371   1.369   8.641  1.0019 -1.6569 -0.2473
 9963SOL    HW231023   1.505   1.434   8.609  0.1024  0.5842  0.3496
 9964SOL     OW31024   5.961   0.233   0.657 -0.3659 -0.3618 -0.3390
 9964SOL    HW131025   5.935   0.241   0.565 -1.6627  1.0936  0.1132
 9964SOL    HW231026   5.881   0.204   0.701 -0.3963  1.1199  0.6379
 9965SOL     OW31027   2.968   1.716   2.237 -0.3725 -0.1766 -0.6752
 9965SOL    HW131028   2.973   1.700   2.331 -0.4753  0.0289 -0.6350
 9965SOL    HW231029   2.878   1.693   2.213  0.5112 -3.4155 -1.3172
 9966SOL     OW31030   3.373   2.518   7.485 -0.0252 -0.7227 -0.2346
 9966SOL    HW131031   3.295   2.548   7.440  0.2019  0.5607  0.1923
 9966SOL    HW231032   3.353   2.427   7.509 -1.7201 -0.1915  0.5693
 9967SOL     OW31033   6.639   3.091   7.210  0.0677 -0.3985  0.4119
 9967SOL    HW131034   6.697   3.021   7.240  0.4686  0.2770  1.2455
 9967SOL    HW231035   6.604   3.058   7.127  0.7912 -1.2839  0.4330
 9968SOL     OW31036   1.425   1.483   2.176  0.6134  0.5156 -1.1696
 9968SOL    HW131037   1.402   1.392   2.159  2.0614 -0.0669 -0.1752
 9968SOL    HW231038   1.520   1.483   2.184  0.5394  1.8570  0.1919
 9969SOL     OW31039   1.527   4.933   2.523 -0.2336  0.4959 -0.5828
 9969SOL    HW131040   1.469   4.860   2.542 -0.6636  0.9116 -0.2826
 9969SOL    HW231041   1.565   4.912   2.438  1.6386 -1.3523  0.6222
 9970SOL     OW31042   4.775   7.060   3.017  0.1924 -0.7712  0.1991
 9970SOL    HW131043   4.766   7.106   2.934 -2.2725 -1.8211 -0.1821
 9970SOL    HW231044   4.865   7.028   3.016  0.2883 -0.6115 -1.9864
 9971SOL     OW31045   6.606   4.414   4.204 -1.1658 -0.5143 -0.4012
 9971SOL    HW131046   6.639   4.441   4.118 -0.5765  0.7976  0.2138
 9971SOL    HW231047   6.520   4.456   4.211  0.3456  2.6936  1.1573
 9972SOL     OW31048   1.461   7.108   8.001 -0.4262  0.0289 -0.1984
 9972SOL    HW131049   1.534   7.159   8.036 -0.6235  0.8814 -0.9840
 9972SOL    HW231050   1.474   7.020   8.037  1.0116  0.1498 -0.3502
 9973SOL     OW31051   6.186   8.694   9.113 -0.1420 -0.2985  0.3358
 9973SOL    HW131052   6.190   8.603   9.142 -0.4488 -0.9469 -1.5317
 9973SOL    HW231053   6.265   8.707   9.061 -0.1530  0.4735  0.4950
 9974SOL     OW31054   3.098   8.757   2.054  0.5387 -0.2660 -0.2226
 9974SOL    HW131055   3.181   8.805   2.048 -0.6301  1.8909 -0.1038
 9974SOL    HW231056   3.105   8.707   2.136  1.2289  0.8998  0.4616
 9975SOL     OW31057   4.853   0.725   8.737  0.1049  0.2604  0.0867
 9975SOL    HW131058   4.929   0.756   8.688  0.2315 -1.3643 -0.7994
 9975SOL    HW231059   4.785   0.715   8.670  0.1932 -1.7322  0.2575
 9976SOL     OW31060   0.854   8.418   4.254  0.4889  0.2001  0.2060
 9976SOL    HW131061   0.856   8.379   4.167  0.6148  0.4846  0.0775
 9976SOL    HW231062   0.828   8.509   4.239 -0.1790  0.0716  0.5368
 9977SOL     OW31063   3.552   8.469   5.806 -0.0113 -0.5965 -0.2968
 9977SOL    HW131064   3.506   8.415   5.742  0.2947 -1.9016  0.5508
 9977SOL    HW231065   3.492   8.475   5.880  0.3737 -0.6024  0.0161
 9978SOL     OW31066   5.648   5.485   4.263 -0.3345 -0.1776  0.2629
 9978SOL    HW131067   5.632   5.575   4.290  0.3115 -0.4300  1.5494
 9978SOL    HW231068   5.723   5.491   4.202  0.2396  0.0779  0.9815
 9979SOL     OW31069   8.838   2.219   0.096  0.0687  0.2406  0.0206
 9979SOL    HW131070   8.845   2.259   0.009 -0.8435  0.9820  0.2707
 9979SOL    HW231071   8.839   2.293   0.156 -0.2401 -0.2059  0.5837
 9980SOL     OW31072   6.934   5.294   3.574 -0.3606 -0.3157 -0.2383
 9980SOL    HW131073   6.985   5.316   3.496 -1.3185 -0.3191 -0.8768
 9980SOL    HW231074   6.894   5.377   3.601  1.4004  0.1047  1.3660
 9981SOL     OW31075   1.260   6.828   7.133  0.3839  0.8992 -0.2369
 9981SOL    HW131076   1.281   6.909   7.179  1.1681  0.4317  0.2537
 9981SOL    HW231077   1.295   6.839   7.045  1.4950  0.6677  0.1647
 9982SOL     OW31078   8.918   1.925   1.070 -0.3715  0.0422 -0.1399
 9982SOL    HW131079   8.977   1.892   1.002 -0.4100 -0.0851 -0.1103
 9982SOL    HW231080   8.905   2.017   1.047 -0.0355  0.1119 -0.0604
 9983SOL     OW31081   8.308   4.548   3.912  0.3010 -0.1943  0.1816
 9983SOL    HW131082   8.244   4.478   3.900  0.7250 -0.5858  0.2168
 9983SOL    HW231083   8.267   4.625   3.871 -0.4819 -0.2777  0.7900
 9984SOL     OW31084   8.844   4.825   1.612 -0.0547  0.3540 -0.2811
 9984SOL    HW131085   8.782   4.760   1.645 -0.1298  0.8432  0.5587
 9984SOL    HW231086   8.906   4.774   1.560  0.5653 -0.5799  1.2922
 9985SOL     OW31087   5.467   1.507   1.746 -0.1231  0.2331  0.0663
 9985SOL    HW131088   5.476   1.430   1.802 -2.0977 -0.4298 -0.4286
 9985SOL    HW231089   5.493   1.581   1.801  2.7356 -0.8180  0.2626
 9986SOL     OW31090   6.644   6.855   8.580  0.1147 -0.1535  0.4446
 9986SOL    HW131091   6.709   6.850   8.511 -0.6483  1.0891 -0.4153
 9986SOL    HW231092   6.691   6.832   8.660  1.5222  0.3769 -0.2016
 9987SOL     OW31093   1.097   6.934   6.134 -0.3741 -0.0422 -0.5500
 9987SOL    HW131094   1.193   6.944   6.132 -0.5169  1.5760 -1.4414
 9987SOL    HW231095   1.065   7.008   6.081 -2.1423 -0.2133  0.2335
 9988SOL     OW31096   1.991   1.948   8.054 -0.5175 -0.2955  0.1622
 9988SOL    HW131097   1.957   1.903   7.977  0.6981 -2.6108  0.8818
 9988SOL    HW231098   1.919   2.005   8.082 -1.8805 -1.2612 -1.2408
 9989SOL     OW31099   8.590   6.009   6.022  0.1073 -0.0326 -0.0725
 9989SOL    HW131100   8.531   6.021   6.097 -0.1001 -1.2587 -0.0220
 9989SOL    HW231101   8.596   5.914   6.011 -0.2930  0.1146 -1.9612
 9990SOL     OW31102   8.245   5.820   3.537  0.1569 -0.1935  0.2476
 9990SOL    HW131103   8.243   5.812   3.442 -0.3874 -1.8886  0.3564
 9990SOL    HW231104   8.156   5.847   3.562 -1.7270 -5.4397  0.5335
 9991SOL     OW31105   1.018   0.542   0.276 -0.2523  0.0165 -0.6462
 9991SOL    HW131106   1.024   0.637   0.268 -0.7087 -0.0703 -2.4899
 9991SOL    HW231107   0.950   0.517   0.213  0.0334 -1.5511 -0.3741
 9992SOL     OW31108   6.175   6.969   6.187  0.0118  0.1314  0.0807
 9992SOL    HW131109   6.249   6.926   6.145 -0.0205  0.5104 -0.3625
 9992SOL    HW231110   6.183   6.943   6.279  0.2253 -0.4921 -0.1018
 9993SOL     OW31111   5.178   2.709   6.118  0.5208 -0.0123 -0.6566
 9993SOL    HW131112   5.085   2.723   6.133  0.8493  1.6067  0.1158
 9993SOL    HW231113   5.192   2.728   6.026  0.1227 -0.0913 -0.7310
 9994SOL     OW31114   0.289   7.753   0.917 -0.4799 -0.2796  0.1199
 9994SOL    HW131115   0.299   7.682   0.854 -1.6475  0.6732 -1.1939
 9994SOL    HW231116   0.365   7.808   0.904 -1.3160  0.5814 -1.3999
 9995SOL     OW31117   0.847   7.714   1.007  0.3496 -0.1138 -0.1524
 9995SOL    HW131118   0.784   7.645   0.985  2.7701 -2.3407 -0.5561
 9995SOL    HW231119   0.866   7.756   0.922 -1.2299  1.2885  0.1131
 9996SOL     OW31120   2.100   2.187   3.575  0.1627 -0.5469 -0.6359
 9996SOL    HW131121   2.032   2.203   3.639  1.3187 -2.1281  1.0906
 9996SOL    HW231122   2.055   2.146   3.501 -0.7292 -1.8235  0.5779
 9997SOL     OW31123   7.074   1.742   1.957  0.6541 -0.5274 -0.1160
 9997SOL    HW131124   7.168   1.758   1.956  0.4825  0.4750 -1.2569
 9997SOL    HW231125   7.035   1.826   1.935 -0.5256 -0.9019  0.4830
 9998SOL     OW31126   2.177   5.146   6.115  0.2787 -0.1469  0.1617
 9998SOL    HW131127   2.221   5.175   6.194  0.9725 -0.5989 -0.0526
 9998SOL    HW231128   2.140   5.226   6.077  1.6403  0.3737 -0.0936
 9999SOL     OW31129   7.473   1.241   5.459  0.6755 -0.2602 -0.1208
 9999SOL    HW131130   7.518   1.275   5.536  2.4760  0.9029 -1.5949
 9999SOL    HW231131   7.474   1.146   5.470 -0.9425 -0.0815  2.2103
10000SOL     OW31132   1.254   2.799   7.680 -0.4806 -0.1929  0.1156
10000SOL    HW131133   1.212   2.721   7.715  0.6168 -1.0951 -0.5284
10000SOL    HW231134   1.318   2.766   7.617 -0.9434  1.2875 -1.1962
10001SOL     OW31135   4.862   0.337   1.288 -0.5432  0.4923 -0.0214
10001SOL    HW131136   4.837   0.303   1.202 -0.7622  1.2097 -0.2498
10001SOL    HW231137   4.915   0.267   1.327 -1.0862 -0.1534 -0.4230
10002SOL     OW31138   4.288   6.528   1.911 -0.3663 -0.1321 -0.0773
10002SOL    HW131139   4.316   6.547   2.000 -2.3505  0.9377  0.3833
10002SOL    HW231140   4.304   6.434   1.900  3.0216  0.2956  0.1481
10003SOL     OW31141   5.190   2.165   8.627  0.0203  0.5224 -0.7295
10003SOL    HW131142   5.222   2.175   8.716  0.1954  0.5862 -0.7993
10003SOL    HW231143   5.134   2.241   8.612 -0.4724  0.2222 -0.4788
10004SOL     OW31144   8.178   5.215   2.476  0.1631 -0.0216 -0.0715
10004SOL    HW131145   8.097   5.252   2.513 -0.6146 -1.0233 -0.7086
10004SOL    HW231146   8.245   5.232   2.543 -0.4780  1.1930  0.2887
10005SOL     OW31147   2.289   6.652   4.216  0.3329 -0.1510  0.0407
10005SOL    HW131148   2.367   6.603   4.190 -0.8085 -1.9234 -0.2411
10005SOL    HW231149   2.218   6.588   4.211 -1.1372  1.3852  0.3653
10006SOL     OW31150   4.350   8.109   7.109 -0.3487 -0.0005 -0.3235
10006SOL    HW131151   4.394   8.183   7.150 -0.0548 -0.2881 -0.1106
10006SOL    HW231152   4.304   8.147   7.034 -0.9548  0.5404  0.3118
10007SOL     OW31153   6.059   3.647   3.198 -0.4684 -0.6310  0.9146
10007SOL    HW131154   5.996   3.583   3.165 -0.2617  0.5007 -1.9231
10007SOL    HW231155   6.136   3.595   3.220 -0.4663 -1.4595 -0.8890
10008SOL     OW31156   6.529   2.112   5.476  0.1016  0.0865 -0.2588
10008SOL    HW131157   6.440   2.123   5.444 -0.6750 -2.0450  0.9403
10008SOL    HW231158   6.582   2.103   5.397 -0.9193  0.2685 -0.9836
10009SOL     OW31159   7.246   3.946   6.681 -0.3425  0.0794  0.0081
10009SOL    HW131160   7.309   3.996   6.629 -0.4707 -0.6559 -0.8758
10009SOL    HW231161   7.162   3.989   6.664 -0.5765 -0.8665 -1.3544
10010SOL     OW31162   6.669   7.933   3.807 -0.3119  0.1504 -0.1490
10010SOL    HW131163   6.574   7.932   3.815 -0.3208 -1.3983 -0.2671
10010SOL    HW231164   6.685   7.919   3.714  0.0170 -2.7446  0.2462
10011SOL     OW31165   2.577   3.117   2.158 -0.2775  0.3396 -0.0339
10011SOL    HW131166   2.509   3.053   2.182  1.0888 -0.9538  0.5784
10011SOL    HW231167   2.561   3.136   2.066 -1.0024 -0.5345 -0.1056
10012SOL     OW31168   8.391   3.726   6.801  0.4582 -0.5473  0.3955
10012SOL    HW131169   8.471   3.679   6.776  0.4650 -0.8852  1.0429
10012SOL    HW231170   8.362   3.768   6.720  0.3698 -1.7883 -0.2369
10013SOL     OW31171   7.942   1.152   7.915  0.1813 -0.3125 -0.2795
10013SOL    HW131172   8.020   1.111   7.879 -0.5915  0.2276 -2.7699
10013SOL    HW231173   7.916   1.217   7.850 -0.2496  2.2145  2.2127
10014SOL     OW31174   5.367   5.178   7.732  0.5418 -0.2396 -0.3283
10014SOL    HW131175   5.397   5.090   7.708 -2.2763 -1.0631 -1.2370
10014SOL    HW231176   5.298   5.163   7.796  1.9443  1.5304  1.7203
10015SOL     OW31177   0.718   8.804   8.648 -0.3469  0.2507 -0.3774
10015SOL    HW131178   0.802   8.847   8.640 -0.2130  0.0353 -0.1404
10015SOL    HW231179   0.656   8.875   8.665  0.1011  0.2240  1.6533
10016SOL     OW31180   6.854   5.906   6.921  0.7509 -0.0510  0.0956
10016SOL    HW131181   6.878   5.998   6.931 -1.2958  0.5543  0.0213
10016SOL    HW231182   6.805   5.904   6.838 -0.7622 -0.8242  0.9639
10017SOL     OW31183   5.727   4.842   4.645 -0.5653 -0.3531  1.0033
10017SOL    HW131184   5.822   4.829   4.655 -0.6801 -0.3921  2.2134
10017SOL    HW231185   5.693   4.839   4.734 -1.7051 -0.2445  0.5895
10018SOL     OW31186   4.501   8.852   6.875  0.1783 -0.1614  0.0579
10018SOL    HW131187   4.590   8.889   6.878  0.8112 -1.6632  1.6876
10018SOL    HW231188   4.513   8.761   6.900 -1.7473 -0.6006 -0.5235
10019SOL     OW31189   0.402   7.753   6.235  0.4497  0.2420 -0.3597
10019SOL    HW131190   0.476   7.698   6.259 -0.5716 -1.2280 -0.4581
10019SOL    HW231191   0.441   7.837   6.211  2.0775 -0.5305 -0.5060
10020SOL     OW31192   7.753   0.278   3.002  0.1456  0.1286  0.2758
10020SOL    HW131193   7.778   0.280   3.094  2.2315 -0.8764 -0.2085
10020SOL    HW231194   7.732   0.369   2.980  0.4953  0.5236  1.5128
10021SOL     OW31195   6.646   1.546   5.288 -0.1212 -0.0675 -0.0127
10021SOL    HW131196   6.630   1.490   5.364  1.0862  1.9800  1.8383
10021SOL    HW231197   6.677   1.485   5.221 -1.0938 -1.9246  1.1284
10022SOL     OW31198   5.354   1.722   6.999  0.1238 -0.0122 -0.0901
10022SOL    HW131199   5.390   1.808   7.019  0.1655  0.1110 -0.6749
10022SOL    HW231200   5.302   1.735   6.919 -0.8976 -0.2707  0.5130
10023SOL     OW31201   7.321   8.334   1.973  0.5512  0.5486 -0.3445
10023SOL    HW131202   7.237   8.369   1.942  0.3147  0.6825  0.4225
10023SOL    HW231203   7.369   8.312   1.893  1.1064  3.4420 -0.9080
10024SOL     OW31204   5.244   9.083   5.498 -0.5383 -0.3519 -0.5158
10024SOL    HW131205   5.266   9.013   5.437 -1.9959 -0.0837 -1.3793
10024SOL    HW231206   5.150   9.074   5.513 -0.9101  1.7785 -1.1634
10025SOL     OW31207   0.052   2.705   9.004 -0.2632 -0.4387  0.5936
10025SOL    HW131208   0.039   2.626   9.056 -0.4296 -1.0165 -0.2896
10025SOL    HW231209   0.115   2.678   8.936  1.5054  0.8357  1.6503
10026SOL     OW31210   7.672   4.447   5.359  0.0090  0.5939 -0.6776
10026SOL    HW131211   7.763   4.471   5.349  0.4989 -0.3545  1.0930
10026SOL    HW231212   7.647   4.411   5.274  1.8612 -0.8971 -0.6420
10027SOL     OW31213   5.749   3.262   2.514  0.1897 -0.1799 -0.1415
10027SOL    HW131214   5.764   3.261   2.420 -1.1539 -0.8037 -0.3736
10027SOL    HW231215   5.831   3.231   2.552  1.8147  2.8430 -0.8862
10028SOL     OW31216   5.230   2.107   6.569  0.1728 -0.1748 -0.5695
10028SOL    HW131217   5.194   2.055   6.498 -1.9850  0.8997 -0.3403
10028SOL    HW231218   5.204   2.061   6.649  2.0943 -1.0675 -0.3946
10029SOL     OW31219   0.408   4.469   3.175 -0.7116  0.4209  0.6997
10029SOL    HW131220   0.361   4.388   3.155 -0.2640  0.5411 -0.9789
10029SOL    HW231221   0.417   4.469   3.270 -1.2196 -1.2201  0.7735
10030SOL     OW31222   5.339   6.315   6.196  0.2241 -0.1349 -0.2040
10030SOL    HW131223   5.280   6.389   6.212  0.4849 -0.0831  0.5730
10030SOL    HW231224   5.352   6.314   6.101  0.5766  1.0894 -0.1800
10031SOL     OW31225   0.943   2.910   4.048 -0.2321 -0.0530 -0.2718
10031SOL    HW131226   0.947   2.983   3.986 -0.2367  0.5304  0.4047
10031SOL    HW231227   0.856   2.871   4.033 -0.4536  0.4250 -0.2560
10032SOL     OW31228   5.307   6.726   2.006 -0.0738 -0.2734 -0.0173
10032SOL    HW131229   5.299   6.668   2.082 -0.6190 -0.6124 -0.3264
10032SOL    HW231230   5.246   6.797   2.023  0.3400  0.0397  0.1967
10033SOL     OW31231   3.333   6.027   5.282 -0.2641  0.0713 -0.4013
10033SOL    HW131232   3.272   6.003   5.211 -0.6908 -0.0260 -0.0040
10033SOL    HW231233   3.277   6.054   5.354  0.1925  2.0029 -0.7101
10034SOL     OW31234   6.282   5.761   3.493 -0.4477  0.2950 -0.0728
10034SOL    HW131235   6.205   5.711   3.465  0.2512 -0.3557 -0.9045
10034SOL    HW231236   6.341   5.758   3.417  0.8938 -0.2358  0.9437
10035SOL     OW31237   7.249   4.043   4.240 -0.6885 -0.1943  0.5562
10035SOL    HW131238   7.173   4.009   4.288 -1.3737 -1.3260 -1.2414
10035SOL    HW231239   7.317   3.977   4.255 -0.8187 -0.4103  0.2033
10036SOL     OW31240   1.782   2.799   5.771  0.0404  0.0825  0.0049
10036SOL    HW131241   1.848   2.795   5.840 -0.3289  1.3815  0.4634
10036SOL    HW231242   1.732   2.879   5.790 -0.1781  0.3712 -1.6666
10037SOL     OW31243   6.518   1.655   6.275 -0.2949 -0.0549 -0.2225
10037SOL    HW131244   6.505   1.748   6.289 -0.4035 -0.2887  1.5201
10037SOL    HW231245   6.590   1.649   6.213 -0.1849  1.1847 -0.2312
10038SOL     OW31246   8.445   3.437   3.575  0.1755 -0.2933  0.0704
10038SOL    HW131247   8.506   3.366   3.556  0.0551  0.1514 -2.2853
10038SOL    HW231248   8.364   3.412   3.530 -0.1791  0.8694  0.0291
10039SOL     OW31249   2.692   1.348   5.267  0.0104  0.1780 -0.1212
10039SOL    HW131250   2.748   1.360   5.344 -1.3633 -1.8284  1.3028
10039SOL    HW231251   2.656   1.435   5.250  1.2261  0.8952  0.7924
10040SOL     OW31252   5.234   1.724   6.151 -0.0070  0.6131  0.4921
10040SOL    HW131253   5.224   1.645   6.204 -0.7837 -1.0687 -2.0031
10040SOL    HW231254   5.160   1.780   6.176  0.1342  0.2635  1.7535
10041SOL     OW31255   2.218   6.672   5.664 -0.0722  0.4351 -0.0016
10041SOL    HW131256   2.239   6.587   5.626 -2.4813 -0.1438 -0.2153
10041SOL    HW231257   2.126   6.665   5.689 -0.1814  2.7927  0.5190
10042SOL     OW31258   0.300   2.397   8.991  0.9472  0.5392  0.5322
10042SOL    HW131259   0.352   2.355   8.922 -1.3620  0.1952 -1.0920
10042SOL    HW231260   0.264   2.475   8.951  0.9006  1.2610  1.9012
10043SOL     OW31261   8.501   5.957   7.449 -0.3585  0.1705 -0.0246
10043SOL    HW131262   8.536   5.939   7.537 -1.0375 -1.3843 -0.0533
10043SOL    HW231263   8.430   6.020   7.465  0.6330  1.2529  0.3194
10044SOL     OW31264   8.065   0.463   1.185  0.1289 -0.6287 -0.1845
10044SOL    HW131265   8.146   0.431   1.145 -0.4680 -2.0072 -0.3650
10044SOL    HW231266   8.090   0.492   1.272  0.9189 -0.4560 -0.4612
10045SOL     OW31267   4.562   0.193   2.953  0.2720 -0.1594  0.6199
10045SOL    HW131268   4.557   0.104   2.986  0.8782 -0.3490  0.2151
10045SOL    HW231269   4.502   0.243   3.009  1.1767 -0.4833  1.9083
10046SOL     OW31270   9.108   1.438   1.236  0.0018 -0.4341 -0.1848
10046SOL    HW131271   9.053   1.506   1.274  0.2502 -0.5892  0.4521
10046SOL    HW231272   9.174   1.420   1.302 -0.0983 -1.3410 -0.3157
10047SOL     OW31273   3.946   0.088   3.813  0.0475  0.2677 -0.0564
10047SOL    HW131274   4.034   0.126   3.810 -0.0218  0.5413  0.9509
10047SOL    HW231275   3.936   0.045   3.728  0.3413  2.0279 -1.0240
10048SOL     OW31276   6.384   6.663   0.917  0.0652 -0.2548 -0.0639
10048SOL    HW131277   6.363   6.610   0.993  0.7131  0.2737  0.5052
10048SOL    HW231278   6.466   6.707   0.940 -0.6250  1.2704 -0.3565
10049SOL     OW31279   3.147   2.142   2.737  0.4144 -0.1231 -0.4083
10049SOL    HW131280   3.083   2.183   2.679  1.1548  1.6359 -0.0576
10049SOL    HW231281   3.106   2.143   2.824 -0.0404 -1.2689 -0.5900
10050SOL     OW31282   7.423   4.111   6.088  0.3287 -0.2650 -0.4802
10050SOL    HW131283   7.374   4.133   6.167  1.6828  0.4898  0.1718
10050SOL    HW231284   7.503   4.162   6.094  1.0604 -1.2237 -1.6880
10051SOL     OW31285   2.232   5.998   5.216 -0.7009  0.0167 -0.0227
10051SOL    HW131286   2.319   5.963   5.236 -0.3841 -0.2582 -1.6877
10051SOL    HW231287   2.173   5.924   5.224 -0.9975  0.4356  2.1785
10052SOL     OW31288   5.177   4.027   7.153 -0.3350 -0.4072 -0.1055
10052SOL    HW131289   5.093   4.010   7.111  0.2942  0.2046 -1.7017
10052SOL    HW231290   5.177   4.121   7.171 -0.0234 -0.4197 -0.0251
10053SOL     OW31291   2.491   5.510   8.842 -0.3363 -0.3001  0.1624
10053SOL    HW131292   2.529   5.585   8.889  1.1360  0.0828 -1.5147
10053SOL    HW231293   2.420   5.480   8.898  1.2363  0.1687  2.5829
10054SOL     OW31294   0.839   2.620   3.397 -0.2847 -0.5005 -0.0704
10054SOL    HW131295   0.839   2.531   3.434  0.1196  0.1390  1.5670
10054SOL    HW231296   0.932   2.639   3.384 -0.1312  0.6966  2.2902
10055SOL     OW31297   4.506   2.565   3.764 -0.3107  0.5760  0.3732
10055SOL    HW131298   4.509   2.555   3.860 -0.9679  0.0953  0.3530
10055SOL    HW231299   4.518   2.659   3.749 -1.7997  0.8873  1.0135
10056SOL     OW31300   1.601   4.456   6.091  0.0056  0.0485 -0.2494
10056SOL    HW131301   1.674   4.498   6.136  0.3470 -1.7660  1.0059
10056SOL    HW231302   1.536   4.525   6.081  0.5529  0.9167  1.6792
10057SOL     OW31303   4.961   1.706   1.791 -0.3687  0.3442  0.2550
10057SOL    HW131304   4.964   1.656   1.710  0.7453  1.7074 -0.5806
10057SOL    HW231305   5.039   1.680   1.839 -0.6570  0.0626  0.5765
10058SOL     OW31306   7.097   4.308   5.567 -0.1038  0.3094 -0.2700
10058SOL    HW131307   7.145   4.329   5.486  4.3641 -0.1800  1.9273
10058SOL    HW231308   7.105   4.213   5.575  1.0393  0.5084  1.4640
10059SOL     OW31309   8.569   8.768   7.434 -0.0972  0.1778  0.0268
10059SOL    HW131310   8.601   8.682   7.406 -2.5003 -1.0568  0.7875
10059SOL    HW231311   8.476   8.754   7.452 -1.0369  3.4082 -1.6405
10060SOL     OW31312   1.985   4.087   2.894  0.7563 -0.1358  0.6171
10060SOL    HW131313   2.072   4.068   2.929  1.2404 -0.1348 -0.5255
10060SOL    HW231314   1.953   4.003   2.862  0.4776 -0.0717  0.7224
10061SOL     OW31315   2.499   7.620   6.755  0.3349 -0.0328 -0.0343
10061SOL    HW131316   2.508   7.562   6.680  2.4358  0.8445 -0.5297
10061SOL    HW231317   2.415   7.664   6.740 -0.8710 -2.2031 -0.1061
10062SOL     OW31318   5.219   8.580   5.449 -0.2710  0.3022 -0.4533
10062SOL    HW131319   5.283   8.628   5.502 -1.4502 -0.2387  1.5333
10062SOL    HW231320   5.261   8.572   5.363  0.1420  4.5642 -0.8611
10063SOL     OW31321   6.844   5.482   1.535 -0.1259 -0.2667  0.0998
10063SOL    HW131322   6.862   5.411   1.473  1.0711 -0.6675  0.8868
10063SOL    HW231323   6.881   5.560   1.494  1.7770 -0.7468  0.8374
10064SOL     OW31324   2.274   9.032   6.574  0.2206 -0.1055  0.3354
10064SOL    HW131325   2.352   8.977   6.574 -1.0840 -2.0895  0.2538
10064SOL    HW231326   2.202   8.970   6.562 -1.2768  1.7874 -1.0661
10065SOL     OW31327   9.087   7.481   5.766  0.2198  0.1053  0.1005
10065SOL    HW131328   9.044   7.396   5.769 -2.1813  1.2349  0.7584
10065SOL    HW231329   9.093   7.508   5.858  1.1992  0.5443 -0.0813
10066SOL     OW31330   1.854   8.497   0.260 -0.7036 -0.3923  0.6704
10066SOL    HW131331   1.859   8.567   0.325 -1.1836 -1.0359  1.4154
10066SOL    HW231332   1.808   8.426   0.305 -2.5140 -0.2871 -0.8760
10067SOL     OW31333   7.352   2.797   5.556  0.6583 -0.0210 -0.6944
10067SOL    HW131334   7.395   2.755   5.482  1.4504 -0.5791  0.0693
10067SOL    HW231335   7.400   2.879   5.569 -0.1953  0.6306 -1.4907
10068SOL     OW31336   3.258   7.584   0.262  0.0454  0.2708  0.0953
10068SOL    HW131337   3.176   7.627   0.239 -1.4062 -2.7931 -1.0931
10068SOL    HW231338   3.283   7.536   0.183  2.3668  0.1378  0.8228
10069SOL     OW31339   3.475   3.184   1.064  0.2791  0.3507 -0.0145
10069SOL    HW131340   3.466   3.144   0.978  0.2398  3.8016 -1.7545
10069SOL    HW231341   3.386   3.208   1.089  0.4141  0.2792  0.5542
10070SOL     OW31342   2.652   7.226   0.698 -0.2031  0.2256  0.0445
10070SOL    HW131343   2.747   7.229   0.706 -0.2198  0.1739  0.2587
10070SOL    HW231344   2.636   7.235   0.604 -0.0158  0.9814  0.0785
10071SOL     OW31345   5.597   8.657   7.867 -0.4935  0.1344  0.9113
10071SOL    HW131346   5.614   8.658   7.961  0.5720 -1.6899  0.7783
10071SOL    HW231347   5.680   8.686   7.828 -0.8947  0.7728  0.5186
10072SOL     OW31348   1.202   3.787   9.018  0.1326  0.2941  0.0889
10072SOL    HW131349   1.238   3.829   8.940  1.1027 -0.2281  0.2284
10072SOL    HW231350   1.168   3.703   8.987 -0.9027  0.7410 -0.0230
10073SOL     OW31351   1.431   8.921   2.672  0.3330 -0.3030  0.0609
10073SOL    HW131352   1.467   8.854   2.613 -0.4664 -1.6706  1.0772
10073SOL    HW231353   1.414   8.996   2.615  1.2324 -0.9597 -1.1205
10074SOL     OW31354   2.663   5.326   8.215  0.4351 -0.3263  0.4726
10074SOL    HW131355   2.754   5.331   8.245  0.3749  0.3153  0.5776
10074SOL    HW231356   2.611   5.331   8.296  0.2758  1.1620  0.3181
10075SOL     OW31357   8.139   7.344   8.667  0.2791 -0.6897 -0.2607
10075SOL    HW131358   8.181   7.424   8.700  1.0351 -0.6471 -1.2671
10075SOL    HW231359   8.208   7.300   8.618 -0.4979 -1.3201 -0.8059
10076SOL     OW31360   5.558   5.914   2.669 -0.4742  0.1337  0.1649
10076SOL    HW131361   5.640   5.870   2.648 -0.2938  1.5279 -2.5463
10076SOL    HW231362   5.582   5.980   2.734  1.0254  1.6882 -1.8327
10077SOL     OW31363   7.733   1.282   0.664  0.2049  0.2235  0.0174
10077SOL    HW131364   7.659   1.280   0.725  1.4686  1.6441  1.6770
10077SOL    HW231365   7.692   1.284   0.578 -1.8409  3.5631  0.8974
10078SOL     OW31366   6.055   5.051   1.995  0.5204 -0.0876 -0.5096
10078SOL    HW131367   6.146   5.031   1.975  0.3559  0.8494 -2.3740
10078SOL    HW231368   6.028   4.982   2.056  1.9418 -1.4539 -1.3703
10079SOL     OW31369   6.746   4.993   6.074  0.4135 -0.2872  0.5018
10079SOL    HW131370   6.818   4.930   6.078  0.4438 -0.2401  0.6744
10079SOL    HW231371   6.670   4.941   6.050  0.0776 -0.6832  2.3001
10080SOL     OW31372   3.371   3.245   6.679 -0.3989 -0.4278 -0.6470
10080SOL    HW131373   3.283   3.274   6.705 -0.2722  0.2701 -0.9633
10080SOL    HW231374   3.367   3.150   6.681 -1.3082 -0.4105 -1.1236
10081SOL     OW31375   1.542   8.804   1.668 -0.3612  0.0480 -0.0518
10081SOL    HW131376   1.585   8.787   1.584 -0.2531  1.2498 -0.2540
10081SOL    HW231377   1.535   8.899   1.673 -1.9623 -0.0649  0.4921
10082SOL     OW31378   1.215   4.713   0.111  0.4169  0.1041  0.3861
10082SOL    HW131379   1.297   4.677   0.078  0.1368 -0.5598  0.3987
10082SOL    HW231380   1.148   4.680   0.051  0.2294  1.2286 -0.0563
10083SOL     OW31381   7.476   5.627   4.398  0.4198 -0.6664  0.5886
10083SOL    HW131382   7.570   5.624   4.419  0.7159 -2.1636 -0.7541
10083SOL    HW231383   7.439   5.553   4.445  0.0458 -0.5441  0.4867
10084SOL     OW31384   4.056   3.638   1.081  0.5376 -0.6169 -0.2897
10084SOL    HW131385   4.028   3.653   1.172  0.2948 -0.7980 -0.3356
10084SOL    HW231386   3.989   3.682   1.028  0.7311 -0.4287 -0.3803
10085SOL     OW31387   4.648   1.389   2.658 -0.2765  0.3271 -0.1213
10085SOL    HW131388   4.737   1.354   2.654  0.1048  1.1486  0.7315
10085SOL    HW231389   4.628   1.417   2.569 -0.0942 -0.8247 -0.5377
10086SOL     OW31390   7.106   4.661   8.900  0.0972  0.4047  0.0034
10086SOL    HW131391   7.015   4.634   8.895 -0.2513  0.7990  2.6977
10086SOL    HW231392   7.107   4.731   8.966  2.6760 -1.4000  2.0990
10087SOL     OW31393   0.277   4.753   3.387  0.2681 -0.0939 -0.0839
10087SOL    HW131394   0.185   4.775   3.399  0.5529  0.6836  0.7328
10087SOL    HW231395   0.286   4.736   3.293 -0.3934  1.2830 -0.4089
10088SOL     OW31396   0.614   4.998   5.772  0.6823 -0.0032  0.1410
10088SOL    HW131397   0.567   5.068   5.817  3.7229  1.4148  1.4227
10088SOL    HW231398   0.624   5.029   5.682  1.5259  1.0418  0.5671
10089SOL     OW31399   9.095   2.077   0.034 -0.0292  0.3639 -0.2254
10089SOL    HW131400   9.029   2.075   0.103  0.1790 -0.7187 -0.0374
10089SOL    HW231401   9.140   1.992   0.041  0.9403  0.8136 -0.7721
10090SOL     OW31402   5.667   2.986   3.617  0.3102  0.3810 -0.0698
10090SOL    HW131403   5.731   2.915   3.616  0.4094  0.4643  0.4019
10090SOL    HW231404   5.618   2.975   3.535 -0.8747 -1.3131  0.8041
10091SOL     OW31405   0.856   5.564   8.673  0.3271  0.3142  0.4076
10091SOL    HW131406   0.791   5.630   8.700 -1.2407 -0.7372 -0.6392
10091SOL    HW231407   0.813   5.480   8.690  1.1565 -0.4051 -0.9272
10092SOL     OW31408   2.320   2.881   8.130  0.6165  0.2393 -0.2153
10092SOL    HW131409   2.338   2.787   8.135  0.4332  0.2480  0.9729
10092SOL    HW231410   2.298   2.896   8.039  0.3216 -0.9347 -0.3585
10093SOL     OW31411   2.309   3.279   2.594  0.5745  0.0939  0.2470
10093SOL    HW131412   2.348   3.305   2.511 -0.6328 -2.1651 -1.1549
10093SOL    HW231413   2.283   3.188   2.581 -2.6224  0.5901  1.9677
10094SOL     OW31414   7.134   2.025   7.377  0.5949  0.3566  0.3025
10094SOL    HW131415   7.102   1.991   7.294 -1.2650  0.8452  0.7601
10094SOL    HW231416   7.217   2.067   7.356  1.2758 -1.4445 -0.8782
10095SOL     OW31417   4.683   2.327   0.165 -0.0592 -0.3890  0.6314
10095SOL    HW131418   4.630   2.319   0.086 -0.0921  0.7204  0.5310
10095SOL    HW231419   4.741   2.401   0.148  1.5767 -1.5718  0.7219
10096SOL     OW31420   0.796   6.205   7.828 -0.1099  0.1133  0.2258
10096SOL    HW131421   0.749   6.270   7.776  1.4998 -0.0008 -1.4817
10096SOL    HW231422   0.799   6.127   7.773  0.5758 -0.4194  0.9922
10097SOL     OW31423   3.558   3.363   3.218 -0.5873  0.1992  0.3689
10097SOL    HW131424   3.607   3.446   3.219 -2.0515  1.0972  0.8525
10097SOL    HW231425   3.496   3.373   3.146  0.2284 -1.1225 -0.5516
10098SOL     OW31426   3.180   6.057   5.572 -0.2705 -0.1752  0.0354
10098SOL    HW131427   3.119   6.120   5.534  0.0585  0.9218  1.2720
10098SOL    HW231428   3.129   5.976   5.577 -1.6701  0.7292  1.1042
10099SOL     OW31429   3.316   2.034   3.450 -0.3842  0.0922  0.0808
10099SOL    HW131430   3.244   2.097   3.445  0.1944  0.6681 -1.8737
10099SOL    HW231431   3.384   2.071   3.394  1.7601 -0.0899  2.3746
10100SOL     OW31432   6.478   3.925   5.260 -0.2828  0.2096  0.1936
10100SOL    HW131433   6.521   3.840   5.254  2.1966  1.3430  0.9072
10100SOL    HW231434   6.517   3.977   5.189 -1.7394  0.8145 -0.2188
10101SOL     OW31435   8.423   4.713   7.956 -0.2663  0.2370  0.7499
10101SOL    HW131436   8.515   4.728   7.937  0.2218 -2.6738  0.3482
10101SOL    HW231437   8.420   4.694   8.050 -0.0741 -1.5987  0.4292
10102SOL     OW31438   8.836   3.616   7.485 -0.2651 -0.5760 -0.3221
10102SOL    HW131439   8.894   3.558   7.435  1.3543 -0.3872  1.2387
10102SOL    HW231440   8.870   3.704   7.467  1.2925 -0.5776  2.0926
10103SOL     OW31441   0.214   5.409   1.452 -0.3350 -0.6514  0.2403
10103SOL    HW131442   0.201   5.422   1.358 -0.0802  1.5056  0.4499
10103SOL    HW231443   0.195   5.316   1.466 -0.8626 -0.9161 -1.8437
10104SOL     OW31444   2.524   6.543   6.263  0.1964 -0.5338  0.1770
10104SOL    HW131445   2.508   6.529   6.357  1.4155 -1.1751  0.3091
10104SOL    HW231446   2.574   6.625   6.259 -1.1802  0.3190 -0.0556
10105SOL     OW31447   0.791   6.553   5.161 -0.0074  0.6288 -0.1441
10105SOL    HW131448   0.698   6.577   5.151 -0.0588  0.5074  0.0464
10105SOL    HW231449   0.835   6.636   5.179 -0.0661  0.6997 -0.3243
10106SOL     OW31450   1.899   6.661   6.537 -0.0898 -0.0993 -0.3864
10106SOL    HW131451   1.910   6.683   6.445  1.1171  2.8851  0.3587
10106SOL    HW231452   1.989   6.656   6.572 -0.5382 -0.6138  0.7692
10107SOL     OW31453   5.686   2.860   4.196 -0.0062 -0.2807 -0.1768
10107SOL    HW131454   5.614   2.883   4.137 -0.2107 -0.4743 -0.0036
10107SOL    HW231455   5.709   2.771   4.172  0.1908 -0.2109 -0.2457
10108SOL     OW31456   6.013   4.812   4.495  0.6644  0.4041 -0.3287
10108SOL    HW131457   6.016   4.907   4.483  2.4485  0.2196 -1.8354
10108SOL    HW231458   6.024   4.799   4.589 -0.7628  1.6905  0.0554
10109SOL     OW31459   1.509   3.244   4.691 -0.6700  0.3928 -0.7718
10109SOL    HW131460   1.601   3.267   4.696 -0.6294  0.1677 -0.5002
10109SOL    HW231461   1.488   3.250   4.597 -0.0830 -0.6915 -0.9893
10110SOL     OW31462   8.779   2.742   2.138 -0.1034 -0.6817  0.6342
10110SOL    HW131463   8.872   2.734   2.117  0.2567  1.3263  1.2648
10110SOL    HW231464   8.778   2.782   2.225 -1.5603 -1.0295  0.7899
10111SOL     OW31465   7.133   3.375   4.404 -0.1112  0.0110 -0.2129
10111SOL    HW131466   7.094   3.463   4.408  0.3648  0.2224 -0.2145
10111SOL    HW231467   7.210   3.380   4.459  0.5090 -0.1056 -1.0520
10112SOL     OW31468   1.843   4.249   1.413 -0.0153 -0.1053 -0.2337
10112SOL    HW131469   1.785   4.304   1.360  0.4546  1.2679  0.6165
10112SOL    HW231470   1.923   4.300   1.422  0.3569 -0.8266  0.7808
10113SOL     OW31471   1.444   0.523   9.107 -0.1170 -0.3528 -0.0899
10113SOL    HW131472   1.405   0.493   9.024  0.7369 -2.2960  0.1405
10113SOL    HW231473   1.478   0.610   9.088 -1.3889 -0.0909 -1.3087
10114SOL     OW31474   5.313   8.462   0.200 -0.1650  0.2683 -0.7872
10114SOL    HW131475   5.351   8.550   0.200 -0.8460  0.6339  1.4736
10114SOL    HW231476   5.251   8.463   0.274  1.1305 -2.6596  0.4906
10115SOL     OW31477   4.669   2.132   0.779  0.2756  0.0667 -0.0023
10115SOL    HW131478   4.673   2.090   0.693  0.9645  0.2311 -0.0532
10115SOL    HW231479   4.689   2.062   0.841  1.0958  0.2320 -0.0666
10116SOL     OW31480   3.918   3.340   6.285 -0.2035 -0.4336 -0.3758
10116SOL    HW131481   3.991   3.335   6.346 -0.0934 -1.3339 -0.5642
10116SOL    HW231482   3.959   3.357   6.200 -0.4216  1.8840 -0.0989
10117SOL     OW31483   7.126   5.411   6.811  0.0280 -0.1650 -0.4447
10117SOL    HW131484   7.071   5.467   6.755 -0.3394 -0.0304  0.0380
10117SOL    HW231485   7.063   5.357   6.860  0.2967  0.2473  0.3824
10118SOL     OW31486   8.588   3.193   4.491 -0.1752 -0.5027 -0.5441
10118SOL    HW131487   8.494   3.184   4.504  0.0129  0.8180  2.6304
10118SOL    HW231488   8.627   3.121   4.541  0.5216  1.6442  2.2498
10119SOL     OW31489   3.982   4.319   6.924 -0.2515  0.5409  0.1720
10119SOL    HW131490   3.998   4.273   7.007  0.9305 -0.4574 -0.5825
10119SOL    HW231491   3.900   4.282   6.892 -0.4918  0.6231  0.6792
10120SOL     OW31492   2.364   0.962   8.380 -0.1155 -0.0139  0.1405
10120SOL    HW131493   2.401   0.891   8.327 -0.2125 -0.2999  0.4489
10120SOL    HW231494   2.367   0.928   8.470 -0.4966  0.2300  0.2460
10121SOL     OW31495   4.518   8.215   3.173 -0.0625  0.1682 -0.1584
10121SOL    HW131496   4.597   8.255   3.208  0.4663 -0.9963 -0.0187
10121SOL    HW231497   4.548   8.154   3.107 -0.8389 -0.3713 -0.0295
10122SOL     OW31498   0.104   6.853   4.800 -0.3921 -0.1738  0.4746
10122SOL    HW131499   0.140   6.765   4.800 -0.5443 -0.2567  1.6163
10122SOL    HW231500   0.012   6.841   4.823 -1.0438  0.0928 -1.7491
10123SOL     OW31501   0.039   1.051   5.675  0.3172 -0.5562  0.4383
10123SOL    HW131502   0.069   1.119   5.735 -0.8055 -0.7788  1.2907
10123SOL    HW231503  -0.025   1.000   5.726 -0.3993 -0.9757 -0.8262
10124SOL     OW31504   1.940   3.574   3.275 -0.6128  0.5752  0.2924
10124SOL    HW131505   2.024   3.552   3.236 -0.8811  0.8570 -0.4587
10124SOL    HW231506   1.877   3.568   3.203 -1.2079  0.5672  0.7971
10125SOL     OW31507   3.060   8.741   1.730 -0.0189  0.5064  0.1941
10125SOL    HW131508   3.010   8.664   1.757  1.8209 -0.7733  0.1465
10125SOL    HW231509   3.096   8.776   1.811  0.2742  0.5005  0.0667
10126SOL     OW31510   3.854   6.455   5.214  0.1313  1.0531 -0.0055
10126SOL    HW131511   3.882   6.499   5.134 -4.9231 -0.5946 -3.1451
10126SOL    HW231512   3.802   6.521   5.261  0.7109  1.1756  0.4814
10127SOL     OW31513   1.487   7.189   0.763 -0.2553  0.7267 -0.2520
10127SOL    HW131514   1.548   7.257   0.738  1.9703 -1.5796 -1.5826
10127SOL    HW231515   1.432   7.177   0.685  1.6453 -1.2212 -1.4156
10128SOL     OW31516   8.080   0.376   7.013 -0.2632  0.3636  0.3316
10128SOL    HW131517   8.091   0.302   6.954  0.4409  1.4333 -0.9469
10128SOL    HW231518   8.056   0.337   7.097  1.5938 -1.4075  0.1151
10129SOL     OW31519   7.476   0.085   3.399 -0.0466 -0.2373  0.2409
10129SOL    HW131520   7.419   0.025   3.350 -0.1958 -0.5954  0.8476
10129SOL    HW231521   7.545   0.029   3.435  1.3715  0.3498 -1.4378
10130SOL     OW31522   6.430   7.618   8.165 -0.2598 -0.5673 -0.4871
10130SOL    HW131523   6.428   7.607   8.260  0.2452  0.0415 -0.3986
10130SOL    HW231524   6.467   7.536   8.132 -0.5063 -0.8086 -0.1655
10131SOL     OW31525   1.002   2.033   4.093 -0.2371  0.2502  0.1404
10131SOL    HW131526   0.997   2.121   4.057 -1.9546 -0.1645 -0.7737
10131SOL    HW231527   1.006   1.976   4.016 -1.2951 -0.5482  0.6488
10132SOL     OW31528   4.004   3.876   0.460 -0.1821  0.3733 -0.2610
10132SOL    HW131529   3.953   3.818   0.516 -1.0964  0.9349 -0.4808
10132SOL    HW231530   3.990   3.842   0.372  1.6415 -0.7989 -0.1373
10133SOL     OW31531   5.563   5.380   8.951  0.2265 -0.0369  0.1764
10133SOL    HW131532   5.647   5.335   8.948  0.5124  0.5333 -0.5797
10133SOL    HW231533   5.558   5.427   8.868 -0.6087  0.3527  0.4397
10134SOL     OW31534   1.282   1.591   8.750 -0.1801  0.5090 -0.2469
10134SOL    HW131535   1.329   1.627   8.825  0.5906  1.9184 -1.3528
10134SOL    HW231536   1.347   1.540   8.703  0.1087  1.8409 -1.3698
10135SOL     OW31537   8.099   4.967   1.078 -0.5632  0.3220  0.0570
10135SOL    HW131538   8.108   5.012   0.994 -2.1190  1.6437  0.5349
10135SOL    HW231539   8.117   5.035   1.143 -2.0037  0.0286  0.8054
10136SOL     OW31540   4.992   1.935   3.190 -0.2759  0.6605  0.0439
10136SOL    HW131541   4.969   1.878   3.116  0.4968  0.5118 -0.0923
10136SOL    HW231542   5.033   1.877   3.253 -1.6956  0.6346  0.9791
10137SOL     OW31543   4.386   6.472   8.758 -0.2648  0.1077  0.2181
10137SOL    HW131544   4.329   6.404   8.722  0.4681  0.3790 -1.5788
10137SOL    HW231545   4.421   6.434   8.838 -0.6664 -1.2304 -0.2137
10138SOL     OW31546   6.711   6.363   6.542  0.3778 -0.0257  0.5532
10138SOL    HW131547   6.634   6.397   6.588  0.1844  0.2525  0.0326
10138SOL    HW231548   6.772   6.340   6.612 -0.2840 -0.5141  0.9885
10139SOL     OW31549   2.278   4.354   8.633 -0.2076 -0.7706 -0.5646
10139SOL    HW131550   2.361   4.392   8.660 -0.9090 -0.4086  1.1865
10139SOL    HW231551   2.248   4.304   8.709 -2.5577  0.7898 -0.3718
10140SOL     OW31552   0.439   6.442   8.387  0.5519 -0.1595 -0.2841
10140SOL    HW131553   0.419   6.520   8.334  1.2491 -0.2936 -0.7557
10140SOL    HW231554   0.377   6.446   8.460 -0.0033  0.3684 -0.7739
10141SOL     OW31555   6.909   2.364   3.337  0.3606  0.0971 -0.1816
10141SOL    HW131556   6.856   2.298   3.382  1.4566 -0.6476  0.0485
10141SOL    HW231557   6.956   2.409   3.406  0.7646  0.0983 -0.4541
10142SOL     OW31558   1.018   3.751   6.691  0.5121  0.0193  0.0282
10142SOL    HW131559   1.052   3.781   6.775 -1.9231  1.9361  0.4029
10142SOL    HW231560   0.995   3.831   6.644  0.1268 -1.0806 -1.7523
10143SOL     OW31561   2.442   8.252   8.763  0.2332 -0.6421 -0.1231
10143SOL    HW131562   2.447   8.339   8.802  0.3648 -1.0623  0.8317
10143SOL    HW231563   2.385   8.262   8.687  0.4119  0.3132 -0.1345
10144SOL     OW31564   2.937   5.275   8.253  0.2959 -0.0017  0.4043
10144SOL    HW131565   2.942   5.330   8.175 -1.0385 -0.3416  0.0545
10144SOL    HW231566   2.946   5.186   8.220 -0.4885 -0.1628  0.5985
10145SOL     OW31567   6.187   4.474   7.168  0.7359  0.4491  0.2970
10145SOL    HW131568   6.237   4.538   7.117 -0.9267  0.0183 -2.0442
10145SOL    HW231569   6.112   4.523   7.200  0.0546 -0.0218 -0.5315
10146SOL     OW31570   1.695   1.215   5.271  0.2306 -0.0169  0.2936
10146SOL    HW131571   1.684   1.187   5.362  1.2441 -0.4616  0.2902
10146SOL    HW231572   1.632   1.162   5.222 -0.5926  0.5005  0.7776
10147SOL     OW31573   1.678   1.899   7.441 -0.3740  0.3606 -0.1581
10147SOL    HW131574   1.606   1.947   7.400 -0.2279  0.0149 -0.8274
10147SOL    HW231575   1.739   1.968   7.467 -1.7662  0.8338  2.1358
10148SOL     OW31576   5.592   5.643   5.372  0.2146 -0.3110 -0.0258
10148SOL    HW131577   5.595   5.548   5.383  0.1719 -0.4451 -1.0386
10148SOL    HW231578   5.548   5.675   5.451  1.7333 -0.9581  1.1443
10149SOL     OW31579   1.386   6.111   4.674 -0.0996  0.0246 -0.3023
10149SOL    HW131580   1.299   6.150   4.665  0.0127  0.4830  0.5013
10149SOL    HW231581   1.369   6.017   4.680 -0.5728  0.1382  0.2543
10150SOL     OW31582   4.250   5.146   5.034 -0.0466  0.0757  0.0142
10150SOL    HW131583   4.301   5.132   4.954 -2.1748  1.3985 -1.6951
10150SOL    HW231584   4.308   5.197   5.091  1.6488 -1.2066 -0.4848
10151SOL     OW31585   8.395   0.369   0.669 -0.0811  0.4286 -0.4093
10151SOL    HW131586   8.395   0.400   0.759 -2.5278  1.5169 -0.6989
10151SOL    HW231587   8.470   0.413   0.629  1.1816 -0.2545  1.1019
10152SOL     OW31588   5.371   4.462   4.004  0.0543  0.7213  0.0651
10152SOL    HW131589   5.382   4.452   3.909 -2.3628 -2.6878 -0.0454
10152SOL    HW231590   5.285   4.502   4.014 -0.6697 -0.8947  0.7285
10153SOL     OW31591   1.549   6.968   7.222 -0.0280  0.2989 -0.0938
10153SOL    HW131592   1.490   7.014   7.162 -1.5169 -0.0911  1.0198
10153SOL    HW231593   1.617   6.932   7.165 -1.1155  0.3495 -1.4857
10154SOL     OW31594   8.878   5.360   6.588  0.2671  0.0141  0.3413
10154SOL    HW131595   8.883   5.314   6.672  0.9382  0.6660  0.6718
10154SOL    HW231596   8.798   5.412   6.593  0.2663 -0.0074  0.5472
10155SOL     OW31597   5.293   3.700   5.343  0.5881 -0.3363  0.2724
10155SOL    HW131598   5.340   3.782   5.326  0.4528 -0.3030  0.0532
10155SOL    HW231599   5.324   3.641   5.274 -1.0222  0.2259 -1.0070
10156SOL     OW31600   1.153   2.904   2.020 -0.3686  0.4688 -0.4563
10156SOL    HW131601   1.138   2.999   2.023  0.1920  0.6272 -1.7367
10156SOL    HW231602   1.242   2.895   1.986 -0.0182 -0.5186  0.6459
10157SOL     OW31603   2.631   0.216   1.623 -0.1202  0.1133  0.0072
10157SOL    HW131604   2.569   0.145   1.608  0.2463 -0.2689  0.3043
10157SOL    HW231605   2.634   0.264   1.540 -1.6372  0.7832  0.2947
10158SOL     OW31606   7.399   5.399   4.816  0.0893 -0.1987 -0.2882
10158SOL    HW131607   7.335   5.352   4.869 -1.2289  0.3755 -1.3203
10158SOL    HW231608   7.364   5.488   4.808  0.5627 -0.1021 -1.5948
10159SOL     OW31609   5.842   4.922   3.561  0.2961 -0.4104 -0.0702
10159SOL    HW131610   5.845   5.000   3.616 -0.7159  0.8075 -1.6411
10159SOL    HW231611   5.777   4.865   3.602  0.0108  0.2004  0.3319
10160SOL     OW31612   3.420   3.539   4.271  0.1439 -0.3461  0.4027
10160SOL    HW131613   3.463   3.596   4.207  1.0272 -0.4982  0.8360
10160SOL    HW231614   3.427   3.587   4.354  0.7878 -1.0102  0.7465
10161SOL     OW31615   3.946   6.783   0.685 -0.1438 -0.6339  0.1760
10161SOL    HW131616   3.905   6.839   0.618  1.5469 -0.6628 -0.9439
10161SOL    HW231617   4.027   6.829   0.708  1.6197 -2.8102 -1.2178
10162SOL     OW31618   3.521   7.360   4.582 -0.1481  0.3303 -0.2852
10162SOL    HW131619   3.465   7.298   4.535  0.2494 -0.2654 -0.0002
10162SOL    HW231620   3.530   7.322   4.669  2.2235 -0.6300 -0.8557
10163SOL     OW31621   8.952   5.014   3.455  0.0177  0.1124 -0.0025
10163SOL    HW131622   8.935   4.923   3.478  0.8670  0.4024  1.9337
10163SOL    HW231623   8.869   5.059   3.472  0.0795 -0.0220  0.6877
10164SOL     OW31624   7.782   9.028   4.421  0.1162  0.0911 -0.3843
10164SOL    HW131625   7.851   9.089   4.393  2.4139 -1.2096  1.9248
10164SOL    HW231626   7.803   8.946   4.377 -0.8663  0.0330 -0.7677
10165SOL     OW31627   7.053   6.494   8.045  0.2728 -0.3839 -0.4861
10165SOL    HW131628   6.991   6.505   8.117 -0.3404 -2.9829 -0.5191
10165SOL    HW231629   7.122   6.439   8.081  0.0514 -1.5685 -1.7940
10166SOL     OW31630   8.886   6.390   3.483 -0.1192  0.0778 -0.3235
10166SOL    HW131631   8.833   6.317   3.451  0.2148  0.0951 -0.9159
10166SOL    HW231632   8.913   6.438   3.405 -1.2777  1.5140  0.1102
10167SOL     OW31633   0.338   0.884   7.684  0.4891  0.5629  0.0618
10167SOL    HW131634   0.364   0.807   7.734 -1.2229 -0.1164 -0.0350
10167SOL    HW231635   0.339   0.855   7.593 -0.4597  0.5470  0.0484
10168SOL     OW31636   6.405   1.804   3.623  0.3376  0.0658 -0.4286
10168SOL    HW131637   6.412   1.887   3.576  1.8918  0.9756  1.2557
10168SOL    HW231638   6.310   1.790   3.634  0.0363  1.1650 -1.4755
10169SOL     OW31639   3.730   8.364   8.319 -0.3226  0.3874  0.4692
10169SOL    HW131640   3.739   8.341   8.226  0.0111 -0.5426  0.7121
10169SOL    HW231641   3.707   8.457   8.319  0.8993  0.7198 -0.5005
10170SOL     OW31642   3.247   8.096   8.471  0.0164  0.2499 -0.6821
10170SOL    HW131643   3.262   8.147   8.551 -1.9831  1.7498 -1.1741
10170SOL    HW231644   3.156   8.068   8.478  0.3486 -1.1432 -1.6361
10171SOL     OW31645   3.441   4.587   6.177 -0.1054 -0.1078  0.4513
10171SOL    HW131646   3.502   4.516   6.191  0.9798  0.4681 -1.0187
10171SOL    HW231647   3.374   4.576   6.244  0.5536 -1.9195  0.8537
10172SOL     OW31648   2.915   2.498   4.654 -0.7311 -0.2380 -0.0413
10172SOL    HW131649   2.907   2.515   4.560  1.4675 -0.6711 -0.3531
10172SOL    HW231650   2.992   2.547   4.681  0.4949 -2.5329  0.8816
10173SOL     OW31651   7.116   6.408   7.091 -0.4503 -0.4298 -0.4935
10173SOL    HW131652   7.165   6.466   7.150 -0.7834  0.6850 -1.2621
10173SOL    HW231653   7.171   6.402   7.013 -1.5211  0.9404 -1.4199
10174SOL     OW31654   2.085   6.692   9.071 -0.1443  0.6062  0.0400
10174SOL    HW131655   2.082   6.729   8.982  2.6584  0.0466 -0.3743
10174SOL    HW231656   2.167   6.642   9.073  0.7850  2.0222  3.4962
10175SOL     OW31657   9.072   4.674   4.521 -0.9338 -0.4710 -0.3574
10175SOL    HW131658   9.084   4.744   4.585 -0.4691 -0.9285  0.0595
10175SOL    HW231659   9.146   4.682   4.462 -0.2850 -1.2824  0.3288
10176SOL     OW31660   7.853   1.953   4.517 -0.2773  0.3039  0.0145
10176SOL    HW131661   7.945   1.966   4.492 -0.0092 -1.5885 -0.0640
10176SOL    HW231662   7.855   1.885   4.584 -1.6329  0.2676  0.0501
10177SOL     OW31663   0.565   3.375   3.673 -1.4715  0.0502 -0.1798
10177SOL    HW131664   0.556   3.430   3.750  2.4426  1.4039 -0.4681
10177SOL    HW231665   0.553   3.434   3.599  3.9008  1.2440 -0.5144
10178SOL     OW31666   2.870   8.555   7.721 -0.1779 -0.0495  0.4785
10178SOL    HW131667   2.892   8.631   7.775  0.6582  0.7208 -0.8726
10178SOL    HW231668   2.886   8.480   7.777 -0.4664  0.7390  1.6668
10179SOL     OW31669   0.467   7.918   8.647  0.3454  0.3983 -0.7235
10179SOL    HW131670   0.504   7.995   8.604  0.0786  0.8621 -0.1272
10179SOL    HW231671   0.522   7.905   8.724 -1.2163  1.6048  0.6449
10180SOL     OW31672   4.770   2.780   7.151 -0.0144  0.0403 -0.6953
10180SOL    HW131673   4.728   2.695   7.160  0.3235  0.0657  1.9350
10180SOL    HW231674   4.713   2.840   7.199  1.8173  0.4617  1.0757
10181SOL     OW31675   5.760   7.095   5.299  0.2196 -0.3619 -0.3286
10181SOL    HW131676   5.760   6.999   5.292  0.6718 -0.5312  1.5665
10181SOL    HW231677   5.851   7.120   5.290  0.2567 -0.2273  0.3628
10182SOL     OW31678   6.513   7.936   1.287 -0.1121  0.0244  0.0723
10182SOL    HW131679   6.513   8.021   1.243  0.4976  0.4024  0.7678
10182SOL    HW231680   6.460   7.880   1.232 -0.3689  0.8130 -0.4974
10183SOL     OW31681   6.544   8.283   9.025 -0.5300 -0.5014  0.3454
10183SOL    HW131682   6.637   8.288   9.048 -0.3058 -1.5292 -0.3098
10183SOL    HW231683   6.543   8.252   8.935 -1.5320 -1.2893  0.6127
10184SOL     OW31684   4.973   7.923   4.104 -0.6527 -0.4426  0.5300
10184SOL    HW131685   5.019   7.888   4.028  1.3783  0.4650  1.2423
10184SOL    HW231686   4.906   7.858   4.125 -0.1650 -1.4983 -1.0239
10185SOL     OW31687   3.722   5.545   6.487  0.8030  0.4975  0.0499
10185SOL    HW131688   3.711   5.520   6.395 -3.0331  2.5351 -0.2645
10185SOL    HW231689   3.658   5.491   6.534 -0.9116  2.8890  0.6532
10186SOL     OW31690   7.845   4.207   7.797 -0.0601  0.6364  0.3045
10186SOL    HW131691   7.914   4.203   7.864  0.4027  0.2706 -0.1769
10186SOL    HW231692   7.869   4.281   7.742  1.5010 -1.0325 -1.4553
10187SOL     OW31693   1.749   1.439   1.228 -0.5664 -0.1806  0.0062
10187SOL    HW131694   1.828   1.493   1.232 -1.4059  1.1312 -0.5402
10187SOL    HW231695   1.761   1.384   1.150 -0.8277  1.0873 -0.9603
10188SOL     OW31696   4.242   2.698   1.024 -0.3131  0.2539  0.3607
10188SOL    HW131697   4.172   2.733   0.969 -1.0410  0.9979  1.6972
10188SOL    HW231698   4.276   2.774   1.071  1.4780 -0.0823 -0.3183
10189SOL     OW31699   5.562   4.507   6.204 -0.2505 -0.2055  0.5284
10189SOL    HW131700   5.562   4.595   6.167  0.9035  0.6460  2.4116
10189SOL    HW231701   5.604   4.453   6.138  2.0365  1.3076  0.6398
10190SOL     OW31702   2.640   5.538   4.388 -0.4326  0.1003 -0.2740
10190SOL    HW131703   2.611   5.495   4.307  0.8287  0.3779 -0.9005
10190SOL    HW231704   2.563   5.535   4.445 -0.7827 -1.7574 -0.7880
10191SOL     OW31705   4.442   0.276   0.904 -0.2852 -0.1779 -0.4362
10191SOL    HW131706   4.426   0.370   0.907  0.2664 -0.1000  0.6756
10191SOL    HW231707   4.523   0.264   0.954 -0.8586 -1.3482  0.2586
10192SOL     OW31708   5.552   2.434   6.616  0.4779 -0.0644  0.3202
10192SOL    HW131709   5.561   2.522   6.582  0.9287  0.3696  1.5016
10192SOL    HW231710   5.588   2.377   6.547  0.9826  0.7362 -0.0848
10193SOL     OW31711   9.019   6.292   5.121  0.2588  0.6858 -0.0499
10193SOL    HW131712   8.933   6.308   5.081  1.0331  0.2614 -2.0057
10193SOL    HW231713   9.047   6.208   5.084  1.4855  0.7879  0.6008
10194SOL     OW31714   7.632   2.078   4.386 -0.0601 -0.3757 -0.3969
10194SOL    HW131715   7.673   1.993   4.400 -1.1069 -0.6464  1.3760
10194SOL    HW231716   7.546   2.057   4.348  0.3971  0.0156 -1.6673
10195SOL     OW31717   4.269   3.660   2.744  0.1769  0.2874  0.0198
10195SOL    HW131718   4.218   3.649   2.663  1.2733 -0.1721 -0.6270
10195SOL    HW231719   4.289   3.571   2.772 -0.0176  0.4501  0.6931
10196SOL     OW31720   3.236   3.950   4.719 -0.1657  0.1379 -0.2261
10196SOL    HW131721   3.328   3.924   4.720 -0.3458 -0.7648 -2.0543
10196SOL    HW231722   3.237   4.042   4.744  1.0456 -0.2694  1.3516
10197SOL     OW31723   0.999   3.793   2.364 -0.0500 -0.2842 -0.3552
10197SOL    HW131724   0.999   3.712   2.314 -0.4179  0.6658 -1.9795
10197SOL    HW231725   1.054   3.853   2.312  1.4832  0.0677  1.5764
10198SOL     OW31726   0.443   4.029   8.840 -0.2370  0.2795 -0.5435
10198SOL    HW131727   0.506   4.100   8.857 -0.2331  0.7550 -2.2943
10198SOL    HW231728   0.379   4.068   8.780 -0.2916 -1.1576 -1.4743
10199SOL     OW31729   6.797   3.901   6.339 -0.5581  0.1113 -0.0673
10199SOL    HW131730   6.834   3.871   6.422 -1.9100 -1.0326  0.1427
10199SOL    HW231731   6.821   3.993   6.334  2.4106 -0.5541 -0.0030
10200SOL     OW31732   5.988   5.054   0.553 -0.4550 -0.6241 -0.1768
10200SOL    HW131733   6.055   4.985   0.544 -0.5634 -0.9053  1.0539
10200SOL    HW231734   6.037   5.136   0.548  0.4025 -0.8073  3.0648
10201SOL     OW31735   1.802   8.811   8.635 -0.3637 -0.2200  0.3724
10201SOL    HW131736   1.790   8.790   8.728 -0.9663 -1.4143  0.0420
10201SOL    HW231737   1.841   8.732   8.597 -1.5178 -0.3180 -0.6757
10202SOL     OW31738   3.423   3.271   6.309 -0.0225  0.0865  0.4531
10202SOL    HW131739   3.398   3.254   6.400  1.0344 -0.6078  0.6388
10202SOL    HW231740   3.519   3.267   6.310 -0.0256 -0.8227 -0.8515
10203SOL     OW31741   8.017   8.459   1.084  0.0121  0.1213  0.2631
10203SOL    HW131742   8.078   8.484   1.015 -2.2226  1.2438 -1.4269
10203SOL    HW231743   8.054   8.378   1.120  1.1325 -0.6949 -2.4360
10204SOL     OW31744   6.657   1.677   2.141 -0.6731  0.5422 -0.6419
10204SOL    HW131745   6.714   1.678   2.217 -0.2146  0.0462 -0.9739
10204SOL    HW231746   6.592   1.745   2.159  0.5782  1.8012 -0.6922
10205SOL     OW31747   2.807   4.918   7.649 -0.1594 -0.2578 -0.0416
10205SOL    HW131748   2.761   5.000   7.662  1.0742  0.6023 -0.8516
10205SOL    HW231749   2.802   4.902   7.555  0.8767 -0.3155 -0.1009
10206SOL     OW31750   1.711   0.500   2.471 -0.0142 -0.0980  0.1885
10206SOL    HW131751   1.637   0.545   2.513 -0.6428 -1.0718  0.1391
10206SOL    HW231752   1.695   0.510   2.378  0.8908  1.2475  0.1382
10207SOL     OW31753   5.179   1.821   8.625 -0.0478  0.6599 -0.2031
10207SOL    HW131754   5.113   1.887   8.645 -0.7403 -0.2668  0.6748
10207SOL    HW231755   5.230   1.859   8.554 -0.3098  2.2124  0.3968
10208SOL     OW31756   6.095   8.883   1.169 -0.5393 -0.0143  0.6661
10208SOL    HW131757   6.117   8.973   1.144  1.2742 -0.3255  0.9966
10208SOL    HW231758   6.167   8.856   1.226  0.9206 -2.8339 -2.1687
10209SOL     OW31759   2.269   5.358   7.998  0.2185  0.0143  0.3234
10209SOL    HW131760   2.234   5.383   8.084  0.4146  1.1883  0.0785
10209SOL    HW231761   2.283   5.441   7.953 -1.3069 -0.6198 -1.4206
10210SOL     OW31762   7.213   2.079   6.051  0.9764 -0.3565  0.5130
10210SOL    HW131763   7.134   2.127   6.026  0.6610 -1.4183 -0.5954
10210SOL    HW231764   7.192   2.041   6.137  0.0182 -1.1848 -0.0707
10211SOL     OW31765   1.410   1.181   7.711 -0.5065 -0.0364 -0.1785
10211SOL    HW131766   1.371   1.268   7.718  1.1106  0.6118  1.7000
10211SOL    HW231767   1.487   1.193   7.655 -0.4048 -0.2891 -0.0990
10212SOL     OW31768   5.141   3.265   3.782  0.7247 -0.0716 -0.5705
10212SOL    HW131769   5.143   3.214   3.701 -0.3206 -0.2005 -0.5314
10212SOL    HW231770   5.141   3.356   3.752  1.3907 -0.0969 -0.6739
10213SOL     OW31771   4.789   3.240   0.771 -0.2975  0.0873 -0.2926
10213SOL    HW131772   4.881   3.219   0.755  0.1788  0.9287  1.1986
10213SOL    HW231773   4.782   3.333   0.751 -1.0355 -0.1498 -1.2011
10214SOL     OW31774   4.634   5.309   8.199  0.3395  0.4404 -0.3314
10214SOL    HW131775   4.683   5.228   8.185 -1.0027 -0.4047 -0.3364
10214SOL    HW231776   4.658   5.364   8.124  1.1883  0.0137 -0.3852
10215SOL     OW31777   4.671   7.983   4.698 -0.3892  0.4737  0.0311
10215SOL    HW131778   4.597   7.923   4.689  0.2734 -0.3041 -0.3483
10215SOL    HW231779   4.748   7.927   4.691  0.2481  1.3836 -0.3727
10216SOL     OW31780   0.207   6.658   7.291 -0.3656  0.5260 -0.0760
10216SOL    HW131781   0.139   6.694   7.348 -2.2040 -2.7434  0.0627
10216SOL    HW231782   0.248   6.589   7.344  1.1491  0.5545 -1.1466
10217SOL     OW31783   3.553   0.610   7.179 -0.4206 -0.0286 -0.4034
10217SOL    HW131784   3.489   0.540   7.184  0.2477 -0.5611  1.8701
10217SOL    HW231785   3.570   0.621   7.085 -0.7381 -2.7213 -0.8579
10218SOL     OW31786   4.035   0.152   4.304 -0.2382  0.4295 -0.4534
10218SOL    HW131787   4.003   0.062   4.316  0.7999  0.0191 -0.6013
10218SOL    HW231788   4.068   0.177   4.390  2.4443 -0.5785 -1.0763
10219SOL     OW31789   6.332   6.762   2.407 -0.1335 -0.2740  0.2392
10219SOL    HW131790   6.329   6.857   2.391  2.0971 -0.1404  0.2426
10219SOL    HW231791   6.298   6.723   2.326 -0.3593  0.5124 -0.0565
10220SOL     OW31792   1.740   5.237   2.029 -0.1890  0.1518 -0.0501
10220SOL    HW131793   1.668   5.297   2.047 -2.6665 -2.4587 -0.5812
10220SOL    HW231794   1.707   5.178   1.960  1.8663 -2.1061  0.7258
10221SOL     OW31795   3.369   7.141   8.391  0.7554 -0.1450 -0.5540
10221SOL    HW131796   3.313   7.160   8.316 -0.2434 -0.9869 -0.0393
10221SOL    HW231797   3.452   7.186   8.371  0.6888 -0.7600 -2.3897
10222SOL     OW31798   5.847   1.376   8.504 -0.9853 -0.3688  0.3923
10222SOL    HW131799   5.875   1.312   8.438  0.3557  0.1902  0.4027
10222SOL    HW231800   5.927   1.421   8.530 -2.0034  1.9263 -0.2372
10223SOL     OW31801   2.921   1.967   7.559 -0.1339  0.2591 -0.1214
10223SOL    HW131802   2.917   1.966   7.464 -3.1152  0.1092 -0.0792
10223SOL    HW231803   2.898   1.878   7.585 -0.7856  0.6665  0.7504
10224SOL     OW31804   2.721   6.969   5.662  0.3677  0.2560  0.0202
10224SOL    HW131805   2.715   6.941   5.753  1.1742 -0.4648 -0.1306
10224SOL    HW231806   2.661   6.912   5.614 -1.2103  1.6202  0.2763
10225SOL     OW31807   7.508   5.568   7.588 -0.3239  0.4708 -0.3797
10225SOL    HW131808   7.475   5.600   7.671 -0.7009  2.4260 -1.2296
10225SOL    HW231809   7.501   5.643   7.528 -1.7220 -1.3350 -2.6485
10226SOL     OW31810   8.084   3.376   3.254 -0.4975  0.7025  0.1333
10226SOL    HW131811   8.036   3.294   3.248 -0.8921  0.7813  1.7675
10226SOL    HW231812   8.017   3.443   3.270 -0.0799  1.1897 -0.1031
10227SOL     OW31813   7.909   7.793   5.357  0.5003 -0.1874  0.2877
10227SOL    HW131814   7.899   7.731   5.429  1.0912 -0.1999  0.3652
10227SOL    HW231815   7.965   7.862   5.392 -1.3015  1.1536  0.6707
10228SOL     OW31816   2.238   0.728   6.778 -0.3296  0.1664 -0.0343
10228SOL    HW131817   2.187   0.666   6.725 -0.8645  0.2027  0.4336
10228SOL    HW231818   2.236   0.692   6.866  2.0052 -0.8255 -0.2997
10229SOL     OW31819   8.922   6.305   8.498 -0.3550 -0.0292 -0.0714
10229SOL    HW131820   8.866   6.271   8.428 -1.3980  0.8983  0.2856
10229SOL    HW231821   8.913   6.241   8.568  1.1072 -1.2414 -0.9297
10230SOL     OW31822   1.727   5.736   2.726 -0.6256  0.2687 -0.0246
10230SOL    HW131823   1.691   5.649   2.747  0.1591 -0.4404 -1.4338
10230SOL    HW231824   1.805   5.743   2.782 -0.2247 -0.3180 -0.4848
10231SOL     OW31825   2.194   2.445   3.613 -0.1772  0.4266  0.2301
10231SOL    HW131826   2.134   2.372   3.597  1.1254 -0.8624  0.9316
10231SOL    HW231827   2.251   2.414   3.684  1.2936  1.5814 -0.3837
10232SOL     OW31828   7.832   4.889   1.109 -0.6402  0.3765  0.0900
10232SOL    HW131829   7.844   4.976   1.070  0.2300  1.0640  1.7964
10232SOL    HW231830   7.921   4.855   1.118 -0.8987 -0.1767  0.5607
10233SOL     OW31831   4.235   5.962   2.307 -0.1589 -0.8562 -0.5307
10233SOL    HW131832   4.284   6.027   2.256  0.2735 -1.4142 -0.8449
10233SOL    HW231833   4.208   6.008   2.386  2.2486 -0.9531  0.4130
10234SOL     OW31834   3.723   7.830   8.470 -0.1332  0.0258  0.0761
10234SOL    HW131835   3.681   7.897   8.416 -3.2304 -2.3304 -0.7312
10234SOL    HW231836   3.722   7.865   8.559 -2.2325  0.8476 -0.2227
10235SOL     OW31837   8.419   1.478   8.259  0.4283 -0.4321 -0.0083
10235SOL    HW131838   8.452   1.464   8.170 -0.9673 -0.9850 -0.4731
10235SOL    HW231839   8.497   1.499   8.311  1.1122  1.2123 -1.6049
10236SOL     OW31840   8.274   3.760   4.019 -0.1709  0.2630  0.0063
10236SOL    HW131841   8.195   3.715   3.989  0.1061 -0.1078 -0.1908
10236SOL    HW231842   8.313   3.699   4.082  0.2255  0.2125 -0.2846
10237SOL     OW31843   0.200   7.747   6.451  0.0911  0.1351 -0.1774
10237SOL    HW131844   0.150   7.675   6.412  0.8865  0.0068 -1.0098
10237SOL    HW231845   0.282   7.749   6.401  1.5703 -0.6037  2.0272
10238SOL     OW31846   8.721   3.560   4.156  0.0009  0.3577 -0.3380
10238SOL    HW131847   8.680   3.480   4.188 -1.3571  0.3000 -2.0935
10238SOL    HW231848   8.801   3.530   4.112 -0.2150  0.0235 -0.5053
10239SOL     OW31849   1.093   8.480   1.917  0.6885 -0.2646 -0.0541
10239SOL    HW131850   1.129   8.552   1.864  0.0425 -1.0876 -1.6842
10239SOL    HW231851   1.032   8.436   1.859  0.4446 -1.6374  1.1904
10240SOL     OW31852   1.878   2.368   0.090  0.1197 -0.3267 -0.0762
10240SOL    HW131853   1.797   2.319   0.079 -0.1162 -0.3446  1.5253
10240SOL    HW231854   1.946   2.301   0.101  0.8052 -0.3992 -3.5185
10241SOL     OW31855   0.298   2.857   1.885 -0.1647 -0.4231 -0.5101
10241SOL    HW131856   0.226   2.857   1.822  0.1945  2.2827 -1.0253
10241SOL    HW231857   0.277   2.927   1.946  1.9912  0.3969 -0.6394
10242SOL     OW31858   5.208   3.530   3.801  0.2208  0.0673  0.4225
10242SOL    HW131859   5.169   3.569   3.879  0.5112  0.7296  0.2487
10242SOL    HW231860   5.276   3.592   3.775 -1.5118  1.2022 -1.8315
10243SOL     OW31861   0.195   5.681   7.786 -0.5491  0.3160  0.6345
10243SOL    HW131862   0.156   5.595   7.800 -0.6680 -0.0164 -1.3990
10243SOL    HW231863   0.151   5.739   7.849 -2.3521 -0.5994  0.2672
10244SOL     OW31864   4.067   7.736   0.767 -0.3694  0.0617  0.4361
10244SOL    HW131865   4.068   7.644   0.792 -2.6818 -0.0253  0.4342
10244SOL    HW231866   4.029   7.736   0.678 -1.6239  1.0541  0.9294
10245SOL     OW31867   4.585   7.735   5.813 -0.0804  0.5705  0.1998
10245SOL    HW131868   4.584   7.783   5.895  3.1201  0.4442  0.4593
10245SOL    HW231869   4.653   7.778   5.761 -0.4535 -0.7488 -1.4738
10246SOL     OW31870   1.116   6.327   2.091  0.4872  0.4057  0.2547
10246SOL    HW131871   1.196   6.274   2.096 -1.3357 -2.4630  1.3592
10246SOL    HW231872   1.070   6.294   2.014  0.4714  2.3036 -0.6000
10247SOL     OW31873   2.700   2.139   7.625 -0.1469 -0.0889  0.3557
10247SOL    HW131874   2.778   2.084   7.617 -0.0618  0.1245 -0.2701
10247SOL    HW231875   2.687   2.147   7.720  0.8426  0.2225  0.4788
10248SOL     OW31876   3.714   2.512   1.019  0.6023 -0.1185  0.4398
10248SOL    HW131877   3.799   2.468   1.006  0.7756  0.4933 -0.6029
10248SOL    HW231878   3.656   2.469   0.956  0.3329 -0.0149  0.6195
10249SOL     OW31879   4.717   1.221   0.084 -0.0969  0.2500 -1.0103
10249SOL    HW131880   4.765   1.226   0.002 -0.3723  1.2929 -1.1172
10249SOL    HW231881   4.781   1.246   0.151 -0.1400  0.3726 -1.0146
10250SOL     OW31882   8.527   3.447   0.815  0.0063 -0.0532 -0.5757
10250SOL    HW131883   8.526   3.352   0.827  0.0782  0.2096  1.8385
10250SOL    HW231884   8.468   3.481   0.882 -1.5566  1.5354 -2.6351
10251SOL     OW31885   0.467   9.113   4.979  0.0670  0.1615 -0.1693
10251SOL    HW131886   0.459   9.136   5.071  1.2701  0.6709 -0.1755
10251SOL    HW231887   0.396   9.160   4.936  0.3800  1.1019  0.3102
10252SOL     OW31888   5.205   4.632   5.194  0.0496  0.1110 -0.8059
10252SOL    HW131889   5.215   4.625   5.289  0.2083  0.4244 -0.7953
10252SOL    HW231890   5.125   4.683   5.181  0.3672  0.6238 -0.8217
10253SOL     OW31891   4.896   7.623   8.351  0.1295 -0.1751  0.4251
10253SOL    HW131892   4.981   7.653   8.384  0.3869  1.2287 -1.3214
10253SOL    HW231893   4.877   7.543   8.401  0.7200  1.4198  3.3966
10254SOL     OW31894   0.365   4.587   0.766  0.3419  0.1774 -0.2075
10254SOL    HW131895   0.436   4.623   0.818  0.0590 -3.0661  2.8006
10254SOL    HW231896   0.287   4.634   0.796  0.3039 -1.1013  1.8900
10255SOL     OW31897   7.789   1.524   4.933 -0.9780  0.2726 -0.2808
10255SOL    HW131898   7.726   1.518   4.861  0.5191 -0.1910 -1.6095
10255SOL    HW231899   7.776   1.611   4.970 -0.4810  1.3254 -2.4079
10256SOL     OW31900   0.037   8.998   9.050  0.1503  0.0252 -0.2965
10256SOL    HW131901   0.101   8.951   8.997  0.6950 -1.8418  1.8127
10256SOL    HW231902   0.020   8.939   9.124 -0.9423  2.2024  1.3219
10257SOL     OW31903   6.844   3.755   8.097  0.5583 -0.4453 -0.1458
10257SOL    HW131904   6.826   3.710   8.179 -0.9814  0.6442  0.1709
10257SOL    HW231905   6.802   3.700   8.030  2.1415 -1.5325 -0.2861
10258SOL     OW31906   1.363   5.863   2.296 -0.6733  0.2506 -0.3081
10258SOL    HW131907   1.373   5.822   2.210 -1.4562  0.7483 -0.6532
10258SOL    HW231908   1.292   5.814   2.337 -0.4937  0.2002 -0.0572
10259SOL     OW31909   2.591   0.245   4.809  0.0917  0.3025  0.4922
10259SOL    HW131910   2.624   0.165   4.766  0.9626 -0.4594  2.4488
10259SOL    HW231911   2.586   0.222   4.902  2.4984  3.1760  1.4862
10260SOL     OW31912   5.379   4.241   8.031 -0.2883  0.0688 -0.0381
10260SOL    HW131913   5.309   4.183   8.061 -0.3562  1.0177  1.7606
10260SOL    HW231914   5.449   4.230   8.096  0.6450  0.2723 -0.9694
10261SOL     OW31915   3.162   7.148   3.663 -0.1002  0.0801  0.5742
10261SOL    HW131916   3.069   7.129   3.652 -0.1746  0.5851  0.3181
10261SOL    HW231917   3.164   7.228   3.715  0.2190 -1.2488  2.7497
10262SOL     OW31918   3.400   0.373   8.007 -0.0734  0.2045  0.2851
10262SOL    HW131919   3.424   0.373   7.914 -0.9501 -1.7621  0.0139
10262SOL    HW231920   3.477   0.408   8.051 -0.7109  4.2541 -1.3331
10263SOL     OW31921   6.234   3.762   0.986 -0.1770  0.1113  0.5481
10263SOL    HW131922   6.226   3.851   1.018 -0.8347  0.7233 -1.1912
10263SOL    HW231923   6.161   3.715   1.027 -0.8548  0.8075  0.1555
10264SOL     OW31924   4.896   7.009   7.395 -0.0268  0.7848  0.0376
10264SOL    HW131925   4.933   6.986   7.310 -1.1173 -1.4658  0.0966
10264SOL    HW231926   4.836   6.937   7.415 -0.4767  1.7126  2.3023
10265SOL     OW31927   1.894   3.348   4.203 -0.0232  0.1268  0.1973
10265SOL    HW131928   1.828   3.287   4.236 -0.4547  0.6617  0.3400
10265SOL    HW231929   1.967   3.292   4.178 -1.1762 -0.6663 -1.6084
10266SOL     OW31930   8.856   4.084   4.284 -0.4851 -0.6927 -0.7088
10266SOL    HW131931   8.927   4.032   4.321 -0.0781 -0.2066 -0.7923
10266SOL    HW231932   8.809   4.024   4.226 -0.0120 -0.9609 -0.8155
10267SOL     OW31933   8.689   6.857   8.324 -0.4602 -0.4578 -0.2377
10267SOL    HW131934   8.701   6.859   8.229 -0.1363  0.7243 -0.1771
10267SOL    HW231935   8.645   6.773   8.341  0.6957 -1.3065 -1.2842
10268SOL     OW31936   0.912   5.759   7.930  0.1367 -0.1053 -0.0802
10268SOL    HW131937   0.960   5.782   8.009  0.7451 -1.2548 -0.0855
10268SOL    HW231938   0.872   5.674   7.950 -1.9274  0.8304 -0.0795
10269SOL     OW31939   2.089   6.298   4.749  0.1886 -0.1546 -0.1098
10269SOL    HW131940   2.141   6.220   4.731  0.2157  0.1070 -1.2934
10269SOL    HW231941   2.008   6.265   4.788  0.4924 -0.7082  0.0619
10270SOL     OW31942   8.040   0.225   1.540 -0.6218 -0.1762  0.0940
10270SOL    HW131943   8.065   0.134   1.528  1.2632  0.0840  1.5737
10270SOL    HW231944   7.993   0.248   1.460 -0.5942 -2.2406 -0.5715
10271SOL     OW31945   5.733   5.122   4.636 -0.3907  0.1649  0.4179
10271SOL    HW131946   5.801   5.139   4.700 -1.2982 -0.3698  1.5545
10271SOL    HW231947   5.687   5.044   4.669 -1.1008  0.0827 -0.6915
10272SOL     OW31948   1.971   5.421   4.676 -0.0184 -0.8199  0.1340
10272SOL    HW131949   1.934   5.397   4.592  1.5967 -2.3161 -0.2066
10272SOL    HW231950   1.995   5.338   4.717  1.4395 -0.0293  0.9978
10273SOL     OW31951   1.804   1.195   2.563 -0.5696  0.3745 -0.1772
10273SOL    HW131952   1.847   1.110   2.563 -0.5015  0.3645 -2.5292
10273SOL    HW231953   1.717   1.178   2.599  0.6362  0.0751  2.9303
10274SOL     OW31954   0.290   3.244   5.111  0.0305 -0.5635 -0.4308
10274SOL    HW131955   0.380   3.250   5.144 -0.2278  1.3706  0.0162
10274SOL    HW231956   0.235   3.242   5.190 -0.3627 -1.2981 -0.7093
10275SOL     OW31957   7.179   6.329   8.240  0.1196  0.3662  0.2449
10275SOL    HW131958   7.264   6.347   8.201  0.1181 -0.2406 -0.0456
10275SOL    HW231959   7.191   6.246   8.287 -0.8026 -0.7464 -1.3835
10276SOL     OW31960   1.785   6.535   6.213  0.2862 -0.1719  0.6002
10276SOL    HW131961   1.824   6.468   6.268  0.6267 -1.0857 -0.6892
10276SOL    HW231962   1.695   6.543   6.245  0.2527 -1.2339  0.8094
10277SOL     OW31963   5.921   6.567   5.021 -0.1400  0.1918  0.4146
10277SOL    HW131964   5.828   6.582   5.038 -0.0988  0.2555  0.5906
10277SOL    HW231965   5.924   6.490   4.966 -0.2599 -0.2659  1.0392
10278SOL     OW31966   1.337   5.636   7.610 -0.3635  0.4638  0.3269
10278SOL    HW131967   1.319   5.714   7.663  0.5188 -0.8787  2.7773
10278SOL    HW231968   1.265   5.576   7.632 -0.9377  0.4705 -1.4044
10279SOL     OW31969   3.353   5.428   4.086  0.3248 -0.3816 -0.3058
10279SOL    HW131970   3.269   5.385   4.102  0.1241 -0.4955 -1.5866
10279SOL    HW231971   3.343   5.515   4.126  0.0971 -0.8632  0.7210
10280SOL     OW31972   2.076   5.772   5.277  0.0720  0.3938 -0.2040
10280SOL    HW131973   2.068   5.697   5.218 -1.3881  0.6848 -0.4061
10280SOL    HW231974   2.096   5.733   5.362 -0.6697 -0.2348 -0.3060
10281SOL     OW31975   2.379   4.955   6.355 -0.0310  0.5166 -0.0967
10281SOL    HW131976   2.294   4.988   6.327  0.4414  2.5985  0.6753
10281SOL    HW231977   2.432   4.953   6.275 -0.8135 -0.9530 -0.6078
10282SOL     OW31978   2.398   6.124   2.399 -0.4782 -0.0981  0.1399
10282SOL    HW131979   2.478   6.164   2.365 -1.5621  2.2671  0.1965
10282SOL    HW231980   2.341   6.115   2.322 -0.9976  0.3857  0.4623
10283SOL     OW31981   0.700   7.792   0.109  0.1834 -0.1060 -0.6503
10283SOL    HW131982   0.615   7.791   0.066  0.8724  0.6524 -2.0666
10283SOL    HW231983   0.707   7.706   0.151 -1.2723 -0.1679 -0.5095
10284SOL     OW31984   2.556   2.845   1.345  0.5826 -0.0195 -0.2785
10284SOL    HW131985   2.523   2.933   1.330 -0.7680 -0.1560  1.5725
10284SOL    HW231986   2.531   2.796   1.266  1.1392  1.1661 -1.2180
10285SOL     OW31987   0.476   8.062   5.895  0.0411 -0.0005 -0.2437
10285SOL    HW131988   0.561   8.101   5.875  0.7935 -2.3252 -2.0900
10285SOL    HW231989   0.412   8.126   5.865  1.1883 -0.1889 -3.4968
10286SOL     OW31990   6.067   3.249   6.139 -0.1543 -0.3034 -0.0617
10286SOL    HW131991   6.013   3.281   6.211  1.1532 -0.5229  1.0427
10286SOL    HW231992   6.157   3.256   6.171  0.4325 -0.7167 -1.5505
10287SOL     OW31993   7.594   3.688   2.594  0.3979  0.0576  0.3196
10287SOL    HW131994   7.568   3.625   2.527  0.0949  1.0807 -0.5529
10287SOL    HW231995   7.542   3.665   2.671  1.1135 -1.4412  0.3854
10288SOL     OW31996   0.385   0.027   1.985  0.1421 -0.3228  0.1691
10288SOL    HW131997   0.391   0.071   1.900  0.6917 -0.2855  0.2242
10288SOL    HW231998   0.418   0.092   2.048 -2.8744  0.7509  0.8170
10289SOL     OW31999   6.725   1.740   1.781 -0.3976  0.0462  0.0616
10289SOL    HW132000   6.773   1.736   1.698 -0.9181  3.0902 -0.4828
10289SOL    HW232001   6.773   1.682   1.840  0.8636 -1.0090 -1.9229
10290SOL     OW32002   1.800   1.705   1.762  0.1932  0.6110  0.3486
10290SOL    HW132003   1.816   1.613   1.741 -0.9943 -0.2451  2.7973
10290SOL    HW232004   1.796   1.749   1.677  2.2066 -1.3064 -0.8414
10291SOL     OW32005   8.399   8.875   4.218  0.9242 -0.1359 -0.2521
10291SOL    HW132006   8.392   8.811   4.147  0.5379  2.2417 -2.5167
10291SOL    HW232007   8.308   8.894   4.242  1.0525 -0.8560  0.8553
10292SOL     OW32008   1.308   8.946   2.323  0.6566 -0.3547 -0.1261
10292SOL    HW132009   1.396   8.970   2.353 -0.0549 -0.1043  1.9050
10292SOL    HW232010   1.303   8.852   2.336  0.1455 -0.1653  1.2103
10293SOL     OW32011   7.640   7.465   0.925  0.0196  0.1052 -0.8241
10293SOL    HW132012   7.597   7.380   0.939  1.3972 -0.3579  1.0480
10293SOL    HW232013   7.723   7.443   0.884  0.3552  0.5397 -0.3872
10294SOL     OW32014   6.280   7.127   8.922 -0.3211 -0.3265 -0.2463
10294SOL    HW132015   6.243   7.103   8.837  0.8380 -0.2307 -0.8071
10294SOL    HW232016   6.287   7.044   8.970  1.6236 -0.8651 -1.3409
10295SOL     OW32017   5.049   8.817   5.295  0.1085 -0.4785  0.0582
10295SOL    HW132018   5.136   8.795   5.329 -0.0880 -2.6418 -0.6553
10295SOL    HW232019   5.006   8.865   5.367  1.6359  0.0163  0.6693
10296SOL     OW32020   4.446   0.321   6.683 -0.0150 -0.2189  0.0552
10296SOL    HW132021   4.377   0.375   6.724 -1.0996  0.3191 -2.2914
10296SOL    HW232022   4.474   0.372   6.607  1.2897 -1.5377 -0.3926
10297SOL     OW32023   7.568   0.023   2.179  0.6694 -0.0858  0.8426
10297SOL    HW132024   7.647  -0.032   2.177 -0.2667 -1.5045 -1.6924
10297SOL    HW232025   7.568   0.068   2.095 -2.0465 -1.4857 -0.0160
10298SOL     OW32026   2.048   4.705   6.316  1.2419 -0.2913  0.0950
10298SOL    HW132027   2.034   4.786   6.267 -0.1598 -0.6826 -0.1937
10298SOL    HW232028   2.060   4.733   6.407  4.2411  0.4691 -0.4358
10299SOL     OW32029   2.146   1.708   8.090  0.6055  0.2032  0.2011
10299SOL    HW132030   2.086   1.645   8.048 -0.7827  0.5169  1.6244
10299SOL    HW232031   2.102   1.793   8.080  1.2339  0.5674  0.5159
10300SOL     OW32032   1.420   8.199   3.282 -0.0405 -0.2530 -0.2423
10300SOL    HW132033   1.451   8.261   3.348 -1.2597 -0.2281  0.3421
10300SOL    HW232034   1.453   8.234   3.199 -0.4182  1.0138  0.1106
10301SOL     OW32035   0.168   8.912   0.912  0.5806 -0.1067  0.3259
10301SOL    HW132036   0.212   8.997   0.915  1.7538 -0.6395 -0.8460
10301SOL    HW232037   0.080   8.931   0.879  0.8218  0.6597  0.1002
10302SOL     OW32038   7.093   3.556   3.186 -0.1675 -0.3635 -0.2604
10302SOL    HW132039   7.095   3.462   3.206  0.4678 -0.9190 -2.6505
10302SOL    HW232040   7.001   3.574   3.165 -0.6420  0.0090  1.8246
10303SOL     OW32041   1.843   8.364   4.769 -0.0039  0.1954 -0.2635
10303SOL    HW132042   1.916   8.415   4.805 -0.5423  1.0278 -0.3065
10303SOL    HW232043   1.854   8.276   4.805  2.5043 -0.4522 -2.3033
10304SOL     OW32044   4.824   7.227   7.227 -0.0405 -0.5669 -0.1213
10304SOL    HW132045   4.843   7.164   7.296  2.2772  0.1722 -0.0154
10304SOL    HW232046   4.870   7.307   7.254 -2.5476  1.0979 -0.4537
10305SOL     OW32047   8.892   0.797   6.725 -0.4513 -0.3169  0.3684
10305SOL    HW132048   8.971   0.753   6.695 -1.1584 -0.3014 -1.6486
10305SOL    HW232049   8.831   0.726   6.745 -0.8117 -0.3024 -0.6505
10306SOL     OW32050   9.013   6.335   6.015 -0.3375 -0.0829  0.0750
10306SOL    HW132051   8.964   6.416   6.003  0.1987 -0.0458 -2.4464
10306SOL    HW232052   8.945   6.269   6.032 -1.0336  0.4138 -0.6954
10307SOL     OW32053   2.292   2.125   7.583 -0.8797  0.3730 -0.1794
10307SOL    HW132054   2.206   2.138   7.624 -1.2597 -0.3765 -0.7139
10307SOL    HW232055   2.280   2.157   7.493 -1.2193 -1.6080 -0.8861
10308SOL     OW32056   2.445   7.264   3.188  0.5683 -0.1906  0.0654
10308SOL    HW132057   2.353   7.242   3.175  0.3529 -0.5085  1.8073
10308SOL    HW232058   2.491   7.180   3.176  0.3594 -0.5090  1.3362
10309SOL     OW32059   6.934   5.406   3.102 -0.2675 -0.2372 -0.4420
10309SOL    HW132060   6.990   5.373   3.172  1.1099 -0.1508 -1.4561
10309SOL    HW232061   6.982   5.481   3.066 -0.6607 -0.6282 -1.8466
10310SOL     OW32062   3.894   4.388   0.144 -0.1011  0.0649 -0.3981
10310SOL    HW132063   3.818   4.404   0.089 -0.2632 -0.1028 -0.2253
10310SOL    HW232064   3.858   4.357   0.228  0.1784 -1.6220 -0.8469
10311SOL     OW32065   0.815   2.300   1.542 -0.3607  0.7215 -0.4993
10311SOL    HW132066   0.907   2.312   1.564 -0.2531 -1.0669  0.1961
10311SOL    HW232067   0.816   2.284   1.447  0.1291  0.1525 -0.4101
10312SOL     OW32068   6.501   0.337   5.883 -0.2150  0.0092 -0.5722
10312SOL    HW132069   6.407   0.320   5.874 -0.2574  0.2593 -0.5901
10312SOL    HW232070   6.541   0.290   5.810 -0.2527 -0.7541 -0.1132
10313SOL     OW32071   0.797   7.910   3.827 -0.2294 -0.0894 -0.1147
10313SOL    HW132072   0.716   7.947   3.862  1.0563  1.0290  1.8547
10313SOL    HW232073   0.827   7.974   3.763 -0.9825 -0.6201 -1.0240
10314SOL     OW32074   1.898   1.894   4.331 -0.2583 -0.0957 -0.1664
10314SOL    HW132075   1.815   1.941   4.342 -0.1490 -0.0849  0.6215
10314SOL    HW232076   1.964   1.963   4.320  0.1735  0.0513  2.7277
10315SOL     OW32077   8.657   5.684   3.706  0.1089  0.0666  0.2863
10315SOL    HW132078   8.736   5.710   3.658 -0.7599 -1.2841 -1.9938
10315SOL    HW232079   8.690   5.649   3.789  1.7446  1.3495  0.2308
10316SOL     OW32080   0.259   7.778   8.545  0.3401 -0.3796 -0.0630
10316SOL    HW132081   0.340   7.820   8.574  1.4325 -2.4870  0.1396
10316SOL    HW232082   0.285   7.688   8.525 -1.2868 -0.2495 -3.2675
10317SOL     OW32083   7.489   0.722   5.929  0.5195 -0.1367  0.2594
10317SOL    HW132084   7.550   0.790   5.957 -1.4138  1.1195  1.6738
10317SOL    HW232085   7.428   0.713   6.002 -0.4941 -1.9531 -0.7358
10318SOL     OW32086   6.939   1.109   5.259  0.3952  0.1094 -0.3577
10318SOL    HW132087   6.957   1.172   5.329  1.1456  1.0564 -1.3813
10318SOL    HW232088   6.997   1.035   5.279 -1.1712 -0.7424  1.3882
10319SOL     OW32089   5.824   3.616   8.993 -0.1249  0.0948 -0.9184
10319SOL    HW132090   5.755   3.570   8.945  0.3434 -0.0401 -1.4678
10319SOL    HW232091   5.782   3.698   9.022 -0.9111 -0.5902 -0.0644
10320SOL     OW32092   6.760   1.435   4.766 -0.7126  0.2934 -0.2026
10320SOL    HW132093   6.752   1.477   4.680 -1.6930  1.7183  0.5386
10320SOL    HW232094   6.670   1.434   4.800 -0.1777  0.8407  1.2962
10321SOL     OW32095   3.720   3.139   5.036  0.3918 -0.2002  0.2461
10321SOL    HW132096   3.651   3.162   5.099  0.5366  1.3866 -0.1386
10321SOL    HW232097   3.798   3.184   5.068 -0.0215  2.5374 -2.1682
10322SOL     OW32098   3.761   3.126   4.388  0.3301  0.4958 -0.0599
10322SOL    HW132099   3.777   3.043   4.434 -1.8514 -0.7060 -1.3189
10322SOL    HW232100   3.683   3.161   4.429 -0.1309  0.7189 -1.0987
10323SOL     OW32101   2.993   5.499   1.202 -0.0455 -0.6530 -0.0254
10323SOL    HW132102   2.916   5.443   1.191 -0.5792 -0.1879  1.2689
10323SOL    HW232103   3.012   5.530   1.113 -2.4282  0.6625 -0.1440
10324SOL     OW32104   8.712   3.054   2.166 -0.6160 -0.6555  0.2425
10324SOL    HW132105   8.697   2.980   2.226 -0.1956 -0.0639  1.0881
10324SOL    HW232106   8.783   3.104   2.206  0.6013 -0.9601 -1.4361
10325SOL     OW32107   2.589   3.861   7.056 -0.0861  0.7978  0.0755
10325SOL    HW132108   2.540   3.872   7.138  0.3703  1.8878  0.2108
10325SOL    HW232109   2.523   3.838   6.991 -0.4740  0.0387  0.7067
10326SOL     OW32110   4.626   4.878   0.041  0.3170 -0.5036  0.3242
10326SOL    HW132111   4.701   4.833   0.002 -0.0015 -2.6414  1.9976
10326SOL    HW232112   4.623   4.846   0.131 -0.6020  2.1501  1.3217
10327SOL     OW32113   8.482   3.194   8.307  0.2895  0.9184 -0.1602
10327SOL    HW132114   8.392   3.219   8.286  0.3397  0.3125 -1.1788
10327SOL    HW232115   8.534   3.226   8.233  0.5235 -1.0599 -0.9102
10328SOL     OW32116   2.218   1.180   8.439  0.0165 -0.1248 -0.0591
10328SOL    HW132117   2.289   1.219   8.491 -1.3712 -0.1175  1.9666
10328SOL    HW232118   2.251   1.094   8.415  0.6473 -0.2360  1.1095
10329SOL     OW32119   8.585   8.119   1.750 -0.3871  0.1607  0.3572
10329SOL    HW132120   8.506   8.068   1.767 -0.2071 -0.5111 -0.7770
10329SOL    HW232121   8.655   8.071   1.795 -0.8209  1.6636  2.8509
10330SOL     OW32122   3.588   0.569   5.889  0.0124  0.7938 -0.3176
10330SOL    HW132123   3.546   0.573   5.975  1.9201  2.2003  0.6262
10330SOL    HW232124   3.598   0.661   5.863 -1.0902  0.3872 -2.3765
10331SOL     OW32125   1.614   6.190   8.762  0.2898  0.0506  0.1067
10331SOL    HW132126   1.657   6.219   8.681  0.2999 -0.6791 -0.1663
10331SOL    HW232127   1.542   6.135   8.731 -0.6474  0.9872  0.5697
10332SOL     OW32128   7.134   3.213   4.918  0.2760  0.2588 -0.0350
10332SOL    HW132129   7.121   3.130   4.872  0.0770  0.1969  0.1361
10332SOL    HW232130   7.064   3.270   4.886 -1.3757 -0.5255  1.9773
10333SOL     OW32131   5.812   0.976   6.013  0.1693  0.9020  0.7014
10333SOL    HW132132   5.721   1.000   5.993 -0.1286 -1.4673 -1.2622
10333SOL    HW232133   5.809   0.883   6.033  1.8466  1.3460  3.5710
10334SOL     OW32134   7.841   6.136   8.624  0.0049  0.1958 -0.1217
10334SOL    HW132135   7.836   6.056   8.676 -0.9319  0.4339  0.1797
10334SOL    HW232136   7.750   6.159   8.607  0.2627  1.1586 -0.2729
10335SOL     OW32137   0.693   2.354   5.335  0.6562  0.4846  0.6136
10335SOL    HW132138   0.680   2.385   5.245 -0.7928 -1.2202  0.1724
10335SOL    HW232139   0.785   2.327   5.338  0.4766 -0.3941 -0.7151
10336SOL     OW32140   4.885   8.627   7.142  0.3252 -0.1205 -0.2019
10336SOL    HW132141   4.932   8.554   7.102  1.0601  0.3842 -0.2662
10336SOL    HW232142   4.844   8.589   7.220 -0.2547 -0.8685 -0.8537
10337SOL     OW32143   2.731   8.405   4.205  0.2587 -0.1958  0.4269
10337SOL    HW132144   2.775   8.320   4.214  0.4604 -0.3474 -1.4828
10337SOL    HW232145   2.682   8.416   4.286  0.4764 -1.9936  0.8419
10338SOL     OW32146   4.843   0.704   4.029  0.0428  0.1111 -0.2735
10338SOL    HW132147   4.751   0.700   4.003 -0.0146  0.4918 -0.1304
10338SOL    HW232148   4.843   0.756   4.110  0.1646 -1.3977  0.7435
10339SOL     OW32149   3.320   1.240   2.059 -0.2185  0.3166  0.2188
10339SOL    HW132150   3.230   1.241   2.024  0.1146 -0.2316 -0.7119
10339SOL    HW232151   3.368   1.183   1.998  1.1249  1.8414 -0.2180
10340SOL     OW32152   3.733   7.535   7.739 -0.5803 -0.0335  0.0214
10340SOL    HW132153   3.758   7.573   7.655 -0.9493 -0.5776 -0.3423
10340SOL    HW232154   3.799   7.469   7.757  0.1462  0.8683  0.7274
10341SOL     OW32155   6.291   8.706   6.604 -0.1749 -0.6384 -0.3389
10341SOL    HW132156   6.341   8.740   6.678 -2.4476  0.7419  0.6870
10341SOL    HW232157   6.274   8.615   6.626  0.4735 -0.6592  0.0922
10342SOL     OW32158   1.455   5.278   4.459 -0.3317 -0.0906  0.1871
10342SOL    HW132159   1.443   5.350   4.521  0.3342 -0.6497  0.9956
10342SOL    HW232160   1.461   5.200   4.514  2.7662 -0.3523 -0.3388
10343SOL     OW32161   6.094   1.600   5.909  0.1843 -0.2618 -0.4189
10343SOL    HW132162   6.179   1.615   5.951 -0.3472 -0.5711  0.8176
10343SOL    HW232163   6.113   1.539   5.837  1.3319  1.3224 -1.5165
10344SOL     OW32164   7.191   2.759   8.219 -0.3670 -0.1952  0.3664
10344SOL    HW132165   7.207   2.853   8.222 -1.1883 -0.0521  0.5586
10344SOL    HW232166   7.103   2.749   8.256 -1.3934 -0.7664 -2.0577
10345SOL     OW32167   5.239   8.783   8.498  0.0144 -0.3420 -0.6564
10345SOL    HW132168   5.189   8.806   8.576  2.9566 -0.8264  1.5664
10345SOL    HW232169   5.234   8.860   8.442 -1.4015  0.4033  0.4282
10346SOL     OW32170   4.302   5.181   7.281 -0.7484 -0.3586  0.3877
10346SOL    HW132171   4.351   5.179   7.363  0.9338 -1.4055 -0.5704
10346SOL    HW232172   4.224   5.128   7.297 -0.5490 -0.3688  1.3633
10347SOL     OW32173   1.744   7.678   6.629  0.1757  0.7850 -0.2684
10347SOL    HW132174   1.671   7.674   6.691  0.1982  0.6097 -0.2533
10347SOL    HW232175   1.767   7.771   6.624  0.1055  0.8106 -0.0930
10348SOL     OW32176   3.247   7.512   4.946 -0.0233 -0.2630 -0.5402
10348SOL    HW132177   3.168   7.565   4.958  0.8617  0.9390  0.2724
10348SOL    HW232178   3.304   7.537   5.019  0.8884 -1.5196 -0.7802
10349SOL     OW32179   4.690   0.866   8.927  0.6031  0.2795  0.3575
10349SOL    HW132180   4.648   0.907   8.851  2.1593  0.1584 -0.6328
10349SOL    HW232181   4.767   0.823   8.890  0.5885 -1.0788  1.8059
10350SOL     OW32182   5.070   6.262   4.776  0.1858  0.0949  0.2688
10350SOL    HW132183   5.158   6.253   4.739  1.2219  2.9280  1.7474
10350SOL    HW232184   5.020   6.307   4.708  0.2473 -0.3296 -0.0624
10351SOL     OW32185   6.604   0.882   6.061  0.4830  0.1249 -0.5417
10351SOL    HW132186   6.611   0.883   5.966  2.3574  2.2460 -0.4692
10351SOL    HW232187   6.670   0.819   6.090  1.2031  0.8076 -0.6428
10352SOL     OW32188   4.783   4.015   5.934 -0.0756  0.3044  0.1658
10352SOL    HW132189   4.714   3.958   5.969 -0.5118  0.4805 -0.3932
10352SOL    HW232190   4.740   4.100   5.922  0.6180  0.8100  1.1725
10353SOL     OW32191   2.862   0.074   0.050  0.2105  0.3468  0.3261
10353SOL    HW132192   2.938   0.017   0.054  0.6657  0.9692  0.9682
10353SOL    HW232193   2.791   0.024   0.090  0.2651 -0.2410 -0.2908
10354SOL     OW32194   1.780   5.721   1.908 -0.6628  0.2677  0.2621
10354SOL    HW132195   1.724   5.658   1.954 -1.3251 -1.6065 -2.8087
10354SOL    HW232196   1.821   5.772   1.978 -0.7023 -3.0290  2.9604
10355SOL     OW32197   7.094   4.125   7.371 -0.3234  0.3492  0.1373
10355SOL    HW132198   7.167   4.162   7.321 -0.0345 -1.5196 -0.9050
10355SOL    HW232199   7.134   4.056   7.424 -1.1242  0.2650  0.6494
10356SOL     OW32200   1.819   2.730   1.357  0.7646 -0.1419 -0.0797
10356SOL    HW132201   1.765   2.696   1.286 -1.5498 -0.0747  1.5077
10356SOL    HW232202   1.880   2.790   1.315  0.7141 -1.4732 -2.1927
10357SOL     OW32203   0.668   5.093   6.911  0.1987 -0.0876 -0.5391
10357SOL    HW132204   0.687   4.999   6.907 -1.1069 -0.4435  0.9925
10357SOL    HW232205   0.633   5.113   6.824  0.2229 -1.0743 -0.7930
10358SOL     OW32206   3.586   4.090   1.334  0.0756 -0.1343  0.3443
10358SOL    HW132207   3.629   4.061   1.414 -0.4364 -0.0337  0.6614
10358SOL    HW232208   3.657   4.099   1.270  0.5772  0.4300  0.9703
10359SOL     OW32209   1.432   2.272   7.419  0.0914  0.0103 -0.6250
10359SOL    HW132210   1.503   2.334   7.434 -1.8619  1.9282  1.6216
10359SOL    HW232211   1.371   2.320   7.363 -0.4309 -0.7539 -0.7225
10360SOL     OW32212   6.157   4.831   0.527 -0.0753 -0.3801  0.3033
10360SOL    HW132213   6.125   4.751   0.568 -0.7256  0.3492  1.2623
10360SOL    HW232214   6.252   4.817   0.517 -0.2256 -1.3731  0.1782
10361SOL     OW32215   8.375   4.488   6.464 -0.4289 -0.1173 -0.5157
10361SOL    HW132216   8.417   4.573   6.476  0.6712 -0.4202 -1.9708
10361SOL    HW232217   8.446   4.428   6.445 -1.3420 -1.0228 -1.1888
10362SOL     OW32218   1.551   4.036   5.488  0.2436 -0.0891  0.4712
10362SOL    HW132219   1.482   3.979   5.455  0.2145 -0.3599  0.9847
10362SOL    HW232220   1.513   4.076   5.567  0.0232  1.1471 -0.2322
10363SOL     OW32221   4.030   5.414   2.366  0.1039 -0.0109  0.4561
10363SOL    HW132222   3.944   5.388   2.397  0.0072 -2.0712 -1.2675
10363SOL    HW232223   4.014   5.453   2.280  0.9013 -1.0586 -0.2008
10364SOL     OW32224   1.669   4.989   5.571  0.5077 -0.7665  0.0120
10364SOL    HW132225   1.754   4.997   5.616  0.8000 -1.3689 -0.4197
10364SOL    HW232226   1.672   4.902   5.531 -0.8633 -1.3653  1.1153
10365SOL     OW32227   2.323   2.035   7.832 -0.1886  0.7926  0.0731
10365SOL    HW132228   2.237   2.073   7.853  0.0103  1.7352 -0.7449
10365SOL    HW232229   2.344   2.071   7.745  2.1052  2.5098  1.2376
10366SOL     OW32230   5.525   5.150   8.744 -0.2816  0.2638 -0.2274
10366SOL    HW132231   5.494   5.239   8.765  0.1523  0.8983 -2.0734
10366SOL    HW232232   5.447   5.104   8.715 -0.2538  0.5665 -0.8143
10367SOL     OW32233   5.621   0.337   0.296 -0.3846 -0.4235 -0.0356
10367SOL    HW132234   5.576   0.412   0.334 -0.6321  0.3053 -1.6668
10367SOL    HW232235   5.564   0.263   0.314  0.1191 -0.3620  2.0731
10368SOL     OW32236   1.137   9.031   1.147  0.3510 -0.1026  0.6999
10368SOL    HW132237   1.182   8.962   1.098 -0.0078  0.8135 -0.9777
10368SOL    HW232238   1.208   9.084   1.185  0.6332 -0.4888  0.7163
10369SOL     OW32239   5.052   3.643   2.329  0.4205 -0.3681 -0.0633
10369SOL    HW132240   5.107   3.628   2.406  2.3032  3.4921 -0.3921
10369SOL    HW232241   5.114   3.642   2.256 -1.3008 -3.8323 -1.7130
10370SOL     OW32242   2.563   5.866   6.189  0.0403  0.0112  0.3630
10370SOL    HW132243   2.513   5.930   6.139  2.0336  1.1539 -0.2727
10370SOL    HW232244   2.653   5.899   6.187  1.3067 -3.1371 -0.5319
10371SOL     OW32245   3.327   2.318   1.798 -0.6715  0.1950 -0.6375
10371SOL    HW132246   3.247   2.265   1.797 -0.1832 -0.5839 -2.0066
10371SOL    HW232247   3.303   2.397   1.846 -2.1240 -0.2254 -0.6205
10372SOL     OW32248   1.032   5.751   8.786  0.3780  0.1943  0.3716
10372SOL    HW132249   1.055   5.831   8.739  0.6194 -0.0618  0.0479
10372SOL    HW232250   0.962   5.712   8.733 -0.1322  0.4748  0.8308
10373SOL     OW32251   0.916   1.332   6.571 -0.0817 -0.3229 -0.3014
10373SOL    HW132252   0.979   1.401   6.593 -0.8532  0.3247 -0.0695
10373SOL    HW232253   0.851   1.376   6.516  0.0105 -1.1382 -1.0774
10374SOL     OW32254   1.626   6.142   1.583  0.4269 -0.4166  0.0800
10374SOL    HW132255   1.549   6.141   1.526  0.7626  0.4658 -0.4134
10374SOL    HW232256   1.612   6.069   1.643 -0.9168 -0.1274  0.1627
10375SOL     OW32257   5.544   2.704   6.466 -0.0671 -0.0901 -0.3403
10375SOL    HW132258   5.470   2.742   6.419  0.4245  0.4573 -0.6899
10375SOL    HW232259   5.591   2.653   6.400  0.6167  0.6679 -0.4590
10376SOL     OW32260   8.084   4.936   2.591  0.0362  0.1712 -0.1640
10376SOL    HW132261   8.103   4.987   2.670 -0.1269 -0.9732  0.6290
10376SOL    HW232262   8.064   4.848   2.622  0.9226 -0.5701 -1.5407
10377SOL     OW32263   1.935   4.983   7.829  0.3476  0.3915 -0.3463
10377SOL    HW132264   1.880   4.909   7.803 -0.6471  0.0046  2.4731
10377SOL    HW232265   1.874   5.047   7.865  1.5662  0.4575  1.7867
10378SOL     OW32266   0.408   0.897   0.821 -0.2140 -0.2988 -0.6237
10378SOL    HW132267   0.459   0.953   0.762 -0.6761  0.5979 -0.1942
10378SOL    HW232268   0.462   0.891   0.900  0.3886 -1.4712 -1.0954
10379SOL     OW32269   1.516   7.338   5.707 -0.3144 -0.2612  0.1064
10379SOL    HW132270   1.427   7.355   5.739 -1.0404 -2.7585 -0.3608
10379SOL    HW232271   1.504   7.316   5.615  0.7991 -0.6580  0.0476
10380SOL     OW32272   3.965   7.570   8.934 -0.3550  0.4792  0.0072
10380SOL    HW132273   4.041   7.611   8.975  0.5352 -0.1977 -0.9234
10380SOL    HW232274   3.931   7.511   9.000  1.3916 -1.0106 -0.3595
10381SOL     OW32275   5.543   8.314   8.971 -0.3178  0.3312 -0.0520
10381SOL    HW132276   5.623   8.288   9.017 -1.3168  0.1043  1.6635
10381SOL    HW232277   5.504   8.381   9.027 -0.9533  0.9990 -1.2511
10382SOL     OW32278   2.150   5.496   0.083  0.3706 -0.1446  0.5999
10382SOL    HW132279   2.068   5.506   0.130  0.7325 -0.1257  1.2435
10382SOL    HW232280   2.214   5.473   0.151  0.9850  0.2881  0.1815
10383SOL     OW32281   8.342   8.828   1.019 -0.0215  0.4195  0.3913
10383SOL    HW132282   8.417   8.798   0.968  1.9652  3.7367  1.0699
10383SOL    HW232283   8.267   8.782   0.981  2.1725 -2.3276 -0.9463
10384SOL     OW32284   8.458   5.910   6.465 -0.0931  0.0423  0.0436
10384SOL    HW132285   8.439   5.838   6.526  0.3225 -0.0039  0.1170
10384SOL    HW232286   8.538   5.950   6.498  0.0346  0.1341 -0.3702
10385SOL     OW32287   7.140   3.053   6.558 -0.5390  0.1772  0.4548
10385SOL    HW132288   7.105   3.106   6.630 -2.3216  0.0092 -0.2410
10385SOL    HW232289   7.162   3.117   6.490  0.6700  0.2941  0.9414
10386SOL     OW32290   7.000   0.398   6.719  0.2204 -0.0241  0.0711
10386SOL    HW132291   7.006   0.304   6.739 -0.3777 -0.5902 -2.1769
10386SOL    HW232292   6.982   0.402   6.625  0.2520  2.3639  0.1031
10387SOL     OW32293   4.733   1.598   2.433 -0.1720 -0.3691  0.5543
10387SOL    HW132294   4.816   1.644   2.422  0.5936 -1.6585  0.7671
10387SOL    HW232295   4.697   1.589   2.345  0.2122 -0.3458  0.3972
10388SOL     OW32296   2.927   8.681   1.291 -0.4119  0.2541 -0.0794
10388SOL    HW132297   2.856   8.693   1.354 -0.4732  1.9091 -0.4198
10388SOL    HW232298   3.006   8.704   1.339 -0.1476 -0.9505  0.1039
10389SOL     OW32299   2.094   7.511   1.784  0.2219  0.1407 -0.3222
10389SOL    HW132300   2.070   7.426   1.745 -0.7504 -0.1988  0.9382
10389SOL    HW232301   2.063   7.576   1.720 -1.6660 -0.3869 -0.0233
10390SOL     OW32302   5.111   1.104   6.664 -0.4576 -0.1291 -0.1520
10390SOL    HW132303   5.038   1.146   6.710  0.5338  0.9898  0.4350
10390SOL    HW232304   5.069   1.059   6.591 -1.9359 -0.8932  1.0814
10391SOL     OW32305   5.684   3.379   7.234 -0.1301 -0.3678  0.2215
10391SOL    HW132306   5.765   3.400   7.189  0.9004 -0.1207  2.0843
10391SOL    HW232307   5.691   3.287   7.258 -0.7153 -0.5336 -0.2189
10392SOL     OW32308   0.345   4.636   5.460  0.3560  0.3862 -0.3365
10392SOL    HW132309   0.367   4.544   5.447 -0.5484  0.4484 -2.7678
10392SOL    HW232310   0.387   4.659   5.543  2.2348 -1.6717 -0.6354
10393SOL     OW32311   4.088   8.709   1.043  0.2379  0.0530 -0.3462
10393SOL    HW132312   4.086   8.667   0.957 -2.0196  1.3203 -0.9880
10393SOL    HW232313   4.123   8.642   1.102  0.3349 -1.3860 -1.9752
10394SOL     OW32314   0.397   1.779   3.750  0.1565  0.2913  0.2919
10394SOL    HW132315   0.325   1.842   3.761  1.4760  1.5676  2.2029
10394SOL    HW232316   0.365   1.700   3.793 -0.7187  0.2820 -0.3304
10395SOL     OW32317   2.759   2.417   1.702 -0.2654  0.2611  0.2098
10395SOL    HW132318   2.802   2.426   1.617  0.7185  1.5136  0.7941
10395SOL    HW232319   2.828   2.382   1.759 -1.2279 -1.6119  0.2717
10396SOL     OW32320   3.949   8.316   1.246 -0.2852 -0.2541  0.5692
10396SOL    HW132321   3.912   8.273   1.322 -0.5704 -1.1325 -0.0438
10396SOL    HW232322   3.939   8.409   1.263  2.4239 -0.2480  3.0016
10397SOL     OW32323   0.554   5.533   5.694  0.4244 -0.2655 -0.1507
10397SOL    HW132324   0.637   5.499   5.729 -1.4035 -4.6381  0.6709
10397SOL    HW232325   0.564   5.527   5.599  1.6415  1.0276 -0.1246
10398SOL     OW32326   1.802   0.454   8.538  0.3609 -0.0158  0.2474
10398SOL    HW132327   1.751   0.498   8.607 -1.3101  0.3890 -1.1657
10398SOL    HW232328   1.748   0.462   8.460  1.4969 -1.8114 -0.7949
10399SOL     OW32329   3.382   3.068   4.695  0.6319  0.2605  0.1741
10399SOL    HW132330   3.429   2.985   4.686  0.4414 -0.0553  1.8127
10399SOL    HW232331   3.447   3.135   4.672  1.2598 -0.2690  0.3794
10400SOL     OW32332   8.360   5.773   7.951 -0.1370  0.0579 -0.3013
10400SOL    HW132333   8.360   5.693   8.004  0.7987 -0.5020 -1.1169
10400SOL    HW232334   8.339   5.843   8.013 -1.0198 -0.8092  0.4148
10401SOL     OW32335   5.531   7.875   1.259  0.0125  0.0717  0.1294
10401SOL    HW132336   5.524   7.946   1.195  2.2276  0.8386  0.6369
10401SOL    HW232337   5.526   7.795   1.207 -0.7314  0.6192 -0.6718
10402SOL     OW32338   2.630   8.832   1.822  0.1411  0.3665 -0.5529
10402SOL    HW132339   2.553   8.855   1.769 -1.1629 -2.6231 -0.1318
10402SOL    HW232340   2.667   8.756   1.779 -0.0382 -1.2165  1.9041
10403SOL     OW32341   2.614   2.745   8.280  0.0234 -0.7896  0.2426
10403SOL    HW132342   2.653   2.751   8.193 -0.4190  0.2299  0.1005
10403SOL    HW232343   2.532   2.697   8.267  0.3223 -1.2946  0.2262
10404SOL     OW32344   5.340   7.979   2.478  0.3350  0.3410  0.2296
10404SOL    HW132345   5.251   8.014   2.480  0.2875  0.2582 -0.3335
10404SOL    HW232346   5.396   8.056   2.465  0.2937  0.3127 -0.1237
10405SOL     OW32347   6.333   7.907   6.600 -0.0534 -0.0177 -0.4637
10405SOL    HW132348   6.301   7.845   6.534 -3.5882 -1.4955  2.3505
10405SOL    HW232349   6.352   7.853   6.677  0.8442  1.9725  0.7954
10406SOL     OW32350   8.169   6.870   6.026  0.2984  0.4450  0.4808
10406SOL    HW132351   8.147   6.817   5.949 -0.1103  0.8267  0.3288
10406SOL    HW232352   8.190   6.806   6.094 -3.0915 -0.1113  1.2127
10407SOL     OW32353   7.202   5.631   0.184  0.3051 -0.8059  0.2262
10407SOL    HW132354   7.265   5.672   0.244  0.5756 -1.5980  0.4918
10407SOL    HW232355   7.122   5.624   0.235  1.2096 -3.7727  1.4197
10408SOL     OW32356   1.985   4.683   5.114 -0.7805  0.0227 -0.0216
10408SOL    HW132357   1.942   4.630   5.181 -0.1561  2.1330  2.2078
10408SOL    HW232358   1.965   4.774   5.139  1.9830  0.9917 -0.9158
10409SOL     OW32359   7.906   5.394   6.861 -0.7164 -0.3088  0.0897
10409SOL    HW132360   7.854   5.323   6.822 -2.0336  1.3215 -1.2734
10409SOL    HW232361   7.840   5.455   6.894  0.3974  0.5200  0.8268
10410SOL     OW32362   6.425   1.149   2.064 -0.0818 -0.6417  0.3206
10410SOL    HW132363   6.498   1.091   2.044  0.9328  1.3788 -2.2694
10410SOL    HW232364   6.353   1.116   2.010  0.3934  0.2483 -0.8859
10411SOL     OW32365   8.438   2.348   2.665  0.4841  0.1450 -0.1886
10411SOL    HW132366   8.477   2.294   2.596  0.2327 -0.0179 -0.2049
10411SOL    HW232367   8.404   2.285   2.729  1.2979  0.2944  0.4168
10412SOL     OW32368   3.289   9.012   8.834  0.3784 -0.3464  0.2502
10412SOL    HW132369   3.351   8.969   8.894  0.1526 -1.0935 -0.0453
10412SOL    HW232370   3.345   9.061   8.774  0.6100  0.4200  1.0703
10413SOL     OW32371   0.683   1.229   1.579 -0.0019 -0.6983 -0.0504
10413SOL    HW132372   0.648   1.192   1.498  1.2087 -0.4365 -0.7148
10413SOL    HW232373   0.738   1.159   1.615  1.6431  0.1097 -0.8903
10414SOL     OW32374   3.910   0.898   4.048  0.0152  0.0635  0.4301
10414SOL    HW132375   3.858   0.820   4.072 -0.1148  0.1891  0.5586
10414SOL    HW232376   3.847   0.955   4.004  0.2269 -0.1173 -0.1187
10415SOL     OW32377   2.082   2.516   3.899  0.0057 -0.2560 -0.0488
10415SOL    HW132378   2.164   2.467   3.893  0.3820  0.4237 -0.6607
10415SOL    HW232379   2.110   2.607   3.912 -0.6580 -0.0866  0.2128
10416SOL     OW32380   7.392   2.852   8.577  0.0385  0.3162 -0.1013
10416SOL    HW132381   7.314   2.818   8.533  0.7270 -0.2480 -0.9255
10416SOL    HW232382   7.360   2.884   8.662 -1.3156  1.3388 -0.9487
10417SOL     OW32383   8.132   2.264   4.678 -0.0308  0.1703 -0.1966
10417SOL    HW132384   8.224   2.290   4.673  0.3108 -0.7292  1.0347
10417SOL    HW232385   8.090   2.334   4.727  0.3662 -0.2692  0.7967
10418SOL     OW32386   5.889   5.118   6.721  0.3827 -0.7169 -0.1762
10418SOL    HW132387   5.823   5.132   6.789 -0.4470 -1.7974 -0.7191
10418SOL    HW232388   5.903   5.023   6.720  1.5375 -0.5603 -0.4612
10419SOL     OW32389   7.985   2.293   5.003 -0.1828 -0.2727  0.0026
10419SOL    HW132390   7.957   2.289   5.095 -1.0565  0.1492 -0.2333
10419SOL    HW232391   7.925   2.233   4.957  0.6524 -0.9667 -0.2069
10420SOL     OW32392   6.965   2.012   2.937  0.3834  0.0922  0.3003
10420SOL    HW132393   6.938   2.085   2.881 -1.1273  1.0363  2.1528
10420SOL    HW232394   7.025   2.052   3.000  0.1105 -0.4072  0.8872
10421SOL     OW32395   4.309   6.103   4.277 -0.0615 -0.1901  0.3953
10421SOL    HW132396   4.373   6.144   4.336 -0.2161  0.5041  0.0979
10421SOL    HW232397   4.360   6.079   4.200 -0.0389 -0.2161  0.4187
10422SOL     OW32398   8.573   1.327   6.443  0.0412  0.4610  0.3321
10422SOL    HW132399   8.522   1.367   6.372  1.1838 -0.5482 -1.1356
10422SOL    HW232400   8.580   1.235   6.418  1.8857  0.4153  0.8698
10423SOL     OW32401   6.681   6.493   0.533 -0.3492  0.1132 -0.6409
10423SOL    HW132402   6.636   6.411   0.515 -1.8028  0.0569  2.5097
10423SOL    HW232403   6.773   6.476   0.514 -0.9793 -1.1957 -2.9498
10424SOL     OW32404   5.409   7.972   6.072  0.0939  0.0836 -0.5124
10424SOL    HW132405   5.386   8.012   5.989 -1.2498  0.4596  0.0228
10424SOL    HW232406   5.484   8.023   6.103 -0.6350  1.2078 -0.5685
10425SOL     OW32407   6.051   0.968   2.411 -0.0855 -0.2444 -0.0424
10425SOL    HW132408   6.053   0.900   2.479 -0.0691 -0.1680  0.0335
10425SOL    HW232409   6.141   0.998   2.405 -0.5581  1.8094  1.9759
10426SOL     OW32410   6.517   8.314   7.484 -0.0068 -0.3207 -0.4292
10426SOL    HW132411   6.438   8.261   7.483  0.4024 -1.0331  1.5095
10426SOL    HW232412   6.488   8.401   7.512 -0.4918  0.2403 -2.4812
10427SOL     OW32413   1.290   5.067   0.431  0.0250  0.0553  0.4853
10427SOL    HW132414   1.327   5.000   0.489  1.1034  0.8457  0.7393
10427SOL    HW232415   1.343   5.064   0.352  0.8900  1.3984  0.9681
10428SOL     OW32416   1.557   3.056   7.245 -0.1903 -0.4260 -0.1249
10428SOL    HW132417   1.625   2.999   7.281  0.1830  0.0569 -0.0567
10428SOL    HW232418   1.591   3.081   7.159  0.8434  1.7034  0.8274
10429SOL     OW32419   6.640   0.601   1.594  0.2888 -0.2127  0.3157
10429SOL    HW132420   6.617   0.684   1.554  0.5471 -0.2251  0.1344
10429SOL    HW232421   6.568   0.581   1.654 -1.8798 -1.8717 -2.5901
10430SOL     OW32422   1.482   7.680   3.200 -0.2876 -0.4425  0.0548
10430SOL    HW132423   1.510   7.710   3.113 -0.5341  0.8956  0.4118
10430SOL    HW232424   1.443   7.594   3.184 -0.3137 -0.2315 -1.1520
10431SOL     OW32425   2.211   0.514   5.670 -0.4312  0.6662  0.0156
10431SOL    HW132426   2.236   0.487   5.758  0.0936 -0.2366 -0.3960
10431SOL    HW232427   2.115   0.511   5.670 -0.4297  0.5522  0.5165
10432SOL     OW32428   5.488   3.614   2.285 -0.0810 -0.2699  0.6180
10432SOL    HW132429   5.443   3.691   2.320 -0.3329 -0.2692  0.2881
10432SOL    HW232430   5.418   3.556   2.257  0.0868  0.4710 -1.5659
10433SOL     OW32431   2.251   7.808   4.569 -0.0849 -0.2298 -0.0784
10433SOL    HW132432   2.277   7.716   4.566 -1.1097 -0.6228  1.5335
10433SOL    HW232433   2.291   7.842   4.649 -1.6374  0.0366  0.6355
10434SOL     OW32434   5.038   8.281   1.829  0.5585 -0.2543  0.4371
10434SOL    HW132435   5.106   8.333   1.786 -0.2502 -0.1827 -0.8299
10434SOL    HW232436   4.990   8.240   1.757  0.9225 -2.4850  1.3793
10435SOL     OW32437   6.176   9.003   2.788 -0.4916 -0.4555 -0.2684
10435SOL    HW132438   6.246   8.978   2.728 -0.5211 -0.6709 -0.2116
10435SOL    HW232439   6.219   9.005   2.874 -0.0874  1.2733 -0.4703
10436SOL     OW32440   1.574   8.782   8.491 -0.1045  0.3124  0.6978
10436SOL    HW132441   1.635   8.803   8.562 -1.8676  2.1766  1.7742
10436SOL    HW232442   1.577   8.859   8.433 -2.3468  1.1122  1.5217
10437SOL     OW32443   1.828   4.889   3.360  0.9125 -0.5080 -0.1097
10437SOL    HW132444   1.849   4.795   3.361  0.4789 -0.6215  1.9408
10437SOL    HW232445   1.905   4.931   3.397  0.3914 -0.2408  0.6929
10438SOL     OW32446   2.665   5.130   1.342 -0.5386 -0.3585 -0.7573
10438SOL    HW132447   2.575   5.113   1.368 -0.7709  1.2894 -0.4108
10438SOL    HW232448   2.718   5.102   1.417 -0.9542  1.0638  0.0827
10439SOL     OW32449   1.739   4.870   8.405 -0.8056  0.4772 -0.1984
10439SOL    HW132450   1.769   4.957   8.432 -0.2940  0.3643 -0.3802
10439SOL    HW232451   1.786   4.853   8.324 -1.8126  0.5216 -0.8051
10440SOL     OW32452   2.659   5.209   0.777 -0.2987  0.1381  0.4960
10440SOL    HW132453   2.565   5.192   0.769 -0.2829 -0.3713  1.2633
10440SOL    HW232454   2.685   5.242   0.691 -1.3821  1.3209  0.6069
10441SOL     OW32455   2.198   3.700   0.542  0.2104  0.1378  0.0440
10441SOL    HW132456   2.151   3.772   0.500 -0.2104 -0.4284 -0.4910
10441SOL    HW232457   2.198   3.721   0.635 -1.1914  0.1221  0.0680
10442SOL     OW32458   6.015   5.241   2.591 -0.6905  0.0710  0.2996
10442SOL    HW132459   6.057   5.319   2.627 -1.4221  0.5207  0.2020
10442SOL    HW232460   5.998   5.186   2.668 -2.4262  1.1145  0.7135
10443SOL     OW32461   6.056   3.599   8.804 -0.1389 -0.0376 -0.0734
10443SOL    HW132462   5.976   3.568   8.846 -0.0096  2.0134  1.9444
10443SOL    HW232463   6.038   3.691   8.785  2.0160  0.7992  1.4572
10444SOL     OW32464   7.353   3.645   5.466 -0.2198 -0.1407 -0.1717
10444SOL    HW132465   7.266   3.675   5.440  0.5910  1.4133 -1.2397
10444SOL    HW232466   7.347   3.550   5.466 -1.3591 -0.1137 -2.2979
10445SOL     OW32467   8.269   5.327   2.011 -0.1044 -0.5871  0.0183
10445SOL    HW132468   8.334   5.376   2.063 -2.1805 -2.1801  4.6210
10445SOL    HW232469   8.214   5.394   1.972  1.9281  0.7155 -0.7877
10446SOL     OW32470   0.827   3.716   8.605 -0.0423 -0.1547  0.5697
10446SOL    HW132471   0.737   3.726   8.576 -0.8795 -0.4566  2.8352
10446SOL    HW232472   0.845   3.797   8.654  0.6939 -0.3850  0.6909
10447SOL     OW32473   0.440   4.096   4.316  0.0568  0.2055 -0.3658
10447SOL    HW132474   0.499   4.117   4.245  0.7957 -0.7399 -0.0497
10447SOL    HW232475   0.364   4.056   4.274 -0.0786  0.8483 -0.7247
10448SOL     OW32476   4.016   6.643   1.419 -0.0669  0.4082 -0.0727
10448SOL    HW132477   4.098   6.691   1.431 -0.7368  1.2397  1.3964
10448SOL    HW232478   4.040   6.552   1.436  0.7732  0.4825 -0.7854
10449SOL     OW32479   6.669   0.264   5.302  0.2746 -0.2213 -0.2451
10449SOL    HW132480   6.752   0.230   5.268 -0.0392  1.0268 -2.4790
10449SOL    HW232481   6.693   0.347   5.344  0.7602 -2.0577  3.4860
10450SOL     OW32482   0.353   0.288   5.197  0.4688  0.0898 -0.2900
10450SOL    HW132483   0.368   0.195   5.212  1.4623  0.6198  2.5595
10450SOL    HW232484   0.285   0.290   5.130 -1.1493 -2.7484  1.0529
10451SOL     OW32485   4.678   1.549   6.471 -0.2532 -0.3810 -0.1396
10451SOL    HW132486   4.613   1.558   6.402  0.9318 -1.0043 -1.3992
10451SOL    HW232487   4.759   1.526   6.425  0.1062 -3.1551  1.5891
10452SOL     OW32488   6.498   5.368   5.990  0.3921 -0.6749 -0.0458
10452SOL    HW132489   6.479   5.372   5.896 -1.4048  0.4184  0.3200
10452SOL    HW232490   6.586   5.330   5.995  0.4384 -0.9568 -2.1503
10453SOL     OW32491   0.319   1.121   2.390 -0.4022 -0.2124 -0.3655
10453SOL    HW132492   0.351   1.201   2.347 -1.2489  0.3050 -0.0502
10453SOL    HW232493   0.262   1.080   2.325 -1.2533  0.2881  0.0625
10454SOL     OW32494   6.357   4.508   4.179 -0.2958  0.2784  0.2226
10454SOL    HW132495   6.320   4.571   4.117 -1.2681 -1.2472 -0.8168
10454SOL    HW232496   6.282   4.456   4.209  0.6887 -1.5473 -0.3445
10455SOL     OW32497   0.471   4.366   2.316  0.5519 -0.1979  0.0744
10455SOL    HW132498   0.474   4.452   2.359 -1.3378 -0.0347 -0.0301
10455SOL    HW232499   0.464   4.386   2.222  0.7011 -0.4785  0.0015
10456SOL     OW32500   4.645   0.595   2.763  0.2678  0.5464  0.5358
10456SOL    HW132501   4.740   0.606   2.758  0.4620 -0.6967  1.0869
10456SOL    HW232502   4.626   0.596   2.857 -0.1424 -0.0947  0.4641
10457SOL     OW32503   2.933   7.490   0.905 -0.5510 -0.5662  0.0881
10457SOL    HW132504   2.982   7.468   0.984  0.8152  1.3076 -0.1504
10457SOL    HW232505   2.842   7.497   0.933  0.1444  2.2596  2.0863
10458SOL     OW32506   6.463   2.345   1.057 -0.0705 -0.2511  0.6105
10458SOL    HW132507   6.395   2.341   1.124 -0.4893 -0.9084  0.1537
10458SOL    HW232508   6.521   2.271   1.077  0.8379  0.6223  1.3280
10459SOL     OW32509   5.755   1.885   5.161  0.0086 -0.5682 -0.5949
10459SOL    HW132510   5.670   1.843   5.175 -0.9689  1.7020  0.8038
10459SOL    HW232511   5.769   1.938   5.239  2.5592 -0.5685 -0.9660
10460SOL     OW32512   8.280   2.239   0.749 -0.0934 -0.1119  0.0906
10460SOL    HW132513   8.341   2.227   0.676 -0.5717  0.0716 -0.3410
10460SOL    HW232514   8.279   2.154   0.793  0.8073  0.0026  0.3688
10461SOL     OW32515   0.908   6.758   1.816  0.3217 -0.1434  0.2088
10461SOL    HW132516   0.887   6.744   1.724 -0.4959  0.0070  0.3660
10461SOL    HW232517   0.850   6.699   1.863  1.0563 -0.5487  0.6157
10462SOL     OW32518   8.827   9.014   0.393  0.2190 -0.2953 -0.0931
10462SOL    HW132519   8.855   9.085   0.335 -0.0374 -0.1829 -0.0795
10462SOL    HW232520   8.852   8.934   0.347  2.2199 -0.1988  0.7101
10463SOL     OW32521   4.176   0.173   4.547  0.1563  0.2027 -0.3291
10463SOL    HW132522   4.101   0.129   4.588 -0.4029  0.2879 -1.2381
10463SOL    HW232523   4.242   0.177   4.616 -0.1490 -1.1724  0.0710
10464SOL     OW32524   2.255   7.511   6.381 -0.7231  1.0368  0.2095
10464SOL    HW132525   2.165   7.540   6.371 -1.0122  0.0182 -0.3102
10464SOL    HW232526   2.250   7.415   6.378  0.5575  0.9771 -1.5342
10465SOL     OW32527   3.190   4.493   5.725  0.2554  0.1135  0.2882
10465SOL    HW132528   3.175   4.587   5.735  2.6543  0.4169  1.5912
10465SOL    HW232529   3.237   4.485   5.643  0.6326  0.1261  0.5028
10466SOL     OW32530   3.849   6.632   8.827 -0.2214  0.4583 -0.5964
10466SOL    HW132531   3.785   6.675   8.882 -0.7248 -2.4176  1.2592
10466SOL    HW232532   3.798   6.573   8.771  0.6363  0.0624 -0.9835
10467SOL     OW32533   3.373   3.042   5.030  0.3444 -0.4111 -0.0658
10467SOL    HW132534   3.391   2.989   5.107 -0.8939 -1.1975 -0.2865
10467SOL    HW232535   3.404   2.989   4.956 -0.9533 -0.9166 -0.2909
10468SOL     OW32536   1.632   2.490   4.655 -0.3649  0.0189  0.3916
10468SOL    HW132537   1.565   2.558   4.661 -0.0961  0.3037  0.1323
10468SOL    HW232538   1.712   2.531   4.688 -0.5538 -0.6573  1.7713
10469SOL     OW32539   7.313   7.118   7.425  0.4921  0.5161  0.0754
10469SOL    HW132540   7.263   7.156   7.498  0.0946 -0.0024  0.0811
10469SOL    HW232541   7.295   7.176   7.351 -1.0798 -0.2889 -0.2263
10470SOL     OW32542   6.443   6.352   5.186  0.3054 -0.5013 -0.1003
10470SOL    HW132543   6.520   6.338   5.242  0.8073  1.5481 -0.1903
10470SOL    HW232544   6.479   6.357   5.097  0.4514  2.3416  0.0051
10471SOL     OW32545   8.334   4.606   8.761 -0.2096 -0.3461  0.1836
10471SOL    HW132546   8.360   4.652   8.682 -2.2193 -1.1056 -0.9931
10471SOL    HW232547   8.397   4.534   8.769  1.4485  1.1110  0.6676
10472SOL     OW32548   8.938   1.649   8.330 -0.0298 -0.8044 -0.0162
10472SOL    HW132549   9.031   1.663   8.346  0.3440 -1.7782 -1.1966
10472SOL    HW232550   8.929   1.554   8.319 -1.3113 -0.8176  0.9050
10473SOL     OW32551   7.068   3.707   5.134 -0.0879 -0.0745 -0.7749
10473SOL    HW132552   7.035   3.679   5.219 -1.6700  0.9458 -1.0079
10473SOL    HW232553   7.116   3.632   5.100  1.8896 -0.0302  1.6334
10474SOL     OW32554   2.732   2.329   6.579 -0.1272  0.6643 -0.1230
10474SOL    HW132555   2.774   2.295   6.500  1.8526  0.1337  1.0624
10474SOL    HW232556   2.718   2.422   6.561  3.9465  1.5407  0.1559
10475SOL     OW32557   6.904   1.945   5.377  0.0392 -0.3043  0.3107
10475SOL    HW132558   6.833   1.891   5.342 -0.5058  1.2426 -1.1568
10475SOL    HW232559   6.945   1.891   5.444 -0.7266 -2.3497 -0.7664
10476SOL     OW32560   0.050   5.991   7.893 -0.3455 -0.1787  0.4043
10476SOL    HW132561  -0.014   5.960   7.956 -0.1401 -2.0734 -0.2405
10476SOL    HW232562   0.005   5.986   7.808  0.9084 -2.7027 -0.2228
10477SOL     OW32563   8.950   4.259   3.158  0.6285  0.0117  0.5147
10477SOL    HW132564   8.896   4.292   3.230 -1.3169  0.3121 -0.9882
10477SOL    HW232565   8.888   4.245   3.086  2.2918 -1.4738 -0.7218
10478SOL     OW32566   6.326   0.040   8.565 -0.2688  0.3146 -0.3206
10478SOL    HW132567   6.285  -0.036   8.523 -0.0052  0.5793 -1.0756
10478SOL    HW232568   6.256   0.080   8.615 -0.1754 -1.0090  0.9451
10479SOL     OW32569   4.668   8.163   7.225  0.3120 -0.2207 -0.5265
10479SOL    HW132570   4.653   8.149   7.131 -1.3823 -0.5562 -0.2350
10479SOL    HW232571   4.727   8.093   7.251 -0.7199 -1.2750 -0.9693
10480SOL     OW32572   1.476   3.248   3.911  0.0081 -0.0758  0.4431
10480SOL    HW132573   1.433   3.294   3.984 -1.6327 -0.1936 -0.4083
10480SOL    HW232574   1.453   3.156   3.924 -2.3375  0.1459 -1.4523
10481SOL     OW32575   7.038   2.328   1.969 -0.3392  0.4727 -0.0864
10481SOL    HW132576   7.106   2.342   1.903 -0.5882  0.4628 -0.3513
10481SOL    HW232577   7.079   2.351   2.052  0.6833 -1.6928  0.0572
10482SOL     OW32578   4.105   1.466   7.025 -0.9464 -0.0574 -0.1134
10482SOL    HW132579   4.024   1.516   7.028 -0.7752  0.6051 -3.0955
10482SOL    HW232580   4.156   1.507   6.955  1.5634 -1.0632  0.9891
10483SOL     OW32581   0.171   0.591   3.817  0.8489 -0.2241 -0.3412
10483SOL    HW132582   0.085   0.628   3.837  0.2888 -1.1109 -1.0034
10483SOL    HW232583   0.234   0.653   3.854 -0.0611  0.8083 -0.4891
10484SOL     OW32584   1.229   2.547   2.317 -0.2861 -0.0845  0.1057
10484SOL    HW132585   1.304   2.603   2.336 -0.3537 -0.3103  1.0982
10484SOL    HW232586   1.166   2.604   2.273  0.0958  0.3306  0.0930
10485SOL     OW32587   3.816   3.271   8.791  0.0817  0.5089 -0.5915
10485SOL    HW132588   3.781   3.357   8.813 -0.3656  0.4330 -0.9814
10485SOL    HW232589   3.911   3.282   8.790  0.0118  1.1141 -1.1155
10486SOL     OW32590   6.391   6.758   8.445 -0.7602  0.6138 -0.0794
10486SOL    HW132591   6.400   6.762   8.349 -0.0468 -0.6985 -0.0914
10486SOL    HW232592   6.462   6.813   8.477 -0.9404  0.9810 -0.3016
10487SOL     OW32593   4.727   7.200   2.790  1.0939 -0.3556  1.0032
10487SOL    HW132594   4.672   7.190   2.712  0.8743 -0.6667  1.1928
10487SOL    HW232595   4.706   7.287   2.823  0.9106 -0.3679  0.9238
10488SOL     OW32596   1.961   1.844   2.657  0.5175 -0.3141 -0.2633
10488SOL    HW132597   1.970   1.803   2.743  2.6783  0.7627  0.1031
10488SOL    HW232598   1.970   1.938   2.674 -0.1797  0.0233 -1.5536
10489SOL     OW32599   6.783   8.696   1.393  0.3039 -0.1603 -0.5550
10489SOL    HW132600   6.704   8.642   1.385  0.2298 -0.3106  0.8764
10489SOL    HW232601   6.840   8.646   1.452  0.5577  0.9419  0.1564
10490SOL     OW32602   4.363   0.934   5.336  0.2424  0.0085 -0.0992
10490SOL    HW132603   4.356   1.001   5.405 -1.5278  1.3103 -1.4299
10490SOL    HW232604   4.443   0.957   5.289 -0.3230  1.2356 -0.5162
10491SOL     OW32605   4.209   4.559   2.611 -0.3536 -0.2205  0.2485
10491SOL    HW132606   4.145   4.615   2.655  0.1986  0.4559  0.1889
10491SOL    HW232607   4.293   4.603   2.623  0.2184 -1.4471  0.9117
10492SOL     OW32608   7.615   0.884   8.366 -0.2561  0.5302  0.3611
10492SOL    HW132609   7.625   0.857   8.457 -0.5053  1.1349  0.5710
10492SOL    HW232610   7.699   0.924   8.343  0.3506 -0.9569 -0.1518
10493SOL     OW32611   7.660   8.293   3.807 -0.0837 -0.0456  0.0519
10493SOL    HW132612   7.594   8.224   3.805 -0.2156 -0.0625  2.4580
10493SOL    HW232613   7.610   8.374   3.798 -0.6630  0.0084  2.8502
10494SOL     OW32614   4.554   0.759   1.670 -0.1000  0.0696 -0.2670
10494SOL    HW132615   4.641   0.748   1.708 -0.7571 -2.0503  0.7989
10494SOL    HW232616   4.565   0.827   1.604  2.8381 -1.4834 -1.5834
10495SOL     OW32617   6.937   2.309   4.114 -0.5206  0.6231 -0.0811
10495SOL    HW132618   6.948   2.259   4.033  1.2569  1.8473 -0.6498
10495SOL    HW232619   6.845   2.336   4.113 -0.8751 -0.5261 -0.9804
10496SOL     OW32620   3.310   5.760   1.039 -0.0494  0.5178 -0.5297
10496SOL    HW132621   3.354   5.676   1.026 -0.2974  0.4774 -1.1292
10496SOL    HW232622   3.365   5.823   0.992  1.3487  1.0830  1.7089
10497SOL     OW32623   1.254   6.990   2.546 -0.3916 -0.4237 -0.2353
10497SOL    HW132624   1.281   6.901   2.521  1.5524 -0.9680  3.2342
10497SOL    HW232625   1.242   6.986   2.640  0.3151  3.1429  0.1255
10498SOL     OW32626   7.205   7.322   2.284  0.1167  0.2745  0.4754
10498SOL    HW132627   7.179   7.241   2.241 -1.0485  0.8447  0.0566
10498SOL    HW232628   7.231   7.296   2.372  1.3255 -0.7547 -0.1540
10499SOL     OW32629   1.170   3.906   0.875 -0.9957 -0.2808  0.3287
10499SOL    HW132630   1.253   3.872   0.842  1.0453  3.1223  1.4287
10499SOL    HW232631   1.150   3.849   0.950 -0.8716 -2.4388 -1.1726
10500SOL     OW32632   2.581   2.042   3.796  0.5864  0.2733 -0.3338
10500SOL    HW132633   2.583   2.129   3.756  2.2142  0.4501  0.0649
10500SOL    HW232634   2.567   2.059   3.889  0.4886  0.0943 -0.3171
10501SOL     OW32635   7.495   5.940   1.322  0.6529  0.2981  0.3937
10501SOL    HW132636   7.408   5.937   1.361  0.3469 -1.0170 -0.3188
10501SOL    HW232637   7.540   5.864   1.359  1.6771  1.2351  1.1223
10502SOL     OW32638   3.289   5.625   4.623 -0.2715 -0.0429  0.6536
10502SOL    HW132639   3.219   5.688   4.605 -0.6940 -0.6149  0.2445
10502SOL    HW232640   3.326   5.606   4.537 -0.3621 -0.5957  0.7344
10503SOL     OW32641   8.361   0.709   0.539  0.4710  0.4146 -0.4836
10503SOL    HW132642   8.441   0.663   0.563  1.0243  0.2295 -2.4731
10503SOL    HW232643   8.305   0.640   0.502 -0.4098  0.6362  0.4119
10504SOL     OW32644   2.268   8.375   1.365  0.1372 -0.0963 -0.1943
10504SOL    HW132645   2.220   8.401   1.286  1.2317 -1.1718 -1.2564
10504SOL    HW232646   2.219   8.301   1.400  1.2154 -1.5090 -1.5521
10505SOL     OW32647   5.323   6.662   8.396 -0.3651 -0.3393  0.6059
10505SOL    HW132648   5.271   6.722   8.342  0.3031  0.9733  1.3663
10505SOL    HW232649   5.265   6.588   8.412 -1.5836  0.5488  0.4547
10506SOL     OW32650   8.639   7.560   7.021 -0.0864 -0.1606  0.1805
10506SOL    HW132651   8.659   7.618   6.948  0.6458 -2.1587 -1.2987
10506SOL    HW232652   8.553   7.589   7.052 -0.3169  0.8799 -1.3415
10507SOL     OW32653   7.647   3.984   1.445  0.3868  0.1805  0.1779
10507SOL    HW132654   7.606   3.914   1.497  1.0534 -0.0001  0.4761
10507SOL    HW232655   7.574   4.035   1.412 -0.0950 -0.3644  0.3756
10508SOL     OW32656   5.399   2.835   4.035  0.2888  0.3368  0.4445
10508SOL    HW132657   5.398   2.921   4.076  1.0580  1.9120 -2.5435
10508SOL    HW232658   5.313   2.828   3.992  0.3918 -0.1917  0.3170
10509SOL     OW32659   4.602   4.990   5.251 -0.6122  0.0935 -0.5498
10509SOL    HW132660   4.516   4.949   5.242 -1.6688  2.1905 -0.4417
10509SOL    HW232661   4.629   4.969   5.341 -1.4069  0.1729 -0.2893
10510SOL     OW32662   3.703   8.059   7.782  0.3451  0.5392  0.5637
10510SOL    HW132663   3.657   8.000   7.841 -0.0592 -1.2752 -1.4225
10510SOL    HW232664   3.791   8.022   7.775  0.2791  0.4975 -0.2063
10511SOL     OW32665   4.515   2.220   3.960 -0.4171 -0.0629  0.1889
10511SOL    HW132666   4.514   2.298   4.015  2.0894  0.2822 -0.1439
10511SOL    HW232667   4.482   2.249   3.876 -2.9779 -0.2740  1.0512
10512SOL     OW32668   3.961   8.162   5.650  0.1769  0.6106  0.2182
10512SOL    HW132669   3.873   8.144   5.684  0.0603  1.6213  0.4699
10512SOL    HW232670   3.976   8.093   5.585 -0.7381  0.3463  0.2772
10513SOL     OW32671   0.098   2.221   8.315 -0.2409  0.2146  0.3907
10513SOL    HW132672   0.092   2.125   8.316  0.0904  0.1400 -1.1552
10513SOL    HW232673   0.022   2.251   8.365 -0.9855 -0.8514 -0.0613
10514SOL     OW32674   8.267   3.573   6.970  0.0377 -0.0706 -0.4359
10514SOL    HW132675   8.287   3.614   6.886 -1.8556 -0.2624 -1.0234
10514SOL    HW232676   8.177   3.599   6.989  0.2033 -0.5574  1.2359
10515SOL     OW32677   7.046   7.009   7.063 -0.1660  0.0785  0.1180
10515SOL    HW132678   7.003   6.928   7.088  0.4536 -0.4606 -0.5091
10515SOL    HW232679   7.007   7.033   6.979 -0.9478  0.8944  0.7029
10516SOL     OW32680   4.339   1.983   7.247 -0.0108  0.2281  0.0273
10516SOL    HW132681   4.388   2.024   7.175  3.0851 -0.9023  1.3340
10516SOL    HW232682   4.350   1.889   7.234  0.0141 -0.0100  1.5435
10517SOL     OW32683   5.739   3.052   6.688  0.0233  0.0895 -0.2588
10517SOL    HW132684   5.703   3.135   6.657  0.1696  0.3729  0.3178
10517SOL    HW232685   5.819   3.040   6.637  1.1716  1.3906  1.1198
10518SOL     OW32686   5.323   0.523   0.062  0.8230 -0.2804 -0.2364
10518SOL    HW132687   5.388   0.483   0.120 -0.0373 -0.7832  0.4090
10518SOL    HW232688   5.372   0.588   0.013  1.1687  2.0056  2.8065
10519SOL     OW32689   6.888   7.856   8.543 -0.1308  0.4351 -0.0797
10519SOL    HW132690   6.822   7.844   8.474 -0.7259 -0.2460  0.5991
10519SOL    HW232691   6.915   7.768   8.565  1.8952  0.7240 -1.1586
10520SOL     OW32692   8.756   6.339   5.451 -0.2101 -0.2194  0.6608
10520SOL    HW132693   8.712   6.262   5.415  0.1093  0.8449 -2.2006
10520SOL    HW232694   8.711   6.414   5.413  0.4212  1.0420  2.2365
10521SOL     OW32695   7.865   2.610   6.204 -0.5664 -0.5269 -0.5249
10521SOL    HW132696   7.809   2.534   6.189  1.3295 -1.8076 -1.5722
10521SOL    HW232697   7.940   2.575   6.253  0.5223  0.5481 -1.3435
10522SOL     OW32698   3.800   2.610   3.162 -0.6501  0.2818 -1.0547
10522SOL    HW132699   3.862   2.579   3.097 -0.8568  0.4214 -1.3182
10522SOL    HW232700   3.744   2.672   3.115 -1.3777 -0.3039 -0.9761
10523SOL     OW32701   0.090   6.700   0.161  0.5424 -0.2710 -0.0444
10523SOL    HW132702   0.012   6.644   0.158 -0.9013  1.5791  0.9518
10523SOL    HW232703   0.159   6.646   0.122 -1.2596 -1.9089 -1.1726
10524SOL     OW32704   7.202   4.667   6.731  0.4975 -0.3947 -0.1422
10524SOL    HW132705   7.149   4.606   6.679  2.0159 -2.2658  0.3544
10524SOL    HW232706   7.162   4.666   6.817 -1.4946  2.0281 -0.9237
10525SOL     OW32707   0.340   8.390   7.288 -0.0585  0.5466  0.2124
10525SOL    HW132708   0.306   8.470   7.249 -1.3583 -0.8631 -1.7157
10525SOL    HW232709   0.435   8.401   7.284 -0.1899  1.5022 -1.1437
10526SOL     OW32710   4.036   3.783   6.120  0.4168 -0.0820 -0.0575
10526SOL    HW132711   4.112   3.835   6.146  0.5549  0.4042 -1.3865
10526SOL    HW232712   3.974   3.846   6.084 -0.9563 -0.3673  1.6178
10527SOL     OW32713   7.057   7.176   8.930 -0.1820  0.5327  0.0341
10527SOL    HW132714   7.130   7.238   8.931 -0.6004  1.0267  0.0492
10527SOL    HW232715   7.098   7.091   8.946  0.2546  0.9401  1.1999
10528SOL     OW32716   4.170   4.109   0.402  0.0850  0.4972 -0.2190
10528SOL    HW132717   4.129   4.031   0.440  1.5038  0.2421  0.8715
10528SOL    HW232718   4.128   4.183   0.446  1.3135  0.2155  1.4999
10529SOL     OW32719   8.903   3.650   6.567  0.2128  0.2132 -0.0797
10529SOL    HW132720   8.974   3.684   6.622  0.1333  0.6170 -0.2258
10529SOL    HW232721   8.864   3.728   6.526 -1.0725  0.1197  0.8939
10530SOL     OW32722   6.050   3.086   4.794 -0.1318 -0.5592  0.1008
10530SOL    HW132723   6.007   3.036   4.724 -0.8301 -0.1663  0.2323
10530SOL    HW232724   5.979   3.106   4.855 -0.2004  1.8219 -0.6566
10531SOL     OW32725   1.169   5.716   2.426  0.1382  0.6826  0.3699
10531SOL    HW132726   1.115   5.678   2.495  0.3621  0.0062  0.1791
10531SOL    HW232727   1.159   5.656   2.352  1.3248  0.4259  0.4026
10532SOL     OW32728   8.476   5.455   5.855 -0.5050  0.0932  0.5104
10532SOL    HW132729   8.400   5.455   5.796 -0.7016 -0.5174  0.7648
10532SOL    HW232730   8.457   5.525   5.918 -0.4765  0.4849  0.0957
10533SOL     OW32731   3.577   7.555   8.441 -0.3452 -0.2099 -0.1499
10533SOL    HW132732   3.572   7.563   8.536 -3.3038  0.3955 -0.2450
10533SOL    HW232733   3.646   7.617   8.415 -0.0309  0.1876  1.5432
10534SOL     OW32734   3.293   4.161   2.444 -0.1357 -0.2269 -0.0573
10534SOL    HW132735   3.207   4.157   2.486 -1.4954 -0.1993 -2.6077
10534SOL    HW232736   3.305   4.074   2.405  0.8275 -0.1048 -0.0663
10535SOL     OW32737   7.514   4.462   8.115 -0.2829 -0.0337  0.4650
10535SOL    HW132738   7.450   4.507   8.172  0.4121  0.6755  0.6994
10535SOL    HW232739   7.599   4.489   8.149  0.1522 -1.1651  0.3019
10536SOL     OW32740   8.363   6.741   2.598 -0.0491 -0.0573 -0.9238
10536SOL    HW132741   8.367   6.657   2.644 -1.8545 -0.0281 -0.6383
10536SOL    HW232742   8.334   6.719   2.510 -0.3970  0.2419 -0.8882
10537SOL     OW32743   1.461   8.233   1.487 -0.2252 -0.2040  0.1291
10537SOL    HW132744   1.438   8.283   1.565  1.5598 -0.5881  0.9381
10537SOL    HW232745   1.478   8.145   1.518  1.7957 -0.0664 -0.4377
10538SOL     OW32746   4.711   2.866   6.081 -0.1162 -0.1371  0.2003
10538SOL    HW132747   4.692   2.956   6.104  0.0466 -0.0745  0.0915
10538SOL    HW232748   4.738   2.870   5.989 -2.5086 -0.5955 -0.5894
10539SOL     OW32749   6.391   8.242   4.534  0.1058  0.2505 -0.5053
10539SOL    HW132750   6.379   8.220   4.627  1.3420 -0.6198 -0.5344
10539SOL    HW232751   6.314   8.296   4.513  0.7654  2.1867  1.5473
10540SOL     OW32752   7.588   1.771   6.030  0.1170  0.2183  0.4793
10540SOL    HW132753   7.677   1.794   6.004 -0.1964  0.8458 -0.0930
10540SOL    HW232754   7.587   1.676   6.035  0.9016  0.2242  0.7946
10541SOL     OW32755   7.807   6.231   4.726 -0.1439 -0.5252 -0.4081
10541SOL    HW132756   7.722   6.205   4.762  0.7256  0.2112  2.4481
10541SOL    HW232757   7.869   6.172   4.768  0.7924 -1.3773 -2.8270
10542SOL     OW32758   1.462   0.264   0.217 -0.2152 -0.5094  0.2015
10542SOL    HW132759   1.552   0.240   0.242  0.1200 -0.3959 -0.8697
10542SOL    HW232760   1.436   0.198   0.153 -0.6781 -0.1835  0.0508
10543SOL     OW32761   6.846   5.394   1.219 -0.3929 -0.2694  0.2662
10543SOL    HW132762   6.826   5.451   1.144  0.9861 -2.6615 -2.1273
10543SOL    HW232763   6.761   5.355   1.241 -1.2716  2.2132  1.6599
10544SOL     OW32764   9.059   8.500   7.796 -0.5996 -0.3799 -0.2521
10544SOL    HW132765   8.969   8.531   7.787 -0.9482 -0.9050  1.1706
10544SOL    HW232766   9.066   8.428   7.734 -0.5987  0.7470 -1.6285
10545SOL     OW32767   4.651   1.446   3.548 -0.0999 -0.0636 -0.2934
10545SOL    HW132768   4.599   1.372   3.517 -0.7776  0.6029 -0.7981
10545SOL    HW232769   4.593   1.521   3.538  0.3599  0.4508  0.8056
10546SOL     OW32770   0.896   3.376   9.083  0.1453 -0.0807  0.5499
10546SOL    HW132771   0.910   3.432   9.006  1.4822  1.0741  1.5751
10546SOL    HW232772   0.822   3.416   9.129 -0.1507 -0.3145  0.2832
10547SOL     OW32773   0.931   4.038   6.220 -0.6312  0.6814  0.0384
10547SOL    HW132774   1.018   4.030   6.259  0.2978 -1.1178 -2.1095
10547SOL    HW232775   0.945   4.088   6.139 -1.3361 -0.5412 -0.8821
10548SOL     OW32776   3.911   8.896   0.330  0.0134 -0.2330 -0.1346
10548SOL    HW132777   3.900   8.929   0.420  2.0467 -0.0416  0.0882
10548SOL    HW232778   3.932   8.803   0.341  1.7741  0.1168 -0.2780
10549SOL     OW32779   0.263   4.223   1.500 -0.6402 -0.4649 -0.4365
10549SOL    HW132780   0.290   4.146   1.450 -1.6083 -1.1191  0.0256
10549SOL    HW232781   0.184   4.196   1.547 -0.6490  0.6184  0.2256
10550SOL     OW32782   4.455   3.202   5.044  0.6222  0.7828 -0.5289
10550SOL    HW132783   4.535   3.173   5.088  0.4553  0.3196 -0.5312
10550SOL    HW232784   4.405   3.122   5.031 -1.0417  1.3280  1.8085
10551SOL     OW32785   2.659   6.215   7.365 -0.1563 -0.0054 -0.5717
10551SOL    HW132786   2.723   6.256   7.424  0.4799 -0.9032 -0.6127
10551SOL    HW232787   2.713   6.171   7.299 -0.8096 -0.9706 -0.4773
10552SOL     OW32788   3.558   7.206   9.101  0.0821 -0.3495 -0.1287
10552SOL    HW132789   3.612   7.261   9.158  0.9065 -0.0127 -1.2128
10552SOL    HW232790   3.594   7.118   9.112 -0.7776 -0.5688  1.0598
10553SOL     OW32791   2.686   4.960   8.925  0.5722 -0.1321 -0.5367
10553SOL    HW132792   2.675   5.052   8.902  1.4753  0.2318  0.4215
10553SOL    HW232793   2.736   4.923   8.852  0.6373  0.2399 -0.6824
10554SOL     OW32794   4.227   3.983   6.210  0.2673 -0.2183 -0.1261
10554SOL    HW132795   4.184   4.009   6.291 -0.9476 -0.5851 -0.6319
10554SOL    HW232796   4.317   4.014   6.219  0.2648 -0.6257  1.5389
10555SOL     OW32797   3.180   1.038   5.813 -0.2568  0.6672 -0.6361
10555SOL    HW132798   3.254   0.978   5.817  1.2913  2.5205  2.0062
10555SOL    HW232799   3.187   1.079   5.726  0.1575 -1.0630 -1.4636
10556SOL     OW32800   2.435   3.237   6.114 -0.5561 -0.1382  0.5593
10556SOL    HW132801   2.498   3.257   6.044  0.0997 -1.0311  0.8733
10556SOL    HW232802   2.364   3.300   6.100  0.3524  0.8379  0.1396
10557SOL     OW32803   0.492   5.548   3.092 -0.0753 -0.3341 -0.2588
10557SOL    HW132804   0.584   5.574   3.095  0.2531 -1.4841  0.2927
10557SOL    HW232805   0.458   5.567   3.179 -0.0298 -0.9957 -0.0875
10558SOL     OW32806   4.676   4.666   8.579 -0.6050  0.3261  0.5537
10558SOL    HW132807   4.731   4.686   8.504 -1.2877 -0.2630 -0.1234
10558SOL    HW232808   4.735   4.626   8.642 -0.2159 -0.1210 -0.0846
10559SOL     OW32809   0.594   3.634   0.433 -0.6030  0.1213  0.7203
10559SOL    HW132810   0.675   3.630   0.483 -0.7382  1.5660  1.1085
10559SOL    HW232811   0.606   3.569   0.363 -0.2347 -1.6062  2.3212
10560SOL     OW32812   7.500   5.176   6.568 -0.7203 -0.0916  0.1307
10560SOL    HW132813   7.430   5.220   6.520 -0.1627 -0.7075 -1.3061
10560SOL    HW232814   7.519   5.098   6.517  0.3855 -0.4244  0.9989
10561SOL     OW32815   4.917   2.689   1.861  0.3727  0.1041 -0.1896
10561SOL    HW132816   4.867   2.771   1.858 -1.2482 -0.8402 -0.2307
10561SOL    HW232817   4.955   2.681   1.774 -0.4051  0.2659 -0.5533
10562SOL     OW32818   5.199   6.253   8.669  0.2048 -0.1893 -0.1766
10562SOL    HW132819   5.143   6.225   8.741 -0.4822  1.7775  0.0991
10562SOL    HW232820   5.140   6.293   8.606  1.0281 -0.2178 -0.9874
10563SOL     OW32821   5.246   7.895   5.288  0.3771 -0.1350 -1.2108
10563SOL    HW132822   5.185   7.967   5.300 -0.3822 -1.1558  1.9965
10563SOL    HW232823   5.326   7.922   5.334 -0.5487 -1.8778  1.7501
10564SOL     OW32824   1.061   0.212   4.579 -0.2858 -0.3926  0.3972
10564SOL    HW132825   1.105   0.135   4.543 -0.8756 -0.5996  0.1009
10564SOL    HW232826   1.007   0.245   4.506 -0.8587 -0.3315  0.8413
10565SOL     OW32827   5.092   4.037   3.916 -0.0809 -0.5898  0.3287
10565SOL    HW132828   5.036   3.968   3.880 -1.2325  0.0364  0.8676
10565SOL    HW232829   5.065   4.045   4.007 -0.1611  0.7477  0.2138
10566SOL     OW32830   5.080   5.865   5.347 -0.6435 -0.6978 -0.0028
10566SOL    HW132831   5.005   5.910   5.308 -2.6029 -2.5754  1.3020
10566SOL    HW232832   5.063   5.867   5.441  2.2941  0.9449  0.6049
10567SOL     OW32833   5.414   4.247   2.425  0.0402  0.7309  0.1903
10567SOL    HW132834   5.329   4.206   2.407 -0.3180  2.0105 -1.3164
10567SOL    HW232835   5.407   4.280   2.514 -1.2451  1.2158 -0.0657
10568SOL     OW32836   6.949   1.539   4.524  0.0715 -0.1323  0.4317
10568SOL    HW132837   6.945   1.634   4.533 -0.6901 -0.0559 -0.5118
10568SOL    HW232838   7.006   1.510   4.594 -1.4633  0.8214  2.1553
10569SOL     OW32839   4.420   8.716   0.828  0.5275  0.2563  0.0233
10569SOL    HW132840   4.440   8.690   0.918  1.5005 -0.4558 -0.3792
10569SOL    HW232841   4.496   8.768   0.801 -0.0248  0.9605 -0.2006
10570SOL     OW32842   4.933   7.633   1.295 -0.6182 -0.5749  0.0629
10570SOL    HW132843   4.902   7.580   1.368 -0.0127 -1.4359 -0.2867
10570SOL    HW232844   5.002   7.687   1.332  0.7939 -2.1411 -0.1690
10571SOL     OW32845   4.512   8.765   4.319  0.0074 -0.0605 -0.0523
10571SOL    HW132846   4.509   8.724   4.405  1.6326 -1.6645 -0.6954
10571SOL    HW232847   4.585   8.827   4.324 -2.0313  2.4878  0.7097
10572SOL     OW32848   0.788   3.963   8.723  0.2835  0.4501  0.4649
10572SOL    HW132849   0.858   4.026   8.704  0.1167  0.6294  0.4302
10572SOL    HW232850   0.776   3.968   8.817  1.9207 -1.3096  0.8201
10573SOL     OW32851   0.903   4.103   3.397 -0.3035 -0.2043 -0.2526
10573SOL    HW132852   0.954   4.183   3.387  0.1256 -0.3322  0.8120
10573SOL    HW232853   0.966   4.037   3.422 -0.3020 -1.4162 -3.0895
10574SOL     OW32854   8.006   0.029   4.353 -0.7990 -0.0520 -0.1086
10574SOL    HW132855   7.992   0.070   4.267 -2.0994  0.3537  0.2859
10574SOL    HW232856   8.076   0.082   4.393  0.5393 -0.8471 -1.2741
10575SOL     OW32857   1.132   6.501   8.547 -0.2448 -0.1433  0.2246
10575SOL    HW132858   1.216   6.526   8.509 -0.5505 -0.7984 -0.9120
10575SOL    HW232859   1.145   6.512   8.641  1.7394 -2.0278  0.2533
10576SOL     OW32860   6.126   6.915   3.973  0.3885  0.1975 -0.0546
10576SOL    HW132861   6.184   6.913   4.049  0.3692  0.9205 -0.0152
10576SOL    HW232862   6.092   6.826   3.967  2.0822 -0.4626 -0.5418
10577SOL     OW32863   4.646   1.636   6.027  0.2969 -0.3298 -0.8648
10577SOL    HW132864   4.641   1.727   5.997  1.2811 -0.4084 -1.3107
10577SOL    HW232865   4.564   1.623   6.076  0.5338  1.0662 -0.0157
10578SOL     OW32866   2.044   1.905   0.189 -0.1902 -0.6523 -0.0983
10578SOL    HW132867   2.040   1.997   0.213 -3.0898 -0.4733 -0.8998
10578SOL    HW232868   2.088   1.862   0.263 -0.4997  1.1042  1.1536
10579SOL     OW32869   9.074   6.199   1.585  0.2372 -0.1246 -0.4254
10579SOL    HW132870   9.169   6.195   1.585  0.2349 -0.4306 -1.6190
10579SOL    HW232871   9.048   6.140   1.657  0.8646 -4.0923 -3.1389
10580SOL     OW32872   7.968   5.867   2.414  0.0357  0.0098  0.3429
10580SOL    HW132873   7.920   5.940   2.376  1.3565  0.9545  0.4171
10580SOL    HW232874   7.948   5.793   2.356  0.5259  0.9830 -1.1546
10581SOL     OW32875   9.081   2.936   6.794 -0.6207  0.3698  0.2908
10581SOL    HW132876   8.993   2.909   6.769  0.2064 -2.1166 -0.2060
10581SOL    HW232877   9.123   2.961   6.712 -0.0672 -1.0380  0.1231
10582SOL     OW32878   1.383   0.556   5.657  0.3531  0.4439 -0.1327
10582SOL    HW132879   1.343   0.475   5.688  0.1293  1.1829  1.6817
10582SOL    HW232880   1.477   0.536   5.651  0.7808  0.7925  3.3454
10583SOL     OW32881   5.590   2.946   5.578  0.8494  0.2950 -0.4419
10583SOL    HW132882   5.654   3.011   5.606  1.5743 -0.1547 -1.0022
10583SOL    HW232883   5.563   2.975   5.490  0.1684  0.5626 -0.1493
10584SOL     OW32884   1.061   0.375   8.162  0.4632 -0.2660  0.0925
10584SOL    HW132885   1.145   0.329   8.164 -0.1849 -1.4897  0.6539
10584SOL    HW232886   1.045   0.394   8.070  0.7485 -1.2006 -0.1543
10585SOL     OW32887   8.764   4.609   2.033  0.4947 -0.0453  0.3434
10585SOL    HW132888   8.785   4.524   2.072 -0.0485 -0.6725 -0.6738
10585SOL    HW232889   8.847   4.643   2.002  0.7345 -0.1438  0.8671
10586SOL     OW32890   7.766   8.772   2.542 -0.6700  0.2486 -0.2218
10586SOL    HW132891   7.745   8.737   2.455  0.7110  0.0638 -0.5049
10586SOL    HW232892   7.739   8.703   2.603 -3.6415  1.2230 -0.2740
10587SOL     OW32893   1.869   7.465   9.007 -0.7777  0.2439 -0.3654
10587SOL    HW132894   1.843   7.545   9.052  0.7408 -0.5681  2.2380
10587SOL    HW232895   1.965   7.465   9.013 -0.7301 -1.5473 -0.6277
10588SOL     OW32896   0.143   8.122   6.649  0.1597  0.3719 -0.0866
10588SOL    HW132897   0.137   8.103   6.555  0.2901  0.7905 -0.1846
10588SOL    HW232898   0.120   8.215   6.656 -0.4309  0.1914  0.3714
10589SOL     OW32899   3.087   5.802   4.510  0.1420  0.0255 -0.3380
10589SOL    HW132900   3.073   5.892   4.481  1.6281  0.4424  0.1944
10589SOL    HW232901   3.098   5.753   4.429 -1.1827  0.2013 -0.6566
10590SOL     OW32902   1.910   6.039   5.818 -0.1102  0.0287  0.3521
10590SOL    HW132903   1.888   6.119   5.771 -0.1804 -0.3712 -0.3186
10590SOL    HW232904   1.840   5.978   5.795  0.0173 -0.2668  0.7433
10591SOL     OW32905   6.209   5.420   7.233 -0.1157 -0.0183  0.4411
10591SOL    HW132906   6.289   5.388   7.273  0.0553 -1.9856 -1.2707
10591SOL    HW232907   6.230   5.429   7.140 -1.8025 -0.4034 -0.0240
10592SOL     OW32908   2.145   2.949   5.000 -0.6673  0.5331  0.1994
10592SOL    HW132909   2.063   2.991   4.972  0.7939  2.5061 -1.4386
10592SOL    HW232910   2.197   3.021   5.036  1.9093  0.2263 -2.5976
10593SOL     OW32911   7.655   8.000   7.628  0.7961  0.2229 -0.1236
10593SOL    HW132912   7.645   8.007   7.533 -0.0837 -0.9178 -0.1309
10593SOL    HW232913   7.602   7.924   7.653 -2.7203  2.9809  1.8410
10594SOL     OW32914   7.029   5.788   8.195  0.4316  0.6595 -0.3535
10594SOL    HW132915   7.092   5.742   8.140  0.8887 -0.3364  0.9441
10594SOL    HW232916   7.063   5.778   8.284 -1.4642  0.2507  0.3733
10595SOL     OW32917   5.172   4.310   8.671  0.0260  0.9432 -0.0786
10595SOL    HW132918   5.189   4.394   8.628 -1.8713  1.5241  0.1873
10595SOL    HW232919   5.103   4.330   8.735  0.9527 -0.4263  1.4179
10596SOL     OW32920   1.029   2.597   7.479  0.2820  0.6161  0.3985
10596SOL    HW132921   0.974   2.652   7.423  1.1816  0.8005 -0.3337
10596SOL    HW232922   0.990   2.605   7.567 -0.5870  1.0761 -0.0168
10597SOL     OW32923   5.369   0.214   5.366  0.3352 -0.1413  0.1167
10597SOL    HW132924   5.314   0.170   5.431  0.3513 -1.5917 -0.7987
10597SOL    HW232925   5.339   0.179   5.282  0.9462  0.9847 -0.5940
10598SOL     OW32926   2.476   5.901   5.518  0.7423 -0.0901 -0.1567
10598SOL    HW132927   2.565   5.881   5.490  1.0917 -0.6934  1.2484
10598SOL    HW232928   2.436   5.815   5.533  0.1755  0.1830 -0.0761
10599SOL     OW32929   5.648   2.917   0.008  0.8799  0.7340  0.5981
10599SOL    HW132930   5.586   2.856  -0.031  2.2637 -0.8510  0.7515
10599SOL    HW232931   5.631   2.912   0.102  0.3047  1.4012  0.5377
10600SOL     OW32932   4.740   5.490   2.544  0.1937  0.2052  0.2396
10600SOL    HW132933   4.652   5.516   2.572 -0.2070 -1.2065  0.4014
10600SOL    HW232934   4.735   5.486   2.449  0.1039  0.2388  0.2427
10601SOL     OW32935   0.843   7.347   7.951  0.6704  0.2082  0.2528
10601SOL    HW132936   0.864   7.268   7.901 -0.1073  0.7283 -0.9339
10601SOL    HW232937   0.900   7.342   8.028  0.5167 -1.5967  0.2974
10602SOL     OW32938   4.685   0.576   0.754  0.5726  0.0506 -0.4489
10602SOL    HW132939   4.743   0.651   0.743 -0.0792  0.7470  0.7310
10602SOL    HW232940   4.744   0.500   0.757  1.5457  0.8123  1.4845
10603SOL     OW32941   1.656   5.361   0.923  0.4985 -0.0880 -0.0130
10603SOL    HW132942   1.651   5.325   0.835  0.7683  0.0851 -0.1002
10603SOL    HW232943   1.633   5.288   0.980  2.3398 -0.8066 -0.1104
10604SOL     OW32944   7.213   6.205   2.032 -0.8600 -0.2659 -0.2034
10604SOL    HW132945   7.217   6.300   2.037 -1.2656 -0.1837 -1.2636
10604SOL    HW232946   7.280   6.175   2.095  1.1780  0.7483 -1.7532
10605SOL     OW32947   2.961   4.569   8.711 -0.0121 -0.0906 -0.2263
10605SOL    HW132948   2.910   4.491   8.691 -3.0427  1.9305 -1.2214
10605SOL    HW232949   3.021   4.578   8.637 -0.7704 -0.6629 -0.9328
10606SOL     OW32950   2.853   6.385   8.743 -0.3668 -1.2279  0.3291
10606SOL    HW132951   2.812   6.375   8.657  0.0985 -0.9602  0.0745
10606SOL    HW232952   2.946   6.395   8.724 -0.4885  1.1861  0.6888
10607SOL     OW32953   6.699   0.172   3.874 -0.4794 -0.3206 -0.5140
10607SOL    HW132954   6.671   0.213   3.792  0.8541  2.1923  0.1696
10607SOL    HW232955   6.787   0.208   3.890 -1.0289 -0.0277  2.4100
10608SOL     OW32956   6.687   8.328   1.485  0.3490 -0.6340 -0.3744
10608SOL    HW132957   6.775   8.349   1.516 -0.6171  1.1647  1.4417
10608SOL    HW232958   6.690   8.343   1.391  1.6295  0.8869 -0.1330
10609SOL     OW32959   7.839   1.175   0.278  0.3146  0.0578  0.4803
10609SOL    HW132960   7.800   1.099   0.323  1.6061 -1.3007 -0.6142
10609SOL    HW232961   7.802   1.171   0.190 -1.6206  2.2803  1.0805
10610SOL     OW32962   4.549   2.462   8.364  0.5313 -0.3151  0.0975
10610SOL    HW132963   4.579   2.552   8.374  0.7293 -0.3494 -0.1761
10610SOL    HW232964   4.601   2.427   8.291 -0.1390 -0.3910 -0.3495
10611SOL     OW32965   0.598   2.094   6.952 -0.2516  0.1955 -0.4283
10611SOL    HW132966   0.669   2.082   6.889 -0.9118  1.8794 -1.5753
10611SOL    HW232967   0.616   2.179   6.993  0.0987 -0.8135  1.6285
10612SOL     OW32968   4.989   4.092   4.975  0.3045 -0.3985  0.2915
10612SOL    HW132969   5.074   4.096   4.932 -0.4372  0.3413 -1.1902
10612SOL    HW232970   5.006   4.120   5.065  1.6180 -0.2570  0.0142
10613SOL     OW32971   6.494   7.153   5.637  0.4609  0.6201 -0.2630
10613SOL    HW132972   6.580   7.115   5.621 -1.1543 -3.5544 -0.3358
10613SOL    HW232973   6.463   7.179   5.550  0.6965 -0.2693 -0.6238
10614SOL     OW32974   0.682   5.290   7.884 -0.0210  0.5289  0.0875
10614SOL    HW132975   0.712   5.200   7.898 -0.4400  0.2585 -0.7367
10614SOL    HW232976   0.588   5.283   7.869 -0.1487  1.1623  0.5125
10615SOL     OW32977   3.048   0.375   3.197  0.2734  0.5184 -0.3037
10615SOL    HW132978   3.102   0.315   3.145  2.6594  1.8005  0.5687
10615SOL    HW232979   3.015   0.322   3.269 -0.5616 -0.5346 -1.4138
10616SOL     OW32980   0.465   8.110   9.035 -0.1817  0.2499 -0.3574
10616SOL    HW132981   0.482   8.204   9.041  1.0829 -0.0015  0.5208
10616SOL    HW232982   0.380   8.098   9.076  0.1107  0.9124  0.4829
10617SOL     OW32983   2.246   2.388   6.495  1.1015  0.0239  0.4402
10617SOL    HW132984   2.239   2.344   6.410  2.2095  0.8052 -0.0924
10617SOL    HW232985   2.320   2.345   6.538  2.1733  1.2759 -0.0732
10618SOL     OW32986   2.252   1.700   2.798 -0.0971  0.5685 -0.2585
10618SOL    HW132987   2.169   1.682   2.842 -0.4012  2.9641  0.2716
10618SOL    HW232988   2.238   1.668   2.708 -1.0705 -0.3047  0.1744
10619SOL     OW32989   4.170   7.549   6.761 -0.3352  0.1169  0.0314
10619SOL    HW132990   4.115   7.562   6.837  0.2116  0.6802  0.3434
10619SOL    HW232991   4.175   7.635   6.720 -1.6878 -0.4414 -1.4008
10620SOL     OW32992   2.961   8.781   0.473  0.1424 -0.5561 -0.1919
10620SOL    HW132993   3.013   8.705   0.498  0.4415 -0.2206  0.2224
10620SOL    HW232994   2.950   8.830   0.554 -2.1832 -1.4156  0.0704
10621SOL     OW32995   5.693   0.456   8.444  0.5090  0.2669 -0.3654
10621SOL    HW132996   5.764   0.515   8.470  0.9138 -0.1991 -0.4065
10621SOL    HW232997   5.734   0.393   8.384  0.2989 -0.6092  0.3795
10622SOL     OW32998   1.864   3.659   4.466 -0.0475 -0.0729  0.1272
10622SOL    HW132999   1.801   3.632   4.532 -0.0249  1.5402  0.8787
10622SOL    HW233000   1.818   3.650   4.383  0.2947 -3.1960  0.1906
10623SOL     OW33001   6.081   4.128   5.555 -0.1827 -0.5768  0.6139
10623SOL    HW133002   6.100   4.056   5.616  0.0563 -0.7205  0.3720
10623SOL    HW233003   5.999   4.102   5.513  0.6836 -1.4880 -0.6101
10624SOL     OW33004   6.011   3.003   4.490  0.2370  0.1961 -0.6651
10624SOL    HW133005   5.921   3.025   4.462  0.6179  0.4352 -1.7683
10624SOL    HW233006   6.064   3.076   4.458  0.4494  1.7583  2.7779
10625SOL     OW33007   7.160   4.713   8.525  0.2665 -0.1850  0.9282
10625SOL    HW133008   7.095   4.649   8.553 -1.2897  0.8181 -0.2668
10625SOL    HW233009   7.172   4.771   8.600 -1.0899  0.2926  0.7947
10626SOL     OW33010   8.768   2.352   1.874 -0.1925  0.1928  0.4769
10626SOL    HW133011   8.750   2.370   1.782  2.9706 -0.0135 -0.3159
10626SOL    HW233012   8.759   2.257   1.883 -3.2348  0.4487  1.1837
10627SOL     OW33013   8.353   2.622   2.274  0.3499 -0.6034  0.6958
10627SOL    HW133014   8.277   2.597   2.327  0.6346 -2.0342  0.4683
10627SOL    HW233015   8.378   2.541   2.229  0.5649  0.3983 -1.0632
10628SOL     OW33016   2.136   3.910   3.518  0.2121  0.1507  0.2597
10628SOL    HW133017   2.089   3.920   3.435  1.2020  2.8693 -0.1009
10628SOL    HW233018   2.069   3.917   3.585 -0.5726 -1.8719 -0.2558
10629SOL     OW33019   6.300   8.884   4.794 -0.0652  0.9864  0.2975
10629SOL    HW133020   6.243   8.919   4.726 -2.6522 -1.2502  1.1416
10629SOL    HW233021   6.308   8.791   4.774 -0.0249  0.4691  2.4099
10630SOL     OW33022   4.041   2.634   2.211  0.1556  1.3966  0.6682
10630SOL    HW133023   4.013   2.544   2.193  2.5539  0.6318  0.3986
10630SOL    HW233024   4.042   2.640   2.306 -0.0440  1.1677  0.6873
10631SOL     OW33025   1.258   1.777   5.270  0.1287 -0.2259 -0.4760
10631SOL    HW133026   1.258   1.805   5.178 -0.2275  1.9181  0.1166
10631SOL    HW233027   1.347   1.747   5.286 -0.0154 -1.4242 -1.7155
10632SOL     OW33028   4.221   8.290   1.269  0.4123 -0.3664  0.0093
10632SOL    HW133029   4.129   8.318   1.270  1.0824  2.1699  2.7626
10632SOL    HW233030   4.234   8.248   1.354  1.8209 -0.7767 -0.3838
10633SOL     OW33031   3.218   7.082   0.577 -0.5065 -0.1845  0.7130
10633SOL    HW133032   3.300   7.124   0.605 -1.5111  0.1866  3.4708
10633SOL    HW233033   3.191   7.131   0.500  1.5330  0.0939  0.1121
10634SOL     OW33034   0.277   2.826   7.481  0.3006 -0.1985 -0.0111
10634SOL    HW133035   0.223   2.836   7.559  0.0062 -1.3698 -0.0499
10634SOL    HW233036   0.214   2.806   7.411  0.7318 -1.0996 -0.1488
10635SOL     OW33037   2.342   8.035   3.061 -0.1215  0.5455 -0.2665
10635SOL    HW133038   2.319   8.083   2.981 -2.8593 -1.2662 -0.7045
10635SOL    HW233039   2.275   8.060   3.124 -0.6604 -1.3835 -0.0022
10636SOL     OW33040   4.740   8.059   8.165 -0.7851 -1.2950  0.1433
10636SOL    HW133041   4.755   8.137   8.219 -2.2408 -0.9439  0.0742
10636SOL    HW233042   4.668   8.083   8.107  0.2806 -1.9029 -1.5115
10637SOL     OW33043   6.084   3.623   5.116 -0.1181  0.5838  0.4354
10637SOL    HW133044   6.068   3.532   5.138  1.1754  0.0049 -0.8549
10637SOL    HW233045   6.177   3.637   5.137 -0.2180  1.5218  0.3199
10638SOL     OW33046   5.660   7.685   7.321  0.0007  0.0277 -0.1399
10638SOL    HW133047   5.669   7.594   7.349 -1.0647 -0.3590 -0.9863
10638SOL    HW233048   5.747   7.723   7.333  0.3039 -0.9256  0.8093
10639SOL     OW33049   4.268   8.850   7.872 -0.1166  0.1803  0.4102
10639SOL    HW133050   4.311   8.921   7.825  2.3169  0.1255  2.3146
10639SOL    HW233051   4.292   8.771   7.824  0.1761  0.3536  0.2718
10640SOL     OW33052   1.826   6.889   6.756 -0.0535 -0.4668 -0.3248
10640SOL    HW133053   1.805   6.885   6.663 -0.5312  0.8163 -0.3025
10640SOL    HW233054   1.850   6.981   6.771 -0.0440 -0.6404  0.8272
10641SOL     OW33055   2.561   5.673   2.677 -0.3818 -0.0168  0.2367
10641SOL    HW133056   2.575   5.590   2.631  1.2247  0.8012 -0.8274
10641SOL    HW233057   2.630   5.675   2.744 -0.4634  0.4251  0.3090
10642SOL     OW33058   8.975   1.987   5.837  0.0515 -0.5989 -0.4423
10642SOL    HW133059   8.920   2.000   5.760 -1.3723  0.8716  0.7309
10642SOL    HW233060   8.970   2.071   5.884  0.7737 -1.4720  1.2926
10643SOL     OW33061   6.532   1.578   1.261  0.0605 -0.2612 -0.4449
10643SOL    HW133062   6.518   1.611   1.349  0.9964  2.6565 -1.2679
10643SOL    HW233063   6.493   1.644   1.204  0.5176 -1.4737 -2.2548
10644SOL     OW33064   3.924   8.927   6.886  0.3952  0.0766  0.3985
10644SOL    HW133065   4.012   8.937   6.850  0.3536 -0.2670  0.1978
10644SOL    HW233066   3.877   9.004   6.856  0.1144 -0.6046 -1.0060
10645SOL     OW33067   1.579   5.187   5.379 -0.7976  0.6148  0.0311
10645SOL    HW133068   1.596   5.114   5.438 -0.4697  0.3292 -0.4074
10645SOL    HW233069   1.483   5.192   5.374 -0.8268 -0.0118 -0.2010
10646SOL     OW33070   7.535   4.980   6.796  0.6153  0.2761 -0.3005
10646SOL    HW133071   7.452   4.933   6.787  0.3616  0.2238  1.8621
10646SOL    HW233072   7.528   5.053   6.734 -1.5319  0.9088  0.6139
10647SOL     OW33073   0.924   3.248   6.726  0.7796  0.3198 -0.3000
10647SOL    HW133074   0.833   3.232   6.749 -0.3493  2.8898 -2.4773
10647SOL    HW233075   0.930   3.225   6.633  2.2305  0.6336 -0.3166
10648SOL     OW33076   6.358   4.633   0.041  0.2791 -0.1093 -0.2953
10648SOL    HW133077   6.450   4.644   0.017  0.0900  0.0162 -1.0023
10648SOL    HW233078   6.331   4.720   0.072  0.4865 -0.2334  0.2377
10649SOL     OW33079   2.205   8.158   4.726  0.0141  0.3831  0.4605
10649SOL    HW133080   2.113   8.135   4.739 -0.3822 -0.4368 -2.8285
10649SOL    HW233081   2.254   8.085   4.763 -0.7579 -0.0722  0.5952
10650SOL     OW33082   7.677   3.299   1.456  0.0109 -0.8932 -0.1671
10650SOL    HW133083   7.764   3.336   1.472  0.4204 -0.9523 -2.0304
10650SOL    HW233084   7.649   3.267   1.542  1.7085 -0.6345  0.5347
10651SOL     OW33085   1.730   3.105   6.660 -0.1313  0.2321 -0.0048
10651SOL    HW133086   1.635   3.097   6.666 -0.0665  0.1837  1.0250
10651SOL    HW233087   1.747   3.198   6.669 -0.0745  0.2491 -0.2596
10652SOL     OW33088   3.258   5.769   8.852  0.0456  0.4852  0.4360
10652SOL    HW133089   3.282   5.819   8.930 -1.3031  0.9380  0.5849
10652SOL    HW233090   3.317   5.801   8.784  1.1397  0.1871  1.2244
10653SOL     OW33091   6.179   5.881   6.480 -0.2382  0.1919  0.3169
10653SOL    HW133092   6.116   5.810   6.468  0.3991 -0.4524  0.6843
10653SOL    HW233093   6.141   5.955   6.432 -1.2837 -0.1646  0.5578
10654SOL     OW33094   5.928   2.572   4.299  0.2429 -0.1603 -0.4351
10654SOL    HW133095   5.888   2.592   4.214  2.5207  0.5530 -1.4203
10654SOL    HW233096   5.963   2.656   4.329 -0.2233 -0.4682  1.0990
10655SOL     OW33097   5.602   3.004   0.319 -0.2930 -0.0134  0.3042
10655SOL    HW133098   5.541   2.998   0.392  0.9449  0.5855  1.4346
10655SOL    HW233099   5.592   3.093   0.286  1.2181  0.7090  1.6772
10656SOL     OW33100   1.015   5.725   6.215 -0.0284 -0.2914  0.5912
10656SOL    HW133101   0.990   5.635   6.236  1.8143 -1.0650 -0.2670
10656SOL    HW233102   0.961   5.748   6.139  0.9945 -1.5093 -0.5447
10657SOL     OW33103   1.629   8.156   7.352 -0.1533 -0.3722  0.1861
10657SOL    HW133104   1.698   8.172   7.287 -1.4014  2.8477 -0.5733
10657SOL    HW233105   1.671   8.172   7.436  0.8863 -2.1756  0.0472
10658SOL     OW33106   7.506   1.763   7.273  0.4686  0.2806 -0.2961
10658SOL    HW133107   7.471   1.850   7.295 -1.8004  0.6976 -4.4870
10658SOL    HW233108   7.437   1.703   7.300  0.8598  0.0042  0.1174
10659SOL     OW33109   0.867   4.244   0.878  0.1641 -0.1852  0.2921
10659SOL    HW133110   0.775   4.262   0.856 -0.2978 -0.8783  1.5804
10659SOL    HW233111   0.870   4.150   0.892  0.4991  0.1334  2.7098
10660SOL     OW33112   8.694   0.993   1.724  0.3354  0.2478  0.6700
10660SOL    HW133113   8.761   1.003   1.792  1.6314 -1.0025 -0.3672
10660SOL    HW233114   8.633   0.928   1.760  0.1187  0.7765  1.2775
10661SOL     OW33115   2.836   3.243   5.306  0.6248  0.0051 -0.2083
10661SOL    HW133116   2.838   3.297   5.227 -0.7124  0.2605 -0.0838
10661SOL    HW233117   2.852   3.154   5.275 -0.3010  0.0446 -0.8311
10662SOL     OW33118   5.154   7.328   1.588  0.0199 -0.4840 -0.6518
10662SOL    HW133119   5.193   7.306   1.672 -1.9818  0.5438  0.6237
10662SOL    HW233120   5.215   7.390   1.549  1.3255 -1.5103 -0.3263
10663SOL     OW33121   2.187   6.815   6.187 -0.0086  0.3139  0.3087
10663SOL    HW133122   2.154   6.885   6.130 -0.0918  0.3993  0.4601
10663SOL    HW233123   2.282   6.827   6.188 -0.0156  0.3715  0.2660
10664SOL     OW33124   1.611   0.908   0.252 -0.2740 -0.6777  0.2023
10664SOL    HW133125   1.539   0.969   0.235  0.6558  0.5692  0.5331
10664SOL    HW233126   1.620   0.908   0.348  0.7577 -0.0760  0.1202
10665SOL     OW33127   3.738   7.080   6.319 -0.0942  0.2604  0.7049
10665SOL    HW133128   3.676   7.009   6.334  0.5897 -0.1737  1.6005
10665SOL    HW233129   3.706   7.152   6.374 -0.6671  0.5919 -0.0402
10666SOL     OW33130   7.625   5.608   2.212 -0.1627 -0.1146 -0.0480
10666SOL    HW133131   7.603   5.641   2.299 -1.1398 -2.0277  0.4645
10666SOL    HW233132   7.710   5.566   2.223  0.1311  0.4224 -0.2360
10667SOL     OW33133   5.595   0.967   4.153  0.0325 -0.0407 -0.0170
10667SOL    HW133134   5.564   0.892   4.102  1.9883  0.3957 -1.9862
10667SOL    HW233135   5.689   0.969   4.138  0.1128  2.4627  0.4615
10668SOL     OW33136   7.804   7.186   6.994 -0.5540 -0.3022 -0.0338
10668SOL    HW133137   7.824   7.099   7.029  0.9828  0.8819  2.2651
10668SOL    HW233138   7.821   7.246   7.067 -3.9761  1.7669 -0.7365
10669SOL     OW33139   1.348   4.974   6.248 -0.1099 -0.2860  0.6180
10669SOL    HW133140   1.371   5.052   6.199 -0.8099 -0.4998 -0.0684
10669SOL    HW233141   1.365   4.901   6.188  0.1588 -0.6355  1.1100
10670SOL     OW33142   0.758   0.400   6.639 -0.0344 -0.2311  0.0650
10670SOL    HW133143   0.721   0.313   6.624  0.9918 -0.4841 -1.1094
10670SOL    HW233144   0.778   0.402   6.733 -1.0874 -0.8361  0.3183
10671SOL     OW33145   8.781   6.933   0.959 -0.9093  0.1203  0.1330
10671SOL    HW133146   8.803   6.848   0.921 -0.4961  0.4800 -0.4476
10671SOL    HW233147   8.831   6.996   0.908 -0.6824  0.6610  0.9956
10672SOL     OW33148   0.790   0.080   0.366  0.0504  0.4167 -0.4170
10672SOL    HW133149   0.711   0.130   0.388  0.9231  1.2912  0.8929
10672SOL    HW233150   0.848   0.093   0.441  0.7097 -1.7890 -0.4616
10673SOL     OW33151   6.430   5.207   4.619  0.0239 -0.0095  0.4028
10673SOL    HW133152   6.359   5.269   4.600  0.5910  0.8191  0.9187
10673SOL    HW233153   6.405   5.165   4.701  0.2998  0.5568  0.7829
10674SOL     OW33154   8.516   3.551   5.684 -0.6202 -0.0453 -0.4672
10674SOL    HW133155   8.471   3.545   5.769 -1.4197  1.5036 -0.7473
10674SOL    HW233156   8.448   3.576   5.622  0.2578  0.4442 -1.2643
10675SOL     OW33157   0.651   0.844   6.095  0.2594 -0.1194  0.0525
10675SOL    HW133158   0.667   0.765   6.147 -0.2515 -0.5572 -0.4306
10675SOL    HW233159   0.637   0.810   6.006 -3.4320  0.1482  0.4048
10676SOL     OW33160   7.756   8.367   8.913  0.1374 -0.2673 -0.3025
10676SOL    HW133161   7.742   8.308   8.840  1.9255  0.4521 -1.2953
10676SOL    HW233162   7.772   8.452   8.873  0.3909  0.3052  0.9556
10677SOL     OW33163   7.106   8.952   8.305 -0.6541 -0.0252 -0.4890
10677SOL    HW133164   7.119   8.867   8.263 -0.7300  0.0712 -0.7063
10677SOL    HW233165   7.018   8.948   8.342  0.0574 -0.7789  1.2255
10678SOL     OW33166   9.040   3.754   5.903  0.2316 -0.8386  0.3764
10678SOL    HW133167   9.120   3.785   5.946  0.4528 -0.9976  0.0840
10678SOL    HW233168   9.064   3.746   5.811  0.0573 -1.4929  0.3838
10679SOL     OW33169   6.456   0.756   7.637  0.5658  0.3627  0.0443
10679SOL    HW133170   6.387   0.778   7.700  1.2843  1.2526  0.5522
10679SOL    HW233171   6.410   0.718   7.563 -0.4412  0.6521  0.5017
10680SOL     OW33172   5.402   2.892   4.435  0.2087 -0.2291  0.4390
10680SOL    HW133173   5.348   2.892   4.356  0.6139 -0.2168  0.1604
10680SOL    HW233174   5.434   2.802   4.443  2.7324  0.4171 -1.1965
10681SOL     OW33175   2.386   8.808   8.392  0.1078  0.3093 -0.2167
10681SOL    HW133176   2.387   8.891   8.439 -2.4316  0.7541 -0.7955
10681SOL    HW233177   2.301   8.770   8.411  1.3267 -2.3997  0.3116
10682SOL     OW33178   6.031   4.768   1.616  0.0653 -0.0632 -0.5336
10682SOL    HW133179   6.023   4.672   1.615 -1.1240 -0.0478  1.4611
10682SOL    HW233180   5.954   4.798   1.664  0.4387  1.9118 -1.0780
10683SOL     OW33181   2.657   0.882   7.093  0.2119  0.5016  0.6534
10683SOL    HW133182   2.625   0.902   7.181  0.7367  0.5661  0.8333
10683SOL    HW233183   2.707   0.959   7.067 -0.1322  0.5737  0.2048
10684SOL     OW33184   5.006   5.293   6.913  0.3299  0.1275  0.0798
10684SOL    HW133185   5.021   5.387   6.910 -0.1666  0.1960 -0.5172
10684SOL    HW233186   5.082   5.254   6.869  0.3647  0.2724  0.0132
10685SOL     OW33187   7.612   0.871   6.179  0.4033 -0.7168  0.0000
10685SOL    HW133188   7.528   0.852   6.221  1.1420 -0.4306  1.6785
10685SOL    HW233189   7.675   0.874   6.251  1.7266 -0.1268 -1.1315
10686SOL     OW33190   3.920   2.878   1.651 -0.2410 -0.1401  0.8752
10686SOL    HW133191   4.009   2.872   1.618 -0.6754  0.2113 -0.4176
10686SOL    HW233192   3.882   2.792   1.634 -0.7021  0.2763 -0.3010
10687SOL     OW33193   5.314   7.732   3.780 -0.0373  0.1785  0.3745
10687SOL    HW133194   5.354   7.672   3.717 -1.6262 -2.0806  1.3587
10687SOL    HW233195   5.384   7.753   3.841  0.2578 -1.9259  0.8405
10688SOL     OW33196   0.460   5.820   1.014 -0.0028  0.0425  0.2881
10688SOL    HW133197   0.533   5.762   0.992  0.8302  1.1464 -0.0083
10688SOL    HW233198   0.471   5.838   1.108  0.6396  0.8744  0.0706
10689SOL     OW33199   0.625   1.583   7.438 -0.6525  0.5604 -0.5186
10689SOL    HW133200   0.616   1.600   7.344 -0.5056  1.3187 -0.4063
10689SOL    HW233201   0.659   1.494   7.443 -0.3994  0.6092 -1.1986
10690SOL     OW33202   5.198   8.542   0.497  0.5065 -0.0536 -0.4121
10690SOL    HW133203   5.198   8.474   0.564  2.3613 -1.6396 -1.9002
10690SOL    HW233204   5.288   8.574   0.494  0.0739  1.1626 -1.0187
10691SOL     OW33205   7.015   7.898   5.446 -0.4028 -0.6925  0.9215
10691SOL    HW133206   6.969   7.829   5.397  0.3253  0.6654 -1.9080
10691SOL    HW233207   7.005   7.873   5.538 -1.7349 -3.5510  0.1241
10692SOL     OW33208   3.010   1.845   4.307 -0.5263 -0.2135  0.1156
10692SOL    HW133209   2.953   1.878   4.238  0.7632 -0.4019 -1.0681
10692SOL    HW233210   2.949   1.806   4.371 -1.7246 -0.3766 -1.0776
10693SOL     OW33211   5.856   3.418   3.897  0.3825 -0.2776 -1.4564
10693SOL    HW133212   5.781   3.426   3.957  2.5457 -1.6228  1.7244
10693SOL    HW233213   5.850   3.495   3.841 -0.9920  2.1218  1.6394
10694SOL     OW33214   2.849   6.404   0.315  0.2721 -0.1528 -0.1262
10694SOL    HW133215   2.840   6.498   0.331 -0.5292 -0.0546 -1.0348
10694SOL    HW233216   2.763   6.368   0.337  0.4356 -0.6077 -0.2240
10695SOL     OW33217   5.653   5.918   5.832 -0.0424  0.3837  0.2507
10695SOL    HW133218   5.637   5.875   5.916 -1.8548  1.9611  0.7668
10695SOL    HW233219   5.710   5.992   5.854  2.0237 -0.9212 -0.4407
10696SOL     OW33220   1.941   4.093   9.027  0.6081 -0.1228  0.3640
10696SOL    HW133221   1.875   4.124   9.090 -0.4091 -1.6526  0.1091
10696SOL    HW233222   1.894   4.092   8.943  1.1379 -0.6463  0.0678
10697SOL     OW33223   2.069   4.557   2.140 -0.1158  0.1029 -0.6416
10697SOL    HW133224   2.040   4.606   2.216  3.1580  0.7890  0.3491
10697SOL    HW233225   2.143   4.607   2.105 -0.0116 -1.4070 -2.8582
10698SOL     OW33226   8.311   0.038   4.472  0.1375  0.0704  0.4658
10698SOL    HW133227   8.353   0.095   4.408 -2.2624  2.5691  0.9243
10698SOL    HW233228   8.261   0.098   4.528 -1.5255 -2.4025  1.7993
10699SOL     OW33229   1.733   9.031   1.019  0.4152  0.3879  0.2325
10699SOL    HW133230   1.731   8.937   1.036 -2.6529 -0.2452 -2.7082
10699SOL    HW233231   1.825   9.049   0.998  1.0608 -1.9358  0.7495
10700SOL     OW33232   1.773   2.099   4.142  0.0403  0.2458 -0.2243
10700SOL    HW133233   1.864   2.093   4.114 -0.4076 -0.0476 -1.6967
10700SOL    HW233234   1.737   2.172   4.093 -0.6792 -0.0442 -0.1496
10701SOL     OW33235   1.958   3.414   0.091  0.3192  0.1515 -0.0046
10701SOL    HW133236   1.886   3.477   0.084  0.7245  0.4666 -1.7708
10701SOL    HW233237   1.915   3.329   0.092 -0.1888  0.3931  1.5921
10702SOL     OW33238   3.468   3.250   1.695 -0.0154 -0.6238  0.0262
10702SOL    HW133239   3.424   3.295   1.623  1.9774 -0.8112 -1.3850
10702SOL    HW233240   3.486   3.319   1.759 -2.8602 -0.6507  1.0116
10703SOL     OW33241   2.680   1.159   2.533 -0.1890 -0.2991 -0.2460
10703SOL    HW133242   2.758   1.213   2.545 -0.8368  1.1030 -1.9195
10703SOL    HW233243   2.607   1.218   2.553 -0.8675 -1.1778 -0.0804
10704SOL     OW33244   7.867   2.329   5.967  0.0410  0.6034  0.1882
10704SOL    HW133245   7.898   2.244   5.936 -0.1933  0.9725 -1.1107
10704SOL    HW233246   7.827   2.310   6.053  1.2883 -0.3314  0.5925
10705SOL     OW33247   7.228   4.028   8.481  0.4619  0.6159 -0.9385
10705SOL    HW133248   7.306   4.030   8.537  0.9764  0.9250 -1.6399
10705SOL    HW233249   7.191   4.116   8.486  0.0283  0.4058 -0.4318
10706SOL     OW33250   7.872   3.550   3.291  0.2572 -0.0983 -0.3940
10706SOL    HW133251   7.813   3.540   3.366 -0.5510  0.9580 -0.8655
10706SOL    HW233252   7.816   3.581   3.220  1.3220  0.6670 -0.9294
10707SOL     OW33253   3.384   3.598   0.394 -0.2488 -0.2458 -0.3039
10707SOL    HW133254   3.326   3.672   0.376 -0.0835  0.3326  1.3499
10707SOL    HW233255   3.357   3.567   0.480  3.5784  1.8641  1.9615
10708SOL     OW33256   5.063   0.480   9.049  0.5233 -0.6585 -0.5588
10708SOL    HW133257   5.014   0.398   9.050 -0.7266  0.0657 -0.1252
10708SOL    HW233258   5.126   0.472   9.120  2.4756 -2.4047 -2.3602
10709SOL     OW33259   6.767   0.823   3.372 -0.4627 -0.1497 -1.0247
10709SOL    HW133260   6.804   0.847   3.287 -1.0484  2.3992 -0.6417
10709SOL    HW233261   6.677   0.853   3.369 -0.8602 -1.1549  0.0773
10710SOL     OW33262   2.181   2.994   3.660  0.5008  0.1854 -0.0082
10710SOL    HW133263   2.211   3.058   3.595 -0.5352 -1.3213 -2.0967
10710SOL    HW233264   2.105   3.036   3.702  0.7343  0.9014 -0.2857
10711SOL     OW33265   0.123   6.083   6.464 -0.2508  0.6596  0.0474
10711SOL    HW133266   0.165   6.091   6.378 -0.0160  0.7781  0.1709
10711SOL    HW233267   0.038   6.126   6.453 -1.4894 -1.8986 -0.9488
10712SOL     OW33268   3.128   1.802   3.396 -0.0710 -0.7088 -0.9499
10712SOL    HW133269   3.181   1.880   3.411 -1.2244 -0.0238 -0.3312
10712SOL    HW233270   3.053   1.832   3.344 -0.6643 -1.3412 -0.4859
10713SOL     OW33271   5.117   3.667   4.007 -0.0749  0.1815 -0.5812
10713SOL    HW133272   5.065   3.691   4.084 -0.5261  1.7120 -1.3226
10713SOL    HW233273   5.207   3.686   4.032 -0.2943  1.4053 -0.6769
10714SOL     OW33274   7.311   3.463   6.241  0.0032  0.0069 -0.1588
10714SOL    HW133275   7.375   3.516   6.194  1.1444  0.3170  1.6349
10714SOL    HW233276   7.358   3.381   6.260 -0.2119  0.1189  0.9065
10715SOL     OW33277   0.778   7.861   6.086  0.0609 -0.3022  0.6337
10715SOL    HW133278   0.700   7.892   6.132  0.0418  0.8122 -0.1095
10715SOL    HW233279   0.828   7.941   6.068  0.8049 -0.8846  0.0889
10716SOL     OW33280   7.108   1.156   3.331  0.0444  0.5667  0.1550
10716SOL    HW133281   7.080   1.100   3.404  0.6252 -0.4186 -0.3621
10716SOL    HW233282   7.179   1.209   3.367 -2.2029  2.9685  1.4346
10717SOL     OW33283   6.802   7.769   7.252  0.3928  0.0530 -0.4612
10717SOL    HW133284   6.721   7.724   7.229  0.1037 -0.6230  1.6826
10717SOL    HW233285   6.858   7.758   7.175 -1.4716  0.4424 -1.9591
10718SOL     OW33286   4.605   3.853   1.281 -0.5113 -0.0447  0.2247
10718SOL    HW133287   4.673   3.799   1.240  0.4255  0.3474  1.1802
10718SOL    HW233288   4.568   3.904   1.209 -0.7199 -1.2226 -0.5273
10719SOL     OW33289   3.687   8.627   8.477  0.5888 -0.2224  0.9968
10719SOL    HW133290   3.698   8.710   8.430  0.7672 -1.2130 -0.8143
10719SOL    HW233291   3.773   8.611   8.516  1.1255 -0.4284 -0.2119
10720SOL     OW33292   8.621   3.624   6.709  0.1407  0.1073 -0.0306
10720SOL    HW133293   8.649   3.619   6.801 -1.1405  0.4682  0.3942
10720SOL    HW233294   8.703   3.628   6.660  0.8528 -0.2324  1.0825
10721SOL     OW33295   4.406   5.945   0.348  0.1938 -0.0748  0.3248
10721SOL    HW133296   4.456   5.863   0.346 -1.1306 -0.9044 -0.2025
10721SOL    HW233297   4.450   6.001   0.284  0.1097 -1.0129 -0.5892
10722SOL     OW33298   7.119   2.014   7.687 -0.3190  0.2043  0.2828
10722SOL    HW133299   7.069   2.096   7.695  1.4977  1.4524 -0.3988
10722SOL    HW233300   7.127   2.001   7.592  0.9353  0.2612  0.3629
10723SOL     OW33301   7.568   2.030   8.321 -0.1752  0.4425 -0.1698
10723SOL    HW133302   7.500   2.033   8.253  0.4050  1.3354 -0.7310
10723SOL    HW233303   7.599   1.940   8.320 -1.8287 -0.1812  0.5964
10724SOL     OW33304   8.719   8.298   4.466  0.5050  0.2611  0.4995
10724SOL    HW133305   8.640   8.304   4.519  1.1019  1.4401  1.3161
10724SOL    HW233306   8.764   8.382   4.481  1.4731 -0.0290 -0.6267
10725SOL     OW33307   9.037   7.197   5.790 -0.6468  0.7549 -0.4350
10725SOL    HW133308   8.998   7.126   5.841 -0.8898  1.3811  0.2860
10725SOL    HW233309   9.129   7.173   5.782 -0.6114  0.6102  0.2747
10726SOL     OW33310   8.517   8.375   6.994 -0.0724 -0.2981  0.3916
10726SOL    HW133311   8.604   8.350   7.026  0.3217  0.0961 -0.3540
10726SOL    HW233312   8.489   8.446   7.052 -0.2254 -0.9172  1.0951
10727SOL     OW33313   2.072   8.781   5.047 -0.2800 -0.3564 -0.0803
10727SOL    HW133314   1.999   8.780   5.108 -0.3234 -0.3885 -0.1327
10727SOL    HW233315   2.079   8.873   5.020  0.1557 -0.2238  0.4686
10728SOL     OW33316   8.647   1.373   5.582  0.1086  0.0982 -0.3100
10728SOL    HW133317   8.662   1.342   5.671 -0.8160  1.2284  0.2709
10728SOL    HW233318   8.608   1.297   5.537  0.1723 -0.3501  0.3717
10729SOL     OW33319   5.488   0.804   2.824  0.0793  0.1753 -0.2659
10729SOL    HW133320   5.425   0.870   2.853 -1.4770 -1.2445 -0.2289
10729SOL    HW233321   5.478   0.801   2.728  1.0103  0.8010 -0.3958
10730SOL     OW33322   6.076   8.880   8.889  0.4292 -0.1798  0.0123
10730SOL    HW133323   6.041   8.841   8.969 -0.6181 -0.3837 -0.5358
10730SOL    HW233324   6.118   8.807   8.844  2.3735  0.2208  1.0602
10731SOL     OW33325   2.841   8.251   3.878  0.1966 -0.1830  0.6790
10731SOL    HW133326   2.920   8.211   3.913 -0.3420 -1.4617  0.4903
10731SOL    HW233327   2.775   8.182   3.882 -0.8605  0.7865  0.6246
10732SOL     OW33328   9.024   4.723   8.531  0.6828 -0.3290  0.3632
10732SOL    HW133329   9.116   4.697   8.542  0.5901 -0.9790 -0.3627
10732SOL    HW233330   8.977   4.669   8.594  0.9455  1.1230  1.8845
10733SOL     OW33331   2.392   8.850   6.413  0.1202 -0.7011 -0.0448
10733SOL    HW133332   2.485   8.869   6.420  0.3293 -1.2052 -1.2192
10733SOL    HW233333   2.364   8.896   6.333 -1.0318  0.8717  1.2074
10734SOL     OW33334   8.024   6.181   1.072  0.3849  0.0263  0.4156
10734SOL    HW133335   8.102   6.223   1.107  1.0910 -0.9017  0.0073
10734SOL    HW233336   7.965   6.173   1.146  0.9796  0.0531  0.8937
10735SOL     OW33337   6.406   0.541   2.095  0.2732 -0.1012 -0.3529
10735SOL    HW133338   6.395   0.577   2.183 -1.4297  0.0224 -0.5760
10735SOL    HW233339   6.450   0.610   2.046 -0.0550  0.3980  0.0429
10736SOL     OW33340   2.798   1.328   4.096  0.3122  0.0652 -0.3830
10736SOL    HW133341   2.847   1.332   4.014 -0.8105  2.3947 -1.0212
10736SOL    HW233342   2.766   1.417   4.109  0.2378 -0.2720  2.4785
10737SOL     OW33343   9.099   7.537   7.987  0.2417  0.3270 -0.1619
10737SOL    HW133344   9.013   7.527   8.028  0.2498  0.8122 -0.0219
10737SOL    HW233345   9.136   7.449   7.987 -1.0669 -0.2768 -2.0414
10738SOL     OW33346   8.625   8.774   4.371 -0.8160 -0.1342 -0.0561
10738SOL    HW133347   8.685   8.837   4.411  2.3836 -1.0265 -2.9292
10738SOL    HW233348   8.554   8.827   4.335 -0.7668  1.2105  1.6925
10739SOL     OW33349   6.972   7.478   0.501 -0.0809 -0.1047 -0.3654
10739SOL    HW133350   6.951   7.481   0.595 -1.3163  0.8625 -0.6508
10739SOL    HW233351   7.000   7.388   0.486  0.9773 -0.0667  1.0985
10740SOL     OW33352   3.271   6.218   3.356 -0.1255  0.7156  0.1083
10740SOL    HW133353   3.353   6.208   3.306 -0.0198  0.6788  0.2864
10740SOL    HW233354   3.202   6.216   3.290 -0.0662 -0.4798  0.0574
10741SOL     OW33355   1.277   8.680   0.249  0.0097 -0.2631  0.2962
10741SOL    HW133356   1.225   8.729   0.187  0.1413  1.6973  1.6461
10741SOL    HW233357   1.361   8.726   0.253 -0.6081  0.8649  3.2123
10742SOL     OW33358   1.108   1.536   6.526  0.4290  0.4959 -0.3438
10742SOL    HW133359   1.154   1.513   6.445  0.0722  0.7102 -0.6111
10742SOL    HW233360   1.020   1.561   6.497 -0.6347 -2.0877  0.3554
10743SOL     OW33361   8.862   3.265   7.150 -0.0093 -0.0689 -0.1579
10743SOL    HW133362   8.877   3.207   7.075  0.5753 -1.3737  0.9091
10743SOL    HW233363   8.773   3.244   7.178  0.2054 -0.4980  0.2334
10744SOL     OW33364   1.361   7.747   5.026 -0.5164 -0.2186  0.2211
10744SOL    HW133365   1.289   7.742   5.089 -0.9462  0.2896 -0.2186
10744SOL    HW233366   1.397   7.658   5.025 -1.6112 -0.6871 -0.0820
10745SOL     OW33367   0.426   4.269   4.645 -0.3479 -0.3129 -0.1929
10745SOL    HW133368   0.506   4.317   4.668  0.3735 -0.8981 -1.3765
10745SOL    HW233369   0.388   4.244   4.729  0.4344  0.4195  0.4031
10746SOL     OW33370   7.034   1.883   7.919 -0.4811  0.3754 -0.5277
10746SOL    HW133371   7.056   1.889   7.826 -0.2461 -1.5210 -0.6302
10746SOL    HW233372   6.970   1.952   7.933  0.0867  1.2167 -1.9082
10747SOL     OW33373   8.087   0.057   8.287 -0.1657 -0.0115 -0.3759
10747SOL    HW133374   8.158   0.076   8.349 -1.9654  0.1530  1.7561
10747SOL    HW233375   8.031   0.134   8.289 -1.4757 -0.9112 -0.4152
10748SOL     OW33376   6.698   3.782   0.099 -0.6933 -0.0354  0.2329
10748SOL    HW133377   6.779   3.820   0.065 -0.2215 -0.1759  1.1923
10748SOL    HW233378   6.652   3.751   0.021  0.1144  0.1598 -0.3292
10749SOL     OW33379   0.658   4.540   7.447 -0.0148 -0.3897 -0.4336
10749SOL    HW133380   0.631   4.535   7.356 -2.2499 -0.1471  0.1589
10749SOL    HW233381   0.631   4.456   7.485 -0.3055  0.0168  0.2798
10750SOL     OW33382   2.068   0.338   5.481  0.1428 -0.2502  0.3532
10750SOL    HW133383   2.152   0.313   5.521  0.7403  0.7442 -0.2407
10750SOL    HW233384   2.090   0.353   5.389 -0.5346  0.7941  0.3543
10751SOL     OW33385   5.126   2.928   8.883 -0.5000 -0.1606  0.6104
10751SOL    HW133386   5.073   3.007   8.895 -1.7901 -1.0631  1.0435
10751SOL    HW233387   5.141   2.896   8.971  1.0728  0.2415  0.5182
10752SOL     OW33388   6.130   2.863   4.044 -0.6616 -0.1003  0.2910
10752SOL    HW133389   6.054   2.829   3.996 -0.6854 -0.1448  0.3585
10752SOL    HW233390   6.098   2.872   4.134 -0.6262  0.0097  0.2921
10753SOL     OW33391   8.930   4.106   0.220  0.2038  0.1793  0.8422
10753SOL    HW133392   8.918   4.037   0.155 -1.0090  1.1831 -0.0489
10753SOL    HW233393   9.024   4.121   0.223  0.3094 -0.2084 -0.3389
10754SOL     OW33394   0.196   3.044   3.081  0.1037 -0.4427  0.0279
10754SOL    HW133395   0.113   2.997   3.067  0.7094 -1.1245 -1.5775
10754SOL    HW233396   0.245   3.029   3.000  1.3060  0.9831  0.4580
10755SOL     OW33397   6.286   0.709   6.127 -0.0342  0.2960 -1.0765
10755SOL    HW133398   6.295   0.767   6.203 -0.5570  0.4383 -1.1180
10755SOL    HW233399   6.374   0.675   6.113  0.2926  1.1054 -1.0665
10756SOL     OW33400   3.661   4.567   2.965 -0.6752  0.3181 -0.0400
10756SOL    HW133401   3.664   4.484   2.916 -1.3339  0.6605 -0.6764
10756SOL    HW233402   3.626   4.543   3.050  3.3817 -0.8629  1.5252
10757SOL     OW33403   7.166   1.457   5.593  0.0334  0.5488 -0.1763
10757SOL    HW133404   7.153   1.535   5.646  1.5194  0.3068  0.5994
10757SOL    HW233405   7.236   1.480   5.533  0.5141 -0.1799  0.0889
10758SOL     OW33406   6.118   8.656   1.608  0.1525  0.1838 -0.4893
10758SOL    HW133407   6.039   8.710   1.602 -1.2484 -1.8696 -1.6969
10758SOL    HW233408   6.098   8.593   1.678  0.7942 -0.2075 -0.6564
10759SOL     OW33409   8.941   5.355   2.561 -0.3529  0.1332  0.6641
10759SOL    HW133410   8.917   5.387   2.474  0.1710 -0.9383  0.1094
10759SOL    HW233411   9.037   5.358   2.563 -0.3764  1.2547  1.6526
10760SOL     OW33412   5.875   6.320   3.276 -0.6716  0.2242 -0.5100
10760SOL    HW133413   5.943   6.385   3.256 -0.1728  0.8381  2.6027
10760SOL    HW233414   5.862   6.273   3.194  1.8233  1.6441 -1.8500
10761SOL     OW33415   3.546   1.426   2.956  0.3358 -0.4109 -0.1273
10761SOL    HW133416   3.478   1.390   2.899 -0.2124  0.7971 -0.2576
10761SOL    HW233417   3.622   1.371   2.939  0.5339  0.5247 -2.8561
10762SOL     OW33418   0.879   2.445   6.151  0.6079 -0.3433  0.0566
10762SOL    HW133419   0.793   2.412   6.177  0.8928 -0.5009  0.8283
10762SOL    HW233420   0.940   2.375   6.176  0.9584 -0.2527 -0.5303
10763SOL     OW33421   5.512   3.234   0.771 -0.3733 -0.4074 -0.0004
10763SOL    HW133422   5.591   3.282   0.794 -2.5011  2.5130  1.9307
10763SOL    HW233423   5.539   3.142   0.769  3.3127  0.5407 -0.9990
10764SOL     OW33424   3.125   8.158   3.756  0.0495 -0.1593  0.2020
10764SOL    HW133425   3.134   8.169   3.851 -0.4076 -0.8970  0.3456
10764SOL    HW233426   3.102   8.065   3.745 -1.5770  0.2770 -0.4900
10765SOL     OW33427   3.656   5.308   3.635 -0.2393 -0.3399  0.2496
10765SOL    HW133428   3.668   5.250   3.710  0.6731 -1.0875 -0.4495
10765SOL    HW233429   3.668   5.251   3.559  0.3039  0.6846 -0.4552
10766SOL     OW33430   8.463   1.858   5.363  0.4203 -0.2686 -0.4179
10766SOL    HW133431   8.494   1.777   5.404  0.5670 -0.3857 -0.7617
10766SOL    HW233432   8.437   1.832   5.275  0.6991  0.1050 -0.6126
10767SOL     OW33433   5.647   8.276   4.090  0.1521  0.1119  0.1135
10767SOL    HW133434   5.741   8.258   4.092  0.2760  0.7667  2.0848
10767SOL    HW233435   5.641   8.370   4.076 -0.3177 -0.2254 -2.3943
10768SOL     OW33436   0.461   3.015   0.672 -0.4147 -0.2421  1.0594
10768SOL    HW133437   0.554   3.018   0.695 -0.4923 -1.1998  1.5310
10768SOL    HW233438   0.433   2.926   0.694 -1.3745 -0.0610  0.6404
10769SOL     OW33439   2.228   0.249   6.699 -0.0674  0.6915  0.2019
10769SOL    HW133440   2.229   0.154   6.713 -0.7642  0.8025  1.1233
10769SOL    HW233441   2.319   0.272   6.680  0.3452  0.0272  1.3278
10770SOL     OW33442   1.930   3.941   2.046  0.1912  0.4303 -0.3328
10770SOL    HW133443   1.987   3.954   2.122 -0.0716 -0.5533  0.0483
10770SOL    HW233444   1.847   3.913   2.084 -0.1715  0.6642 -0.9521
10771SOL     OW33445   4.519   6.436   4.148 -0.2528  0.5558 -0.0003
10771SOL    HW133446   4.540   6.387   4.069 -1.0477  1.0258 -0.5193
10771SOL    HW233447   4.576   6.513   4.144  0.5427  0.0089  0.4939
10772SOL     OW33448   6.240   4.015   2.442  0.1687 -0.3057 -0.7422
10772SOL    HW133449   6.327   3.977   2.458  0.4327  0.4460 -0.3525
10772SOL    HW233450   6.180   3.956   2.489  0.5662 -0.2900 -0.1944
10773SOL     OW33451   6.421   2.541   3.558 -0.1189  0.1065 -0.8455
10773SOL    HW133452   6.401   2.459   3.512  0.1113  0.4890 -1.6492
10773SOL    HW233453   6.478   2.514   3.630  1.1809 -0.2967 -1.9556
10774SOL     OW33454   0.927   6.759   1.101  0.2377 -0.2762  0.3579
10774SOL    HW133455   0.941   6.715   1.185  1.5845 -0.4223  0.0868
10774SOL    HW233456   0.999   6.728   1.046 -0.6865 -0.2787 -0.8986
10775SOL     OW33457   6.952   4.420   4.507 -0.2052  0.1983 -0.1869
10775SOL    HW133458   6.906   4.492   4.463 -0.6656 -0.0312 -0.0890
10775SOL    HW233459   7.036   4.458   4.533 -0.6550  0.8695  0.3456
10776SOL     OW33460   8.832   7.255   7.846 -0.4397 -0.6825  0.3601
10776SOL    HW133461   8.892   7.259   7.920 -1.3818  1.7216  1.0786
10776SOL    HW233462   8.888   7.261   7.769  0.4671 -2.1132  0.8780
10777SOL     OW33463   1.930   6.098   2.954  0.2752  0.6187 -0.6458
10777SOL    HW133464   1.969   6.011   2.952 -1.7158 -0.4115  1.3207
10777SOL    HW233465   1.916   6.121   2.862 -0.1334 -1.6028 -1.1780
10778SOL     OW33466   5.354   7.973   1.509  0.1595  0.1203 -0.2434
10778SOL    HW133467   5.415   7.932   1.449 -0.8432  0.5868 -1.6315
10778SOL    HW233468   5.399   8.052   1.540  0.1869  0.5862 -1.4361
10779SOL     OW33469   7.730   1.343   8.313 -0.2061 -0.1367  0.3854
10779SOL    HW133470   7.774   1.284   8.252  0.0481  0.5093 -0.0741
10779SOL    HW233471   7.790   1.418   8.321 -1.2123  0.7741 -0.2757
10780SOL     OW33472   9.055   7.907   2.398 -0.0720 -0.0214  0.1467
10780SOL    HW133473   9.150   7.900   2.411 -0.0914  1.4234  1.3581
10780SOL    HW233474   9.025   7.816   2.394  1.4136 -0.5122 -0.8405
10781SOL     OW33475   7.410   5.534   1.654 -0.1126  0.6539 -0.1867
10781SOL    HW133476   7.453   5.596   1.713 -0.0837 -0.4709  1.0404
10781SOL    HW233477   7.482   5.481   1.619 -0.2104  0.8020 -0.6162
10782SOL     OW33478   5.096   4.868   4.709  0.2566  0.4476 -0.0131
10782SOL    HW133479   5.111   4.844   4.617  0.8669  1.4644 -0.1927
10782SOL    HW233480   5.179   4.904   4.738 -0.2581  1.1717  0.6062
10783SOL     OW33481   7.812   3.069   6.358 -0.1164  0.0196  0.1961
10783SOL    HW133482   7.836   3.025   6.276  0.6717  0.7450  0.0242
10783SOL    HW233483   7.756   3.006   6.404  1.3922 -1.3773  0.1894
10784SOL     OW33484   4.260   6.626   6.551 -0.3163  0.1557  0.6230
10784SOL    HW133485   4.283   6.533   6.552 -1.8078 -0.2887 -1.1921
10784SOL    HW233486   4.196   6.635   6.622  0.9967  0.1811  1.8526
10785SOL     OW33487   5.120   8.888   6.523 -0.6864 -0.1896 -0.3102
10785SOL    HW133488   5.086   8.977   6.511 -0.9012 -0.5312 -2.6339
10785SOL    HW233489   5.215   8.900   6.529 -0.7167  0.2063 -0.5913
10786SOL     OW33490   8.127   5.678   6.237 -0.2841  0.0386  0.2530
10786SOL    HW133491   8.108   5.660   6.329 -0.8907  1.5352  0.4494
10786SOL    HW233492   8.220   5.698   6.235 -0.3555  0.4383  0.6319
10787SOL     OW33493   5.040   9.041   0.477  0.2382 -0.1777  0.4925
10787SOL    HW133494   5.039   9.031   0.381  0.6780  0.8830  0.3598
10787SOL    HW233495   5.010   8.956   0.510 -2.3045  0.1895 -0.6178
10788SOL     OW33496   4.949   6.959   6.880 -0.3169  0.9758 -0.4200
10788SOL    HW133497   4.858   6.930   6.888  0.4353 -1.4508  0.2595
10788SOL    HW233498   4.950   7.045   6.921 -1.9960  0.3038  1.2051
10789SOL     OW33499   2.911   3.749   3.552  0.2920  0.5531 -0.8423
10789SOL    HW133500   2.887   3.773   3.641  0.7843 -1.5629 -0.1006
10789SOL    HW233501   2.848   3.796   3.497 -2.8244 -1.3496  0.8128
10790SOL     OW33502   1.659   6.565   8.291 -0.3688  0.3242 -0.0122
10790SOL    HW133503   1.725   6.514   8.338 -1.8897 -1.4669  0.2934
10790SOL    HW233504   1.684   6.557   8.199  0.6119  0.8562  0.1931
10791SOL     OW33505   7.749   8.960   2.178 -0.2755  0.3560  0.3343
10791SOL    HW133506   7.759   8.867   2.197  0.0202  0.1969 -0.5750
10791SOL    HW233507   7.838   8.993   2.168 -0.4125  0.5200 -0.3762
10792SOL     OW33508   8.506   1.900   1.287  0.4606 -0.3153  0.7314
10792SOL    HW133509   8.431   1.912   1.229  0.4748 -0.7627  0.6130
10792SOL    HW233510   8.467   1.881   1.373  0.4376 -0.3251  0.7187
10793SOL     OW33511   6.265   8.879   6.365  0.1401  0.1001 -0.6973
10793SOL    HW133512   6.286   8.827   6.443  0.3546 -0.1003 -0.8856
10793SOL    HW233513   6.301   8.966   6.383  0.5790 -0.0665 -0.7508
10794SOL     OW33514   4.068   0.598   2.711 -0.4836 -0.2593  0.1009
10794SOL    HW133515   3.988   0.643   2.685  0.0163 -0.1760 -1.3821
10794SOL    HW233516   4.115   0.583   2.629  1.7341  1.0350  1.0593
10795SOL     OW33517   6.362   3.234   3.730 -0.1178 -0.1816  0.3336
10795SOL    HW133518   6.314   3.208   3.809  0.2747 -0.9488  0.3310
10795SOL    HW233519   6.416   3.158   3.709  0.4549  0.3507 -0.1580
10796SOL     OW33520   6.206   2.800   5.859  0.3322 -0.0416  0.2202
10796SOL    HW133521   6.302   2.805   5.859  0.4593 -1.7614  0.4092
10796SOL    HW233522   6.178   2.879   5.904  1.8532 -1.5352  4.2345
10797SOL     OW33523   6.109   1.834   3.623  0.1113  0.2984  0.2220
10797SOL    HW133524   6.090   1.927   3.611  0.6573  0.3799 -0.0895
10797SOL    HW233525   6.098   1.796   3.536 -1.6973 -0.2519  0.6491
10798SOL     OW33526   4.296   1.252   7.014  0.2514  0.4748  0.0794
10798SOL    HW133527   4.242   1.205   6.950  0.5106  1.8860 -1.2419
10798SOL    HW233528   4.239   1.322   7.046  0.8901  1.2787 -0.4779
10799SOL     OW33529   8.581   2.115   0.339  0.4126 -0.8625 -0.2585
10799SOL    HW133530   8.659   2.171   0.343 -0.1665  0.0459 -1.0447
10799SOL    HW233531   8.599   2.054   0.268 -0.2979  0.5320 -1.6992
10800SOL     OW33532   1.150   8.662   8.296 -0.0589 -0.1546 -0.3974
10800SOL    HW133533   1.095   8.676   8.373  1.3029  2.4616  0.2103
10800SOL    HW233534   1.226   8.613   8.330  0.6272  1.1494  0.0468
10801SOL     OW33535   5.276   5.456   5.134 -0.2651  0.5336  0.5712
10801SOL    HW133536   5.238   5.464   5.221 -0.2975  0.1488  0.5922
10801SOL    HW233537   5.314   5.542   5.117 -1.2466  0.9615  0.4999
10802SOL     OW33538   8.200   7.578   4.854  0.5583  0.4701 -0.0455
10802SOL    HW133539   8.244   7.642   4.798  1.0531 -1.7721 -2.3997
10802SOL    HW233540   8.124   7.550   4.803 -0.6132  0.3635  1.6680
10803SOL     OW33541   5.068   4.623   4.820  0.0042 -0.5923  0.4683
10803SOL    HW133542   5.067   4.715   4.791 -0.5545 -0.7257  0.0603
10803SOL    HW233543   5.149   4.588   4.783 -0.6504 -0.7357 -0.8936
10804SOL     OW33544   3.667   1.264   6.784 -0.0357  0.4618 -0.5250
10804SOL    HW133545   3.643   1.174   6.761  2.4854 -0.6933  0.8623
10804SOL    HW233546   3.692   1.305   6.701  1.9504 -1.2525 -0.8558
10805SOL     OW33547   7.652   1.519   2.677 -0.3169 -0.0570 -0.3256
10805SOL    HW133548   7.612   1.569   2.747  0.8798  2.0478 -1.0435
10805SOL    HW233549   7.746   1.528   2.692 -0.0350  0.2364 -2.0096
10806SOL     OW33550   1.510   3.729   1.988 -0.1001 -0.3690  0.2187
10806SOL    HW133551   1.558   3.809   1.966  0.0026 -0.3764  0.4146
10806SOL    HW233552   1.465   3.705   1.907 -3.6490  2.2653  1.1284
10807SOL     OW33553   0.744   7.115   8.150 -0.2676 -0.2156 -0.2568
10807SOL    HW133554   0.788   7.058   8.213  0.0391 -0.6187 -0.8338
10807SOL    HW233555   0.813   7.170   8.114 -0.4957  0.2416 -0.0088
10808SOL     OW33556   6.520   7.428   1.871 -0.0676  0.0125 -0.1938
10808SOL    HW133557   6.565   7.344   1.881 -0.3585 -0.2667 -1.0829
10808SOL    HW233558   6.583   7.484   1.825 -0.8354 -0.6199 -2.1463
10809SOL     OW33559   3.378   2.977   3.209  0.3164 -0.5583 -0.0162
10809SOL    HW133560   3.432   3.032   3.266  2.0552 -2.5295  0.3341
10809SOL    HW233561   3.318   3.039   3.166  2.0388  1.5634  0.4775
10810SOL     OW33562   8.019   3.479   0.359 -0.2169  0.3511 -0.4562
10810SOL    HW133563   8.032   3.549   0.423 -1.8029  0.8247 -0.6152
10810SOL    HW233564   7.945   3.429   0.392 -0.7035  0.2684 -1.6289
10811SOL     OW33565   3.961   1.857   3.501  0.1957 -0.1867  0.8335
10811SOL    HW133566   3.923   1.769   3.503 -1.6089  0.3910 -1.9764
10811SOL    HW233567   3.929   1.900   3.580 -2.0191 -0.9369  0.4119
10812SOL     OW33568   3.069   6.825   2.175  0.1912 -0.3698  0.2532
10812SOL    HW133569   3.134   6.761   2.146  0.5829  0.7760 -1.6045
10812SOL    HW233570   2.989   6.802   2.128 -0.1137 -0.4284  0.7927
10813SOL     OW33571   0.217   7.883   2.984  0.1800  0.0769 -0.5977
10813SOL    HW133572   0.127   7.905   3.008  0.7423  0.5882  1.2274
10813SOL    HW233573   0.232   7.797   3.023  0.9936  0.7506  0.6614
10814SOL     OW33574   0.934   2.997   3.201 -0.2084  0.4323 -0.1049
10814SOL    HW133575   1.018   3.029   3.168 -0.1032 -0.3551 -0.6213
10814SOL    HW233576   0.895   2.950   3.127 -0.7852  0.1975  0.3407
10815SOL     OW33577   2.494   7.433   6.506  0.0677 -0.0509  0.2350
10815SOL    HW133578   2.454   7.368   6.565 -0.4093  0.2453  0.2444
10815SOL    HW233579   2.420   7.472   6.460  0.3570  0.4536  0.1938
10816SOL     OW33580   2.532   0.275   6.681 -0.1654 -0.3202  0.3705
10816SOL    HW133581   2.615   0.253   6.638  0.7053 -0.4198  1.9992
10816SOL    HW233582   2.555   0.344   6.743 -1.3109 -0.3029  0.8083
10817SOL     OW33583   8.539   9.096   4.039 -0.1311 -0.4205  0.9981
10817SOL    HW133584   8.533   9.191   4.050 -0.0455 -0.3357  0.3691
10817SOL    HW233585   8.493   9.060   4.114 -0.1276  0.1211  1.2662
10818SOL     OW33586   5.768   1.944   8.569 -0.2045 -0.3008 -0.0445
10818SOL    HW133587   5.686   1.897   8.557  1.0465 -2.2305 -1.8221
10818SOL    HW233588   5.807   1.907   8.648 -1.1069  0.8162  0.9623
10819SOL     OW33589   0.281   6.430   6.105  0.4623 -0.9627  0.2731
10819SOL    HW133590   0.226   6.392   6.037 -0.4072 -0.6202  0.7676
10819SOL    HW233591   0.243   6.517   6.120  0.0971 -1.3654  1.7979
10820SOL     OW33592   1.543   6.054   2.633 -0.4092  0.1101  0.0199
10820SOL    HW133593   1.464   6.038   2.582 -0.0674  1.0011 -0.8219
10820SOL    HW233594   1.589   5.970   2.634 -1.2751 -0.3798  0.3922
10821SOL     OW33595   5.474   1.597   8.454 -0.1141 -0.0101 -0.4184
10821SOL    HW133596   5.426   1.621   8.375 -0.4210  1.4688  0.1787
10821SOL    HW233597   5.566   1.598   8.427 -0.2833 -0.7617 -1.0523
10822SOL     OW33598   4.408   1.598   1.617  0.0687 -0.0597 -0.4509
10822SOL    HW133599   4.406   1.516   1.568  1.9222  0.0171 -0.7445
10822SOL    HW233600   4.493   1.636   1.595  0.2627  0.7689  1.5568
10823SOL     OW33601   6.600   3.493   1.766 -0.2465 -0.6789  0.3313
10823SOL    HW133602   6.546   3.429   1.812  1.5786 -1.3466  1.6318
10823SOL    HW233603   6.604   3.460   1.676 -1.2439 -1.0987  0.4298
10824SOL     OW33604   6.638   7.253   5.851 -0.0538  0.9235  0.8871
10824SOL    HW133605   6.711   7.289   5.801 -1.1077  0.6358 -0.9248
10824SOL    HW233606   6.573   7.229   5.786 -0.7773 -1.1605  2.2495
10825SOL     OW33607   0.585   4.562   1.758 -0.1842  0.0282 -0.1632
10825SOL    HW133608   0.653   4.579   1.823  0.6335 -0.4290 -0.8830
10825SOL    HW233609   0.615   4.484   1.712 -0.9789  0.0788 -0.7839
10826SOL     OW33610   3.819   2.984   7.423  0.0259  0.1917  0.2180
10826SOL    HW133611   3.779   2.921   7.364 -0.5919  0.7673  0.0074
10826SOL    HW233612   3.817   2.942   7.509  1.5068 -0.9124 -0.2518
10827SOL     OW33613   5.533   8.452   8.576  0.1789 -0.2015  0.0372
10827SOL    HW133614   5.522   8.367   8.532  0.1136  0.1144 -0.5734
10827SOL    HW233615   5.610   8.441   8.632  0.8872 -0.3158 -0.9301
10828SOL     OW33616   5.581   6.113   7.711 -0.4400  0.0632  0.5112
10828SOL    HW133617   5.648   6.153   7.656 -2.8698  2.3802 -0.9593
10828SOL    HW233618   5.630   6.055   7.769  2.5854 -0.1634 -1.9873
10829SOL     OW33619   8.080   7.657   4.396 -0.0084  0.2472  0.6116
10829SOL    HW133620   8.023   7.733   4.414  0.2661  0.5536  0.1913
10829SOL    HW233621   8.020   7.591   4.360  0.0971  1.0382 -1.1168
10830SOL     OW33622   6.414   2.553   7.064  0.1171 -0.3434 -0.2304
10830SOL    HW133623   6.368   2.469   7.076  0.0039 -0.1911  0.4152
10830SOL    HW233624   6.454   2.571   7.149  1.8252 -0.7173 -0.9072
10831SOL     OW33625   3.944   8.729   4.344  0.0460 -0.0546 -0.4451
10831SOL    HW133626   4.034   8.759   4.360 -0.1343  0.7430 -0.8725
10831SOL    HW233627   3.893   8.809   4.338 -0.8740 -0.5335  0.7144
10832SOL     OW33628   4.924   6.560   7.413  0.2207  0.0828 -0.1211
10832SOL    HW133629   4.837   6.598   7.416 -0.9292 -2.3298 -0.4418
10832SOL    HW233630   4.983   6.632   7.437 -1.7324  2.0396 -0.8520
10833SOL     OW33631   3.350   3.383   0.205  1.1377 -0.2988 -0.8996
10833SOL    HW133632   3.276   3.395   0.145  2.0887 -1.5251 -2.3877
10833SOL    HW233633   3.359   3.467   0.249 -0.1414  0.3742 -1.8460
10834SOL     OW33634   7.176   1.693   2.764  0.1459 -0.5343 -0.3024
10834SOL    HW133635   7.121   1.616   2.779 -0.4239 -0.5978 -2.3372
10834SOL    HW233636   7.253   1.679   2.818 -0.0888 -2.4031 -0.3953
10835SOL     OW33637   4.355   5.758   6.949 -0.2543  0.2906  0.1063
10835SOL    HW133638   4.404   5.677   6.937  1.2643  1.1943 -0.0734
10835SOL    HW233639   4.416   5.827   6.925  0.6041  1.9245  5.4896
10836SOL     OW33640   1.282   0.060   5.311  0.4452  0.3537  0.6779
10836SOL    HW133641   1.295   0.041   5.404  1.6031 -0.8833  0.2954
10836SOL    HW233642   1.258  -0.025   5.273 -2.5745  1.2769  0.2171
10837SOL     OW33643   0.680   4.002   6.138 -0.4075  0.0903 -0.0815
10837SOL    HW133644   0.766   4.023   6.174  0.0098  0.3327 -1.1825
10837SOL    HW233645   0.664   4.070   6.072 -2.2858  1.1646  1.3888
10838SOL     OW33646   5.733   1.618   7.321 -0.4884 -0.1221 -0.2742
10838SOL    HW133647   5.814   1.625   7.271 -1.0859 -0.3432 -1.3251
10838SOL    HW233648   5.685   1.547   7.278 -2.3524  1.6691 -1.3416
10839SOL     OW33649   1.230   3.934   4.696  0.3499  0.8640  0.3939
10839SOL    HW133650   1.260   3.848   4.728  3.3780  1.7084  0.1214
10839SOL    HW233651   1.242   3.992   4.771  0.0695  1.4045  0.0210
10840SOL     OW33652   2.299   2.177   2.163  0.0801 -0.0491  0.8174
10840SOL    HW133653   2.352   2.248   2.126 -1.9090  0.9680 -0.2357
10840SOL    HW233654   2.222   2.221   2.199 -1.2132 -1.6434  0.1352
10841SOL     OW33655   3.974   3.294   4.725  0.1705 -0.4724  0.7836
10841SOL    HW133656   3.968   3.263   4.635  1.0628 -0.1541  0.6020
10841SOL    HW233657   4.061   3.333   4.732 -0.3781  0.7249  1.3946
10842SOL     OW33658   7.551   1.316   0.866  0.3465 -0.4201 -0.9781
10842SOL    HW133659   7.467   1.286   0.900  0.0749  0.9200 -0.3926
10842SOL    HW233660   7.608   1.319   0.943  1.0544 -1.6502 -1.4267
10843SOL     OW33661   4.549   5.759   4.053 -0.6116  0.0188  0.2406
10843SOL    HW133662   4.483   5.737   4.118 -0.3455  0.3515  0.6261
10843SOL    HW233663   4.629   5.772   4.104  0.1297 -1.9157 -0.3481
10844SOL     OW33664   7.585   1.978   7.830 -0.6423  0.0274  0.2210
10844SOL    HW133665   7.640   2.042   7.875  0.2161  0.5319 -1.4591
10844SOL    HW233666   7.519   2.030   7.785 -1.9351 -0.5182  1.3903
10845SOL     OW33667   5.949   8.188   1.157  0.7470 -0.2476  0.1297
10845SOL    HW133668   6.034   8.143   1.150  0.2599 -1.0410 -0.9061
10845SOL    HW233669   5.884   8.119   1.145 -0.0520  0.3696  0.8365
10846SOL     OW33670   4.250   0.075   2.234  0.5214 -0.2549 -0.5501
10846SOL    HW133671   4.267   0.155   2.185  0.4555  0.9155  1.2528
10846SOL    HW233672   4.156   0.076   2.250  0.3877 -1.1202 -1.1577
10847SOL     OW33673   6.367   6.785   3.763 -0.3016 -0.1510  0.6396
10847SOL    HW133674   6.387   6.873   3.733 -1.5207  0.1339  0.6074
10847SOL    HW233675   6.272   6.777   3.755 -0.1519 -1.7328 -0.0592
10848SOL     OW33676   1.899   4.751   0.973  0.0260  0.2711 -0.6173
10848SOL    HW133677   1.827   4.700   0.936  1.1709 -2.4703  0.6306
10848SOL    HW233678   1.869   4.777   1.060 -0.6604  2.0986 -1.3524
10849SOL     OW33679   2.909   4.310   3.474 -0.3341 -0.0501 -0.5337
10849SOL    HW133680   2.979   4.247   3.488 -0.9473 -0.7162 -0.4069
10849SOL    HW233681   2.865   4.317   3.559  1.0079  2.1779  0.0797
10850SOL     OW33682   2.754   6.853   5.937 -0.0483  0.4758  0.2538
10850SOL    HW133683   2.693   6.789   5.900  1.6611 -0.3794 -1.2326
10850SOL    HW233684   2.738   6.849   6.031 -0.0869 -2.0947  0.2202
10851SOL     OW33685   6.864   5.673   7.942  0.4142  0.2218 -0.2888
10851SOL    HW133686   6.817   5.590   7.936  0.1643  0.2143  1.2671
10851SOL    HW233687   6.871   5.690   8.036  0.6905  1.8362 -0.5651
10852SOL     OW33688   5.178   5.077   6.180 -0.2170 -0.1340  0.4669
10852SOL    HW133689   5.166   5.096   6.086  1.0252 -0.2252  0.2704
10852SOL    HW233690   5.090   5.080   6.216 -0.8980 -1.4142 -0.9513
10853SOL     OW33691   0.906   2.198   6.484 -0.3303  0.2813 -0.0295
10853SOL    HW133692   0.887   2.162   6.570 -1.5831 -0.1551 -0.4707
10853SOL    HW233693   0.957   2.277   6.503 -0.7611  0.3124  1.1317
10854SOL     OW33694   0.123   0.278   0.358  0.1061  0.0746 -0.2709
10854SOL    HW133695   0.100   0.185   0.361 -0.6756  0.2806  1.0149
10854SOL    HW233696   0.039   0.323   0.360  0.5071  0.8150  0.8751
10855SOL     OW33697   7.079   6.699   2.864  0.0234  0.0684 -0.5043
10855SOL    HW133698   7.097   6.694   2.959  0.2772 -0.6279 -0.5792
10855SOL    HW233699   7.163   6.678   2.824 -0.4051 -0.9694 -0.8806
10856SOL     OW33700   3.807   1.983   4.502 -0.3748  0.6761 -0.1873
10856SOL    HW133701   3.866   1.957   4.431 -0.2699  1.0677 -0.2456
10856SOL    HW233702   3.801   2.078   4.494 -0.4776  0.7065  0.2384
10857SOL     OW33703   7.817   1.039   1.199 -0.8039  0.1634 -0.5121
10857SOL    HW133704   7.891   0.985   1.170 -0.9166 -0.4377  0.2806
10857SOL    HW233705   7.741   1.000   1.156 -1.0563 -1.1043  0.9631
10858SOL     OW33706   0.497   5.179   5.213 -0.4952 -0.0150  0.6405
10858SOL    HW133707   0.571   5.173   5.274 -0.1341  1.4131  0.3687
10858SOL    HW233708   0.420   5.172   5.268 -0.1863 -1.4031  0.9441
10859SOL     OW33709   1.558   6.883   7.766  0.2261  0.5407  0.1205
10859SOL    HW133710   1.548   6.891   7.861  3.0245 -1.2287  0.6644
10859SOL    HW233711   1.482   6.831   7.739  0.7704 -1.2948  1.8710
10860SOL     OW33712   4.354   1.118   5.583  0.2189  0.3444 -0.1678
10860SOL    HW133713   4.380   1.210   5.588  1.1720  0.1986 -1.7435
10860SOL    HW233714   4.265   1.120   5.549  1.8651  0.6982 -5.2733
10861SOL     OW33715   0.745   7.490   5.447 -0.3386 -0.2782  0.0244
10861SOL    HW133716   0.775   7.410   5.490  0.8150 -0.0442 -0.3113
10861SOL    HW233717   0.693   7.534   5.514  0.0252 -0.7267  0.6238
10862SOL     OW33718   7.477   2.516   8.571 -0.5641 -0.0237  0.5788
10862SOL    HW133719   7.407   2.557   8.520  0.1185  2.1039  1.2471
10862SOL    HW233720   7.503   2.440   8.519 -1.4891  0.7348 -1.0677
10863SOL     OW33721   2.231   1.215   5.346 -0.0656 -0.3482  0.2524
10863SOL    HW133722   2.187   1.289   5.388  0.8892  0.3850 -0.0039
10863SOL    HW233723   2.190   1.138   5.384  0.1356  0.3054  1.8478
10864SOL     OW33724   2.203   5.025   8.721 -0.3483  0.4412 -0.0371
10864SOL    HW133725   2.265   4.961   8.756  0.7469  0.3444 -2.0535
10864SOL    HW233726   2.258   5.091   8.679 -1.5632 -0.1562 -2.7456
10865SOL     OW33727   6.728   0.086   3.226  0.6725  0.4153  0.3276
10865SOL    HW133728   6.678   0.087   3.145  2.3591 -0.3033 -0.7765
10865SOL    HW233729   6.680   0.027   3.284  0.4825 -0.6414 -0.8783
10866SOL     OW33730   8.201   4.898   1.396  0.6315 -0.5281 -0.5604
10866SOL    HW133731   8.168   4.808   1.394  0.4883 -0.5111  0.6303
10866SOL    HW233732   8.296   4.887   1.389  0.6543 -0.8042  0.1450
10867SOL     OW33733   7.128   8.831   7.651  0.0391 -0.3419  0.0218
10867SOL    HW133734   7.140   8.921   7.682  1.1910  0.2384 -1.9622
10867SOL    HW233735   7.035   8.825   7.630 -0.3834 -0.1692  1.7050
10868SOL     OW33736   6.275   7.321   3.529 -0.0737 -0.0664  0.1193
10868SOL    HW133737   6.190   7.322   3.574 -0.1288 -1.3216  0.0788
10868SOL    HW233738   6.273   7.398   3.472 -0.6913  0.5884  1.0032
10869SOL     OW33739   6.131   3.976   5.774  0.7361 -0.3030  0.0135
10869SOL    HW133740   6.043   3.964   5.809  0.8390 -0.7638  0.1096
10869SOL    HW233741   6.188   3.927   5.834  1.2599  1.3276  0.9209
10870SOL     OW33742   3.379   7.875   8.410 -0.1964 -0.0918  0.7462
10870SOL    HW133743   3.463   7.888   8.367 -0.9058 -0.3856 -0.8042
10870SOL    HW233744   3.351   7.962   8.437 -0.2726  0.2662 -0.4557
10871SOL     OW33745   2.512   2.723   6.274  0.0947  0.0282 -0.3513
10871SOL    HW133746   2.572   2.706   6.346  0.8644  1.0045 -0.7368
10871SOL    HW233747   2.435   2.761   6.315  0.2252 -0.1052  0.0209
10872SOL     OW33748   5.416   6.606   2.259 -0.6746  0.0637  0.1175
10872SOL    HW133749   5.492   6.554   2.231 -0.8236 -0.1068  0.0336
10872SOL    HW233750   5.365   6.547   2.313  1.0948  1.1629  3.3242
10873SOL     OW33751   6.240   0.290   5.838  0.0478  0.0584 -0.0643
10873SOL    HW133752   6.229   0.203   5.800  0.0538 -0.3277  0.7842
10873SOL    HW233753   6.185   0.347   5.785  1.1348 -0.1848 -1.5201
10874SOL     OW33754   0.936   0.395   0.819 -0.0902  0.7191 -0.2979
10874SOL    HW133755   1.017   0.353   0.847 -2.0473 -2.8964  0.5308
10874SOL    HW233756   0.953   0.420   0.728  1.5234 -1.2075 -0.5890
10875SOL     OW33757   3.429   7.973   3.688  0.4686 -0.1964  0.4126
10875SOL    HW133758   3.370   7.964   3.762 -0.3476 -0.4098 -0.2476
10875SOL    HW233759   3.471   8.059   3.701 -0.4276  0.2222  0.5799
10876SOL     OW33760   4.473   1.731   5.824 -0.3334 -0.0830  0.2846
10876SOL    HW133761   4.542   1.677   5.786  0.1984  0.7115  0.1068
10876SOL    HW233762   4.391   1.686   5.799  0.0754 -0.5294 -0.2806
10877SOL     OW33763   4.579   8.036   3.655  0.0377 -0.0670  0.1467
10877SOL    HW133764   4.524   8.073   3.586  0.5995 -0.7736 -0.6945
10877SOL    HW233765   4.520   8.025   3.729 -0.5223  0.9232 -0.1354
10878SOL     OW33766   3.197   8.659   6.406  0.0017 -0.3985  0.3171
10878SOL    HW133767   3.149   8.631   6.484 -1.4147  2.7214  0.6815
10878SOL    HW233768   3.131   8.665   6.337  0.4611  0.7864 -0.0472
10879SOL     OW33769   6.290   4.321   2.973  0.4790 -0.1079  0.4671
10879SOL    HW133770   6.347   4.398   2.979  0.4296  0.0275 -0.6567
10879SOL    HW233771   6.204   4.353   3.001  0.1542  0.6040 -1.2485
10880SOL     OW33772   6.289   1.658   5.571 -0.2677  0.1369 -0.2516
10880SOL    HW133773   6.319   1.682   5.659 -2.0058  3.6440 -0.4249
10880SOL    HW233774   6.254   1.570   5.580  0.5087  0.0173  2.3263
10881SOL     OW33775   1.993   1.384   2.499 -0.8243 -0.1567  0.3675
10881SOL    HW133776   1.928   1.315   2.506 -1.0955 -0.1232 -1.2389
10881SOL    HW233777   1.943   1.465   2.506 -0.8861 -0.1320 -0.2998
10882SOL     OW33778   6.257   4.424   6.254 -0.1762 -0.2919 -0.6625
10882SOL    HW133779   6.246   4.485   6.326 -1.6564  0.3449 -1.3828
10882SOL    HW233780   6.326   4.462   6.199 -1.3577  0.9801 -1.3140
10883SOL     OW33781   4.303   6.797   6.168 -0.1565 -0.1177  0.2412
10883SOL    HW133782   4.362   6.766   6.236 -1.0330  0.5259  1.3435
10883SOL    HW233783   4.226   6.830   6.216 -0.5313  0.9518 -1.0174
10884SOL     OW33784   3.678   4.427   9.057  0.0548 -0.1228 -0.0871
10884SOL    HW133785   3.654   4.336   9.071 -1.2123  0.2995  0.6999
10884SOL    HW233786   3.712   4.430   8.967  1.8453 -1.6698  0.4855
10885SOL     OW33787   8.421   8.565   6.569  0.7109  0.0381  0.3714
10885SOL    HW133788   8.510   8.570   6.604  0.6764 -0.3772  0.5300
10885SOL    HW233789   8.395   8.474   6.585  0.5096 -0.0218 -0.2833
10886SOL     OW33790   3.522   5.913   3.354  0.3142 -0.0608  0.4880
10886SOL    HW133791   3.512   5.822   3.381 -0.9294  0.1943  0.9653
10886SOL    HW233792   3.603   5.942   3.396 -1.2313  0.1584  3.6838
10887SOL     OW33793   1.292   4.996   3.815  0.0289  0.0774 -0.0345
10887SOL    HW133794   1.370   4.961   3.858 -1.5499 -3.8009  0.1029
10887SOL    HW233795   1.227   5.002   3.884 -0.8281 -0.3895 -0.7804
10888SOL     OW33796   3.994   0.631   1.657  0.1060  0.4226  0.4161
10888SOL    HW133797   4.069   0.608   1.603 -0.5982  0.6037 -0.6833
10888SOL    HW233798   3.945   0.695   1.603 -0.4604  0.8344  1.3938
10889SOL     OW33799   7.673   3.205   7.804 -0.3810 -0.0694  0.1960
10889SOL    HW133800   7.579   3.210   7.789 -0.2466 -0.5134 -0.9115
10889SOL    HW233801   7.710   3.274   7.749  0.1764 -2.1610 -2.2628
10890SOL     OW33802   8.280   5.251   2.751  1.4081 -0.5853  0.0497
10890SOL    HW133803   8.335   5.325   2.775  1.4994 -0.3380 -0.8887
10890SOL    HW233804   8.342   5.183   2.723  1.2595  0.0193 -1.9359
10891SOL     OW33805   8.063   3.681   8.835 -0.6536 -0.1100 -0.5730
10891SOL    HW133806   8.043   3.590   8.855  0.0066 -0.6002 -2.0165
10891SOL    HW233807   8.149   3.697   8.873 -1.5105  0.4775  1.2218
10892SOL     OW33808   0.503   1.467   2.717 -0.7952 -0.5248  0.3189
10892SOL    HW133809   0.436   1.517   2.670  1.6667  1.8460 -0.9112
10892SOL    HW233810   0.513   1.514   2.800 -0.7151 -0.9422  0.5464
10893SOL     OW33811   2.708   5.459   2.550 -0.0105 -0.2522  0.2672
10893SOL    HW133812   2.669   5.434   2.466 -2.1252  0.3583  0.9965
10893SOL    HW233813   2.791   5.499   2.528  2.1573 -4.8568 -1.1984
10894SOL     OW33814   5.080   7.771   3.903 -0.3558  0.0062 -0.1374
10894SOL    HW133815   5.067   7.676   3.904  0.0439 -0.0570 -0.7647
10894SOL    HW233816   5.155   7.784   3.845 -1.4923  0.8486 -1.4376
10895SOL     OW33817   6.867   2.478   1.572 -0.2266  0.0463 -0.0847
10895SOL    HW133818   6.958   2.466   1.544  0.1381  1.0672  0.5920
10895SOL    HW233819   6.836   2.552   1.519 -0.3425  0.3345  0.3849
10896SOL     OW33820   2.904   0.001   8.902 -0.2289 -0.5730 -0.0842
10896SOL    HW133821   2.883  -0.090   8.881  0.0814 -0.7374  0.3054
10896SOL    HW233822   2.833   0.030   8.958 -1.1857 -0.0607 -1.4988
10897SOL     OW33823   4.255   0.104   0.543  0.4680  0.0955  0.6067
10897SOL    HW133824   4.206   0.149   0.473  0.2913 -1.3708 -0.2598
10897SOL    HW233825   4.240   0.157   0.621  0.1949  1.4709 -0.3482
10898SOL     OW33826   4.699   5.228   0.740  0.4801 -0.2543  0.4492
10898SOL    HW133827   4.650   5.147   0.727  1.8442 -1.0262 -0.0862
10898SOL    HW233828   4.643   5.297   0.705 -1.0731 -0.8391  1.7009
10899SOL     OW33829   6.755   5.533   8.222 -0.2181 -0.1072 -0.2443
10899SOL    HW133830   6.767   5.625   8.202 -1.5604  0.5868  1.8270
10899SOL    HW233831   6.816   5.515   8.293 -0.6762 -0.5390  0.0541
10900SOL     OW33832   0.878   6.357   5.466 -0.0286 -0.5181 -0.2477
10900SOL    HW133833   0.866   6.435   5.519  0.6778 -0.3903 -0.2658
10900SOL    HW233834   0.812   6.364   5.398  0.4700  0.4269 -0.6612
10901SOL     OW33835   4.124   2.222   0.696  0.1123  0.2054  0.1033
10901SOL    HW133836   4.181   2.150   0.668  0.3779  0.4809 -0.0593
10901SOL    HW233837   4.182   2.282   0.743  0.1494  0.9588 -0.8768
10902SOL     OW33838   6.049   0.059   1.412 -0.5536  0.2724  0.6458
10902SOL    HW133839   6.064   0.083   1.504 -1.5577 -1.2639  1.2576
10902SOL    HW233840   6.126   0.093   1.366  0.6749 -0.1359  2.2766
10903SOL     OW33841   3.632   0.605   7.996 -0.9323  0.3252 -0.1680
10903SOL    HW133842   3.695   0.663   7.955  0.2639  0.5836  1.8775
10903SOL    HW233843   3.672   0.580   8.079 -2.1583 -2.0785 -0.1903
10904SOL     OW33844   0.170   5.707   5.845  0.0897  0.5931 -0.2149
10904SOL    HW133845   0.097   5.655   5.879  0.8180  0.2569  0.9149
10904SOL    HW233846   0.139   5.798   5.849 -0.7208  0.3524 -0.9644
10905SOL     OW33847   2.011   7.432   4.628 -0.4417 -0.3143 -0.3794
10905SOL    HW133848   1.969   7.490   4.692 -1.1271 -0.8119 -0.3707
10905SOL    HW233849   1.983   7.467   4.543  1.4809  1.1257 -0.4959
10906SOL     OW33850   5.944   2.865   1.749  0.8545  0.2117  0.1952
10906SOL    HW133851   5.921   2.778   1.717  2.6878  0.6185 -2.6767
10906SOL    HW233852   5.962   2.853   1.842  1.0858 -2.4874 -0.1276
10907SOL     OW33853   2.890   8.350   5.097 -0.6667  0.3383 -0.0333
10907SOL    HW133854   2.973   8.361   5.143 -0.2483 -1.8126 -0.1566
10907SOL    HW233855   2.845   8.434   5.108  1.1041  1.2386  0.8408
10908SOL     OW33856   4.450   1.580   3.236 -0.1093 -0.4530  0.1645
10908SOL    HW133857   4.530   1.528   3.225  0.2496 -0.0537  0.8340
10908SOL    HW233858   4.412   1.549   3.318 -0.8666 -0.9219 -0.3504
10909SOL     OW33859   3.220   3.242   5.611 -0.0460 -0.3425  0.6503
10909SOL    HW133860   3.244   3.166   5.557  1.1590  0.4186  0.0627
10909SOL    HW233861   3.295   3.254   5.670 -0.0158  0.6440  0.4250
10910SOL     OW33862   2.964   7.049   1.089 -0.0908 -0.4830  0.3090
10910SOL    HW133863   2.869   7.051   1.084 -0.0502  0.6293 -0.4019
10910SOL    HW233864   2.984   6.972   1.142 -1.3505 -1.2765 -0.3237
10911SOL     OW33865   4.263   7.309   0.908 -0.0212 -0.4662  0.0554
10911SOL    HW133866   4.336   7.368   0.929  0.5216 -0.7357 -1.0328
10911SOL    HW233867   4.187   7.367   0.898  0.4909  0.0500 -0.9374
10912SOL     OW33868   9.096   2.994   3.761  0.5096  0.4352  0.4640
10912SOL    HW133869   9.037   2.967   3.691  0.4708  0.4066  0.5076
10912SOL    HW233870   9.041   3.046   3.820  0.6786  0.9384  0.1761
10913SOL     OW33871   4.391   4.109   1.286 -0.3127 -0.0578 -0.0126
10913SOL    HW133872   4.470   4.079   1.330 -1.3075 -2.1299  0.5112
10913SOL    HW233873   4.356   4.177   1.344  0.4523  0.0380  0.3501
10914SOL     OW33874   5.021   1.463   4.360  0.4796 -0.3878  0.0740
10914SOL    HW133875   5.093   1.522   4.383 -1.6059  1.9169  1.1832
10914SOL    HW233876   5.019   1.398   4.430  0.4748  0.5459  0.9651
10915SOL     OW33877   1.294   3.021   3.572 -0.0503  0.2771 -0.2908
10915SOL    HW133878   1.298   3.115   3.586 -1.0815  0.1237  1.2970
10915SOL    HW233879   1.260   3.010   3.484  0.0027  1.3824 -0.4543
10916SOL     OW33880   5.773   4.551   6.466 -0.0733 -0.5766  0.0526
10916SOL    HW133881   5.790   4.510   6.381 -1.4142  1.8955 -1.5048
10916SOL    HW233882   5.683   4.527   6.486 -0.0348 -0.4564  0.3642
10917SOL     OW33883   2.742   4.147   3.315  0.1437  0.2679  0.7947
10917SOL    HW133884   2.793   4.215   3.359  1.0896 -0.0356  0.1955
10917SOL    HW233885   2.652   4.179   3.317  0.5767  1.5641  0.4841
10918SOL     OW33886   3.420   5.838   8.668 -0.0170  0.0390  0.3125
10918SOL    HW133887   3.395   5.920   8.626 -0.1867 -1.2913 -2.3524
10918SOL    HW233888   3.514   5.845   8.681  0.0878  0.3443 -0.6011
10919SOL     OW33889   3.796   6.635   2.930  0.8944 -0.0973  1.2140
10919SOL    HW133890   3.787   6.651   3.024  1.1165  1.5192  0.9911
10919SOL    HW233891   3.730   6.692   2.890  0.2999 -1.3125  0.4043
10920SOL     OW33892   8.402   1.411   0.469  0.4751 -0.0048 -0.4467
10920SOL    HW133893   8.391   1.317   0.452  0.1592 -0.3179  1.3375
10920SOL    HW233894   8.457   1.415   0.547 -0.9638  1.2452  0.5622
10921SOL     OW33895   5.359   3.691   4.559 -0.1777 -0.1519 -0.4167
10921SOL    HW133896   5.448   3.666   4.534 -0.7876 -3.3705  0.1004
10921SOL    HW233897   5.365   3.712   4.652  0.5038  2.9288 -1.0399
10922SOL     OW33898   3.645   5.663   9.094 -0.1198  0.5820  0.5463
10922SOL    HW133899   3.570   5.718   9.070 -0.1938 -0.1108 -0.9043
10922SOL    HW233900   3.605   5.580   9.122  0.0842  0.0833 -0.5737
10923SOL     OW33901   7.155   5.944   6.917  0.3433  0.6315 -0.1823
10923SOL    HW133902   7.225   6.007   6.932 -0.3550  1.2840  0.3849
10923SOL    HW233903   7.194   5.879   6.858  1.3597  1.0811 -0.0264
10924SOL     OW33904   2.652   3.206   8.542 -0.0214  0.1781  0.2078
10924SOL    HW133905   2.666   3.135   8.480  1.2250 -0.5152  1.2201
10924SOL    HW233906   2.716   3.273   8.517 -0.4281  0.4624 -0.0673
10925SOL     OW33907   2.857   5.905   2.397 -0.0518  0.0158  0.0002
10925SOL    HW133908   2.788   5.922   2.461 -0.6281 -0.0194 -0.6054
10925SOL    HW233909   2.844   5.970   2.329  0.2765 -0.2382 -0.3126
10926SOL     OW33910   1.311   4.996   5.902  0.3830 -0.6910  0.7435
10926SOL    HW133911   1.341   4.915   5.944 -1.6446 -3.1090 -2.0376
10926SOL    HW233912   1.216   4.988   5.899  0.2341  1.0358 -1.0180
10927SOL     OW33913   1.324   6.346   3.744  0.2272  0.3232  0.0293
10927SOL    HW133914   1.375   6.356   3.825  0.7505  1.3653 -0.3987
10927SOL    HW233915   1.233   6.359   3.772  0.3642  0.2516  0.5240
10928SOL     OW33916   4.234   6.711   7.384  0.2587 -0.1338  0.3266
10928SOL    HW133917   4.279   6.650   7.442  2.6224  1.4055  0.2797
10928SOL    HW233918   4.217   6.661   7.304 -0.7892 -1.5696  1.3975
10929SOL     OW33919   0.192   1.014   2.868  0.1957  0.2103  0.1248
10929SOL    HW133920   0.258   0.945   2.870  1.6097  1.4948  2.1238
10929SOL    HW233921   0.115   0.976   2.909  0.8688 -0.2819  0.9531
10930SOL     OW33922   8.937   4.869   6.832 -0.1604 -0.1104  0.2068
10930SOL    HW133923   8.938   4.962   6.854 -1.6815  0.0812 -0.4001
10930SOL    HW233924   8.898   4.827   6.908  2.0708 -0.5134  1.2046
10931SOL     OW33925   8.151   8.786   5.392  0.1268 -0.3363  0.2340
10931SOL    HW133926   8.111   8.873   5.397  1.6829  0.3786  1.0825
10931SOL    HW233927   8.175   8.765   5.482  0.2895 -1.3941 -0.0420
10932SOL     OW33928   8.481   1.119   5.555  0.1522 -0.3828 -0.2120
10932SOL    HW133929   8.534   1.046   5.522 -1.9060 -2.3469  0.5251
10932SOL    HW233930   8.425   1.143   5.481 -0.6720 -1.0749  0.1660
10933SOL     OW33931   7.935   6.075   3.307  0.2725  0.5011  0.0503
10933SOL    HW133932   7.888   6.133   3.247 -0.3462  0.3945  0.4194
10933SOL    HW233933   7.984   6.016   3.250  0.9464  1.4125 -0.3294
10934SOL     OW33934   6.758   0.654   2.321 -0.1099  0.1158 -0.1034
10934SOL    HW133935   6.708   0.730   2.291  1.5563  0.9650 -0.8847
10934SOL    HW233936   6.698   0.580   2.309 -0.7658  0.9002 -2.2150
10935SOL     OW33937   5.261   4.228   0.741 -0.1198  0.1175  0.0222
10935SOL    HW133938   5.274   4.180   0.660 -0.2213  1.3773 -0.7685
10935SOL    HW233939   5.195   4.178   0.789 -1.2304  0.1806 -1.3810
10936SOL     OW33940   1.231   0.651   2.963  0.4578  0.4422  0.0837
10936SOL    HW133941   1.238   0.639   3.058 -2.4855 -1.7292  0.1714
10936SOL    HW233942   1.253   0.566   2.925  0.7833  1.0439 -1.1308
10937SOL     OW33943   8.080   3.532   7.592  0.3708 -0.5886 -0.0143
10937SOL    HW133944   8.096   3.564   7.503  1.3158 -0.5278  0.1645
10937SOL    HW233945   8.132   3.590   7.648  0.8397 -1.4484  0.4540
10938SOL     OW33946   6.109   4.546   4.077 -0.2045  0.0447 -0.5781
10938SOL    HW133947   6.100   4.630   4.032 -2.7155  0.2049  0.0803
10938SOL    HW233948   6.086   4.565   4.168  1.3903 -0.9507  0.0709
10939SOL     OW33949   2.235   3.602   8.457  0.2727  0.6990 -0.2865
10939SOL    HW133950   2.293   3.669   8.420  0.0757  1.1604  0.2333
10939SOL    HW233951   2.277   3.519   8.433  1.0275  1.0232 -0.1232
10940SOL     OW33952   5.897   3.495   5.716 -0.4753 -0.1832 -0.2119
10940SOL    HW133953   5.924   3.526   5.629  0.1893 -1.0489 -0.3216
10940SOL    HW233954   5.831   3.429   5.698 -0.6097 -0.0950 -0.0415
10941SOL     OW33955   8.778   8.591   4.478 -0.6047  0.5293 -0.1399
10941SOL    HW133956   8.768   8.624   4.567 -0.7750  1.9413 -0.6499
10941SOL    HW233957   8.713   8.639   4.427 -0.1761  0.1129 -1.1121
10942SOL     OW33958   3.656   6.159   5.834  0.1030 -0.5872  0.2291
10942SOL    HW133959   3.566   6.127   5.838  1.0166 -3.2980  1.8628
10942SOL    HW233960   3.693   6.119   5.755 -0.0405  0.3812 -0.3451
10943SOL     OW33961   8.562   2.745   1.734  0.0759  0.4196 -0.3692
10943SOL    HW133962   8.560   2.657   1.770  0.8030  0.9303  0.9766
10943SOL    HW233963   8.623   2.793   1.790 -0.6371  1.8929 -0.8020
10944SOL     OW33964   6.926   0.393   6.424  0.1321 -0.7984 -0.1497
10944SOL    HW133965   6.987   0.335   6.378  0.6102 -0.2179 -0.2716
10944SOL    HW233966   6.840   0.353   6.412  0.5274 -1.7912  0.2735
10945SOL     OW33967   2.495   8.873   0.608  0.3536 -0.1002  0.5087
10945SOL    HW133968   2.440   8.810   0.654  1.5723 -0.6516  1.2424
10945SOL    HW233969   2.533   8.824   0.536  0.7212 -0.0198  0.6439
10946SOL     OW33970   2.312   8.416   5.396  0.4202 -0.2701 -0.1786
10946SOL    HW133971   2.284   8.489   5.451  2.0360 -0.5331  1.0585
10946SOL    HW233972   2.354   8.355   5.457  2.9130 -0.2484 -1.7492
10947SOL     OW33973   0.447   1.512   5.050 -0.3919 -0.1431  0.4694
10947SOL    HW133974   0.447   1.517   4.954  0.0896  0.1202  0.4777
10947SOL    HW233975   0.389   1.439   5.070 -1.9116  0.8997  0.0522
10948SOL     OW33976   4.017   3.786   2.089 -0.2622 -0.2673 -0.5296
10948SOL    HW133977   3.996   3.825   2.174 -1.7811 -2.3601  0.1553
10948SOL    HW233978   3.936   3.795   2.039  0.3139  0.0640 -1.4155
10949SOL     OW33979   4.336   5.085   1.912  0.5493 -0.4306 -0.2969
10949SOL    HW133980   4.370   5.106   1.824 -1.7865  1.4536 -0.8522
10949SOL    HW233981   4.382   5.146   1.970  0.8494 -0.4877 -0.4716
10950SOL     OW33982   2.386   6.842   2.531 -0.1126  0.4815 -0.2097
10950SOL    HW133983   2.351   6.769   2.481  0.9858 -0.6375  0.6041
10950SOL    HW233984   2.389   6.811   2.621  0.6362  1.4398  0.1151
10951SOL     OW33985   6.667   3.365   0.213 -0.2652  0.5152  0.0345
10951SOL    HW133986   6.657   3.374   0.308 -0.4250  1.7619 -0.0841
10951SOL    HW233987   6.577   3.358   0.181 -0.2198  0.3188 -0.0530
10952SOL     OW33988   6.631   1.113   8.648  0.1760  0.4285 -0.3406
10952SOL    HW133989   6.660   1.166   8.574 -1.1115  0.0050 -1.1746
10952SOL    HW233990   6.600   1.176   8.712 -0.0327  0.7356 -0.7444
10953SOL     OW33991   5.413   4.408   1.001 -0.2941  0.5271  0.1099
10953SOL    HW133992   5.347   4.477   0.997 -0.1371  0.8519  2.1244
10953SOL    HW233993   5.366   4.329   0.974 -1.6591  0.6744  1.8634
10954SOL     OW33994   7.538   8.240   5.386  0.3632 -0.3840  0.1439
10954SOL    HW133995   7.479   8.267   5.316  0.1449  0.2817  0.5741
10954SOL    HW233996   7.520   8.147   5.397  1.0428 -0.7080 -1.2879
10955SOL     OW33997   8.186   8.978   5.861 -0.3143  0.0512  0.5203
10955SOL    HW133998   8.130   8.900   5.857  0.6398 -0.6197  0.0781
10955SOL    HW233999   8.187   9.011   5.772  0.2311 -0.1151  0.4626
10956SOL     OW34000   8.471   5.264   0.127  0.8624 -0.2144 -0.1871
10956SOL    HW134001   8.478   5.180   0.173  0.2590 -0.5964 -0.7774
10956SOL    HW234002   8.508   5.248   0.040 -1.0098 -0.4329 -0.9919
10957SOL     OW34003   6.362   3.064   7.855 -0.5055 -0.0283 -0.5612
10957SOL    HW134004   6.345   3.158   7.849 -1.5322 -0.1548  0.1769
10957SOL    HW234005   6.456   3.058   7.873 -0.3040  0.8233 -1.2794
10958SOL     OW34006   6.162   1.875   2.509 -0.0088  0.1408  0.1201
10958SOL    HW134007   6.146   1.785   2.479 -1.2641  0.8128 -1.4198
10958SOL    HW234008   6.167   1.868   2.604  1.7239 -1.7858 -0.0360
10959SOL     OW34009   3.561   6.838   1.988 -0.0600  0.1806  0.2784
10959SOL    HW134010   3.619   6.904   2.026 -0.0222 -0.2690  1.0436
10959SOL    HW234011   3.619   6.782   1.937 -0.0961  0.7448 -0.3948
10960SOL     OW34012   5.408   1.138   4.967 -0.1630  0.6146 -0.0879
10960SOL    HW134013   5.366   1.223   4.977 -2.7541 -0.5625 -0.2265
10960SOL    HW234014   5.498   1.152   4.996  0.3827  4.0688 -2.8165
10961SOL     OW34015   4.718   0.844   8.276  0.9119 -0.4542  0.2790
10961SOL    HW134016   4.671   0.923   8.252  2.8717  0.5364 -0.5036
10961SOL    HW234017   4.807   0.873   8.295  1.2178 -2.2088  1.9080
10962SOL     OW34018   8.909   4.859   0.341  0.1482  0.8368 -0.2087
10962SOL    HW134019   8.945   4.876   0.428  0.8720 -0.6724 -0.1873
10962SOL    HW234020   8.862   4.939   0.318  0.8792  1.6636  1.1021
10963SOL     OW34021   5.926   7.022   6.085 -0.1150 -0.3557 -0.2220
10963SOL    HW134022   5.910   6.981   6.170 -0.8248 -0.4780 -0.4076
10963SOL    HW234023   6.021   7.012   6.071  0.2030  0.6600  1.0480
10964SOL     OW34024   6.992   1.142   7.362  0.4070 -0.5521  0.2860
10964SOL    HW134025   7.000   1.216   7.302 -0.5190  1.2939  2.2568
10964SOL    HW234026   6.905   1.106   7.345 -0.0375  0.2555  0.7645
10965SOL     OW34027   3.786   3.533   3.242 -0.1491 -0.6876 -0.1415
10965SOL    HW134028   3.784   3.578   3.326  0.9391 -0.5866 -0.1556
10965SOL    HW234029   3.833   3.451   3.259  0.7937 -0.3001 -0.8183
10966SOL     OW34030   2.268   7.100   3.925 -0.1519  0.0149  0.1910
10966SOL    HW134031   2.199   7.144   3.975  0.5672 -0.4765  1.6568
10966SOL    HW234032   2.266   7.142   3.840 -0.0151  2.3703  1.2832
10967SOL     OW34033   4.841   7.693   8.092  0.4078 -0.4187 -0.2238
10967SOL    HW134034   4.858   7.664   8.182 -0.6358 -1.1989 -0.2581
10967SOL    HW234035   4.887   7.777   8.085  1.5749 -0.9466  0.6240
10968SOL     OW34036   8.127   5.698   7.608  0.5060 -0.5095  0.2851
10968SOL    HW134037   8.039   5.661   7.596  0.0802  0.7805 -0.9463
10968SOL    HW234038   8.155   5.720   7.519  2.5950 -1.9726  0.5276
10969SOL     OW34039   7.634   6.248   3.804 -0.7802 -0.6603 -0.3910
10969SOL    HW134040   7.562   6.311   3.814 -0.9693 -0.9185 -0.1032
10969SOL    HW234041   7.602   6.169   3.847  0.0136 -0.5080  0.5102
10970SOL     OW34042   1.634   5.845   0.865 -0.0478 -0.8284  0.0703
10970SOL    HW134043   1.636   5.890   0.780  0.9436 -1.4875 -0.2712
10970SOL    HW234044   1.631   5.752   0.843 -0.1931 -0.9945  0.7632
10971SOL     OW34045   5.350   2.308   4.732  0.1494  0.1754  0.5270
10971SOL    HW134046   5.402   2.294   4.812  0.9813  0.5443  0.0623
10971SOL    HW234047   5.345   2.404   4.725  0.5574  0.1462 -0.1680
10972SOL     OW34048   6.226   2.921   0.025  0.0090  0.2850 -0.6121
10972SOL    HW134049   6.263   2.991  -0.030 -0.2734  0.3087 -0.7780
10972SOL    HW234050   6.165   2.876  -0.033 -1.4278  1.2480  0.0841
10973SOL     OW34051   3.267   3.682   0.139  0.3679  0.2769  0.4068
10973SOL    HW134052   3.209   3.748   0.100 -0.1477  0.2304  1.0813
10973SOL    HW234053   3.233   3.598   0.107  1.3959  0.3380 -0.9515
10974SOL     OW34054   6.658   8.828   5.228 -0.2711  0.2809  0.5688
10974SOL    HW134055   6.654   8.832   5.132 -2.9426  0.0531  0.6030
10974SOL    HW234056   6.574   8.862   5.256  0.4556  0.3074  2.8805
10975SOL     OW34057   8.644   8.235   7.307 -0.2230 -0.0758 -0.3490
10975SOL    HW134058   8.723   8.214   7.356  0.2576  0.2567 -0.9562
10975SOL    HW234059   8.670   8.224   7.215 -0.3346  1.7937 -0.6457
10976SOL     OW34060   1.050   1.390   3.385 -0.0901 -0.3312 -0.2852
10976SOL    HW134061   1.010   1.476   3.371 -0.0675 -0.2004  0.4066
10976SOL    HW234062   1.144   1.408   3.393 -0.1369 -0.3588  0.3429
10977SOL     OW34063   5.434   5.649   8.322 -0.4450  0.4619 -0.6885
10977SOL    HW134064   5.455   5.572   8.375 -0.3138  0.0678 -1.3004
10977SOL    HW234065   5.519   5.687   8.301 -0.3730 -0.5329 -2.2887
10978SOL     OW34066   0.790   5.394   1.588  0.4196 -0.1215 -0.2030
10978SOL    HW134067   0.857   5.333   1.620  1.0744 -0.2444 -1.7462
10978SOL    HW234068   0.711   5.340   1.577  1.0101 -0.7360 -1.6070
10979SOL     OW34069   5.066   8.799   4.218  0.1696  0.0341  0.2973
10979SOL    HW134070   4.980   8.840   4.230 -0.0003 -0.6480  1.6052
10979SOL    HW234071   5.084   8.758   4.302  1.3211 -0.7089 -0.2998
10980SOL     OW34072   4.616   1.283   2.905  0.0186 -0.3065  0.3150
10980SOL    HW134073   4.627   1.190   2.886 -1.2882  0.0725 -2.8847
10980SOL    HW234074   4.640   1.328   2.824  1.9158  2.3437  2.1499
10981SOL     OW34075   3.617   8.988   0.636 -0.1165  0.6512 -0.4526
10981SOL    HW134076   3.567   8.943   0.568 -2.1727  0.6118  0.9640
10981SOL    HW234077   3.708   8.971   0.615 -0.6390  0.7919 -3.2638
10982SOL     OW34078   6.283   7.236   1.689  0.1781  0.4620 -0.4525
10982SOL    HW134079   6.320   7.278   1.767  1.5166  0.1503 -0.8957
10982SOL    HW234080   6.207   7.188   1.721  0.2061  1.0385  0.5079
10983SOL     OW34081   8.918   2.193   6.353  0.5907 -0.4075 -0.1866
10983SOL    HW134082   8.933   2.240   6.271  1.2986 -0.9545 -0.3871
10983SOL    HW234083   9.004   2.189   6.394 -0.1105  1.7776  1.6692
10984SOL     OW34084   0.507   1.883   4.003 -0.0507 -0.2796  0.1005
10984SOL    HW134085   0.424   1.919   4.035  0.3772  0.7984  0.0530
10984SOL    HW234086   0.485   1.844   3.918 -0.4760  0.1352  0.0152
10985SOL     OW34087   3.955   3.387   4.991 -0.1320  0.5233 -0.0632
10985SOL    HW134088   4.002   3.466   4.962  1.4870 -0.9676 -1.7740
10985SOL    HW234089   3.961   3.327   4.917 -0.4779 -1.5641  1.5025
10986SOL     OW34090   5.208   3.757   1.831  0.6553 -0.1599 -0.1333
10986SOL    HW134091   5.245   3.694   1.770  1.6973  0.0125  0.2965
10986SOL    HW234092   5.263   3.834   1.822  0.7214 -0.0754  0.8902
10987SOL     OW34093   1.929   5.659   4.214  0.4342  0.7516  0.1154
10987SOL    HW134094   1.931   5.588   4.149 -0.0309  1.8286 -1.1162
10987SOL    HW234095   1.843   5.699   4.203  0.0775  0.5145  1.9095
10988SOL     OW34096   4.588   1.704   0.954  0.1666 -0.0135  0.3217
10988SOL    HW134097   4.591   1.695   0.859  2.0658 -0.1837  0.3629
10988SOL    HW234098   4.512   1.652   0.981 -0.3456 -0.0336 -1.0673
10989SOL     OW34099   4.096   3.594   5.341 -0.2368 -0.4686 -0.2910
10989SOL    HW134100   4.051   3.649   5.405  0.9000  0.1690  0.0047
10989SOL    HW234101   4.075   3.634   5.257 -0.5293 -0.3955 -0.1828
10990SOL     OW34102   2.902   0.680   7.115 -0.2437  0.7072  0.0015
10990SOL    HW134103   2.907   0.630   7.197 -1.0808  0.1991 -0.2458
10990SOL    HW234104   2.813   0.714   7.113 -0.1588  0.9112 -0.5883
10991SOL     OW34105   5.598   8.634   3.410 -0.0868  0.4380  0.2476
10991SOL    HW134106   5.658   8.636   3.485  1.8073 -0.9446 -1.1280
10991SOL    HW234107   5.653   8.657   3.335 -1.5058  0.0080 -0.9657
10992SOL     OW34108   3.937   4.313   8.127  0.3724 -0.2063  0.7260
10992SOL    HW134109   3.951   4.368   8.049  3.5106 -0.1452  1.1875
10992SOL    HW234110   3.920   4.376   8.197 -0.0915 -0.1065  0.5292
10993SOL     OW34111   0.267   8.806   2.548  0.3517  0.3309 -0.4689
10993SOL    HW134112   0.267   8.890   2.594  1.1426  0.7179 -1.1561
10993SOL    HW234113   0.301   8.826   2.461  1.0348 -0.7827 -0.4806
10994SOL     OW34114   7.837   2.393   0.997 -0.5481  0.7208 -0.4056
10994SOL    HW134115   7.777   2.354   0.934 -1.1691  0.5696  0.2669
10994SOL    HW234116   7.908   2.429   0.943 -1.6645  1.6721 -1.2888
10995SOL     OW34117   3.680   1.700   4.432  0.6924 -0.2486  0.5059
10995SOL    HW134118   3.700   1.793   4.442  2.5971 -0.4843 -0.5271
10995SOL    HW234119   3.735   1.672   4.359  1.3911 -2.5516  1.8122
10996SOL     OW34120   3.557   6.738   1.579  0.3375  0.1923  0.3674
10996SOL    HW134121   3.471   6.698   1.572  0.6772 -0.3450 -1.2791
10996SOL    HW234122   3.611   6.690   1.515  1.3877  1.6826  0.0822
10997SOL     OW34123   4.562   8.548   4.119  0.1083  0.0262  0.0150
10997SOL    HW134124   4.518   8.633   4.112  2.8890  1.4610 -1.8019
10997SOL    HW234125   4.597   8.545   4.208 -1.6352 -0.1759  0.7415
10998SOL     OW34126   8.742   4.131   6.822  0.0841  0.1754 -0.1607
10998SOL    HW134127   8.822   4.155   6.774  1.5017 -0.1927  1.9013
10998SOL    HW234128   8.704   4.061   6.769  1.4067 -0.0039 -0.9355
10999SOL     OW34129   2.574   1.813   5.643  0.0257  0.3962 -0.2288
10999SOL    HW134130   2.589   1.830   5.550  1.3034  0.5401 -0.0025
10999SOL    HW234131   2.538   1.725   5.646 -0.1766  0.4517 -0.8689
11000SOL     OW34132   5.945   2.327   0.005  0.8596  0.0578 -0.6042
11000SOL    HW134133   5.948   2.278  -0.077 -0.0955 -0.3352 -0.4200
11000SOL    HW234134   5.874   2.286   0.055  0.2498  1.4280 -0.3159
11001SOL     OW34135   1.574   5.997   5.193 -0.1666 -0.1529 -0.1637
11001SOL    HW134136   1.619   5.950   5.122 -0.8520 -0.2192 -0.5586
11001SOL    HW234137   1.644   6.018   5.255  0.1818 -1.6830  0.0214
11002SOL     OW34138   1.240   4.127   8.606 -0.3780  0.4338 -0.6933
11002SOL    HW134139   1.292   4.085   8.538 -0.3356  0.9532 -0.9886
11002SOL    HW234140   1.237   4.219   8.580 -0.6200  0.5812 -0.1563
11003SOL     OW34141   6.812   0.996   8.028 -0.0462 -0.3352 -0.6260
11003SOL    HW134142   6.757   1.015   8.104  1.8148  0.0863  0.6924
11003SOL    HW234143   6.787   1.061   7.962 -2.4588 -1.3991 -0.8526
11004SOL     OW34144   0.151   1.534   3.080 -0.5538 -0.2263  0.2432
11004SOL    HW134145   0.115   1.508   3.165 -0.1578 -0.2851  0.3944
11004SOL    HW234146   0.137   1.628   3.075 -0.1674 -0.1514  0.5706
11005SOL     OW34147   1.324   7.157   0.552 -0.0381 -0.0174  0.1301
11005SOL    HW134148   1.307   7.066   0.528  0.3973 -0.3584  1.0782
11005SOL    HW234149   1.340   7.201   0.469 -2.4408 -0.3205 -0.5754
11006SOL     OW34150   5.351   1.143   2.389  0.2265 -0.5701  0.5046
11006SOL    HW134151   5.401   1.208   2.438  1.6201  0.1677 -1.7675
11006SOL    HW234152   5.407   1.066   2.386  0.2182 -0.5593 -0.0211
11007SOL     OW34153   1.547   2.181   5.680 -0.9025 -0.4037 -0.2271
11007SOL    HW134154   1.550   2.186   5.585  2.4060  0.4719 -0.2070
11007SOL    HW234155   1.581   2.265   5.710  1.4448 -1.8188  1.5553
11008SOL     OW34156   6.523   7.058   1.749 -0.0535 -0.3486  0.3659
11008SOL    HW134157   6.462   7.032   1.679  0.2525  1.2427 -0.5409
11008SOL    HW234158   6.576   7.127   1.710  2.1139 -1.4037  1.2487
11009SOL     OW34159   3.790   3.963   2.971  0.0052  0.0902  0.0740
11009SOL    HW134160   3.727   3.908   2.924  1.3934 -1.1090 -0.4529
11009SOL    HW234161   3.829   4.018   2.904 -1.5761  2.0222  0.6372
11010SOL     OW34162   8.120   0.812   4.602  0.0620 -1.1689 -0.3432
11010SOL    HW134163   8.090   0.761   4.677  0.8249 -0.1953  0.6573
11010SOL    HW234164   8.211   0.785   4.589  0.3240 -0.4403 -0.0986
11011SOL     OW34165   8.961   0.389   5.518  0.2307  0.3986  0.5583
11011SOL    HW134166   8.995   0.346   5.596  0.4132  1.1192  0.8893
11011SOL    HW234167   8.869   0.366   5.516  0.7242 -1.7282 -0.4460
11012SOL     OW34168   6.105   6.662   3.671  0.2622  0.5744  0.0398
11012SOL    HW134169   6.061   6.726   3.615 -1.9939 -0.6613  0.3005
11012SOL    HW234170   6.117   6.586   3.614 -1.3195 -0.3984  0.9311
11013SOL     OW34171   5.431   2.710   0.884 -0.1875 -0.3531 -0.1322
11013SOL    HW134172   5.399   2.682   0.970 -0.2502  1.4302  0.4626
11013SOL    HW234173   5.472   2.795   0.900 -0.3647  0.1134 -1.8969
11014SOL     OW34174   7.803   1.487   9.022 -0.3251  0.3748 -0.4013
11014SOL    HW134175   7.791   1.489   9.117  0.2680  0.4663 -0.3235
11014SOL    HW234176   7.786   1.577   8.994  0.0619  0.4800 -0.3062
11015SOL     OW34177   6.267   6.118   2.129 -0.0374  0.3894  0.0985
11015SOL    HW134178   6.338   6.181   2.123 -0.5307  0.8117 -1.8382
11015SOL    HW234179   6.308   6.033   2.114  0.0961  0.6141 -0.8412
11016SOL     OW34180   1.223   1.673   2.159  0.3092  0.1291  0.0949
11016SOL    HW134181   1.290   1.609   2.134  1.4770  0.9665  0.9616
11016SOL    HW234182   1.140   1.630   2.139  1.0836 -0.3195 -2.5311
11017SOL     OW34183   4.444   0.696   4.243 -0.2277  0.0019  0.4777
11017SOL    HW134184   4.423   0.789   4.240 -1.7754 -0.3575 -1.7181
11017SOL    HW234185   4.488   0.678   4.160 -1.2345 -1.4789  0.2359
11018SOL     OW34186   8.110   1.230   7.685 -0.2497  0.4278  0.4769
11018SOL    HW134187   8.059   1.152   7.663 -1.1208  1.2027 -0.3387
11018SOL    HW234188   8.182   1.230   7.622 -0.4280  0.4403  0.2718
11019SOL     OW34189   4.554   0.034   7.726  0.5934  0.0111  0.4169
11019SOL    HW134190   4.602  -0.010   7.655  0.0296  0.9950 -0.5965
11019SOL    HW234191   4.598   0.004   7.806 -0.3645 -3.1962 -0.0882
11020SOL     OW34192   2.006   0.479   2.005  0.1668  0.1579  0.1396
11020SOL    HW134193   2.046   0.471   2.091  1.4714  2.2840 -0.1882
11020SOL    HW234194   1.978   0.390   1.982 -0.3286 -0.4360  2.7699
11021SOL     OW34195   8.154   5.198   5.627 -0.1482  0.3819  0.1373
11021SOL    HW134196   8.083   5.249   5.588 -1.1679  0.6591  2.2081
11021SOL    HW234197   8.157   5.118   5.575 -2.0641  0.3147  0.0444
11022SOL     OW34198   5.126   2.092   7.044  0.0367  0.1434 -0.0101
11022SOL    HW134199   5.144   2.186   7.055 -0.5426  0.2509  0.0419
11022SOL    HW234200   5.212   2.051   7.051  0.1670  0.5575  1.1787
11023SOL     OW34201   6.635   2.110   3.024 -0.2588  0.0702  0.6905
11023SOL    HW134202   6.658   2.203   3.026 -0.0988  0.0293  0.9698
11023SOL    HW234203   6.586   2.098   2.943  1.4537  0.0017 -0.3874
11024SOL     OW34204   1.211   5.669   7.193 -0.1938  0.0199 -0.5146
11024SOL    HW134205   1.304   5.656   7.213 -0.0399  0.3709 -0.9905
11024SOL    HW234206   1.195   5.761   7.211 -0.6315 -0.1916  0.2474
11025SOL     OW34207   7.976   1.651   3.025 -0.0023  0.2079 -0.0070
11025SOL    HW134208   8.061   1.668   3.066 -0.1204 -1.3461  0.9883
11025SOL    HW234209   7.929   1.598   3.090 -0.7433 -1.1639 -1.5973
11026SOL     OW34210   5.551   2.092   0.906 -0.0933  0.7661 -0.4581
11026SOL    HW134211   5.574   2.020   0.848 -1.0280  2.1547 -2.6914
11026SOL    HW234212   5.635   2.129   0.932  0.5066 -2.0225  2.1312
11027SOL     OW34213   8.664   4.959   4.456  0.3814  0.1953  0.6046
11027SOL    HW134214   8.593   4.993   4.401 -1.3264 -1.9003  1.3744
11027SOL    HW234215   8.727   4.924   4.394  0.9538  2.3317 -0.1069
11028SOL     OW34216   8.716   6.549   3.647 -0.2355  0.3718 -0.2247
11028SOL    HW134217   8.767   6.489   3.592 -0.4791  0.1809 -0.2440
11028SOL    HW234218   8.683   6.495   3.718  0.2545  0.6620  0.2385
11029SOL     OW34219   5.148   2.997   6.417 -0.2814 -0.1866  0.2860
11029SOL    HW134220   5.200   3.077   6.408 -0.8959  0.1589 -0.2847
11029SOL    HW234221   5.213   2.926   6.416  0.2657  0.2977  0.7962
11030SOL     OW34222   0.864   5.951   7.738 -0.1191  0.0896  0.0362
11030SOL    HW134223   0.878   5.876   7.796  0.8840 -0.1304 -0.4620
11030SOL    HW234224   0.824   5.913   7.660  1.1635 -0.0896 -0.5623
11031SOL     OW34225   3.174   8.234   2.865 -0.0931  0.1789  0.4019
11031SOL    HW134226   3.261   8.195   2.877  0.3060 -0.2962 -3.0116
11031SOL    HW234227   3.190   8.310   2.810 -1.8266  0.1330 -0.2059
11032SOL     OW34228   4.123   4.022   1.785 -0.2105 -0.2776 -0.5397
11032SOL    HW134229   4.199   4.018   1.727  0.4549  0.6080  0.2241
11032SOL    HW234230   4.146   3.965   1.859 -0.4645 -0.3313 -0.5015
11033SOL     OW34231   8.458   1.577   0.038 -0.2680 -0.1875  0.3829
11033SOL    HW134232   8.398   1.568   0.112  0.5444  0.1512  1.1075
11033SOL    HW234233   8.524   1.509   0.053 -1.0854 -1.3354 -1.0333
11034SOL     OW34234   3.778   9.099   5.268  0.1467 -0.5277  0.4247
11034SOL    HW134235   3.799   9.131   5.181 -0.2231 -1.6173 -0.0805
11034SOL    HW234236   3.798   9.006   5.265  1.6405 -0.3189  1.9966
11035SOL     OW34237   0.706   7.395   1.247 -0.0551 -0.1302  0.2302
11035SOL    HW134238   0.640   7.326   1.254 -0.5219  0.1540 -0.9773
11035SOL    HW234239   0.706   7.438   1.332 -0.3289 -1.1062  0.7348
11036SOL     OW34240   0.939   7.741   6.347 -0.3394 -0.3410 -0.3944
11036SOL    HW134241   0.922   7.831   6.373 -4.3715 -0.4141 -1.9313
11036SOL    HW234242   1.034   7.735   6.337  0.1069  3.5489  0.2383
11037SOL     OW34243   2.182   4.056   1.212 -0.2920  0.9646  0.3816
11037SOL    HW134244   2.244   4.126   1.195 -0.4217  0.8029 -0.8720
11037SOL    HW234245   2.160   4.065   1.304  1.6971  0.9177  0.8815
11038SOL     OW34246   1.270   0.964   0.649 -0.4419 -0.3150  0.3885
11038SOL    HW134247   1.242   0.899   0.584 -0.2667 -0.7821  0.7737
11038SOL    HW234248   1.306   0.912   0.721 -0.6525  0.1984  0.8700
11039SOL     OW34249   4.419   7.773   0.388 -0.2652 -0.1010  0.1171
11039SOL    HW134250   4.448   7.697   0.437  2.0302  0.1846 -0.6641
11039SOL    HW234251   4.492   7.793   0.329 -0.3579  3.2540  0.9275
11040SOL     OW34252   5.059   9.060   3.027 -0.1160  0.1639  0.3992
11040SOL    HW134253   5.143   9.061   3.072 -0.3689 -0.5222  0.9136
11040SOL    HW234254   5.052   8.972   2.991  1.2034  1.3589 -3.2370
11041SOL     OW34255   2.661   5.381   6.086  0.1693  0.1363 -0.5500
11041SOL    HW134256   2.631   5.322   6.016  2.2572 -2.4456  0.5451
11041SOL    HW234257   2.751   5.404   6.061  0.9015 -0.7190  1.1207
11042SOL     OW34258   0.657   2.919   6.261 -0.3779  0.0212 -0.6506
11042SOL    HW134259   0.566   2.946   6.276 -0.1585  1.1427 -1.2096
11042SOL    HW234260   0.679   2.958   6.177  0.6801 -0.1033 -0.4359
11043SOL     OW34261   5.812   7.591   8.899  0.3603  0.5589  0.3527
11043SOL    HW134262   5.762   7.638   8.833  0.0025 -1.3847 -0.8262
11043SOL    HW234263   5.901   7.627   8.891  0.3166  0.3991 -1.1730
11044SOL     OW34264   5.173   7.020   1.115  0.1425  0.0176  0.4561
11044SOL    HW134265   5.184   6.925   1.112  0.2875  0.0008  1.3060
11044SOL    HW234266   5.196   7.044   1.204  0.0059  0.8438  0.2770
11045SOL     OW34267   5.070   3.436   4.297  0.8745  0.4525 -0.2697
11045SOL    HW134268   5.041   3.450   4.387 -0.2160 -2.2808 -0.1107
11045SOL    HW234269   5.055   3.520   4.254 -0.6124  1.2101  1.5768
11046SOL     OW34270   1.566   4.085   1.506 -0.2936  0.0087  0.3151
11046SOL    HW134271   1.587   4.103   1.414  0.5632  0.9005  0.6723
11046SOL    HW234272   1.633   4.132   1.555  0.0926 -1.5649  1.3803
11047SOL     OW34273   4.445   5.334   4.701 -0.3815  0.4613  0.7405
11047SOL    HW134274   4.471   5.395   4.770  0.9256  0.9607 -0.1494
11047SOL    HW234275   4.476   5.374   4.620 -1.4648 -0.3372 -0.1103
11048SOL     OW34276   0.011   2.882   0.700  0.2270 -0.3459  0.4548
11048SOL    HW134277   0.052   2.916   0.779 -0.1709 -1.0749  0.9904
11048SOL    HW234278   0.081   2.837   0.653  0.3733 -0.2719  0.6031
11049SOL     OW34279   9.020   3.948   0.005 -0.0039 -0.5735  0.1575
11049SOL    HW134280   8.968   4.025  -0.018  0.6433 -0.2836 -0.3923
11049SOL    HW234281   9.016   3.892  -0.072 -0.4144 -1.0642  0.5311
11050SOL     OW34282   9.010   0.301   3.893  0.4218 -0.3358  0.9775
11050SOL    HW134283   8.986   0.298   3.801 -0.8899  0.2816  1.2642
11050SOL    HW234284   8.980   0.387   3.923  0.8629 -0.5105  1.9663
11051SOL     OW34285   2.042   4.255   5.204 -0.7505  0.3531  0.1098
11051SOL    HW134286   1.973   4.205   5.246 -1.5824  1.8088  0.5261
11051SOL    HW234287   1.998   4.331   5.166  0.1745 -0.1532 -2.1980
11052SOL     OW34288   1.956   3.100   1.876  0.0365 -0.2177  0.0839
11052SOL    HW134289   2.051   3.103   1.888 -0.0389  0.7466  0.5601
11052SOL    HW234290   1.942   3.134   1.787  0.1080  0.2041  0.2303
11053SOL     OW34291   8.809   2.995   8.135  0.0774  0.2238 -0.0084
11053SOL    HW134292   8.730   2.994   8.081 -0.5122  2.1341  0.7087
11053SOL    HW234293   8.821   3.088   8.157  0.7418 -0.3587  2.4442
11054SOL     OW34294   1.114   4.530   1.455  0.6293 -0.0136 -0.2917
11054SOL    HW134295   1.037   4.579   1.426  0.5538  0.2093  0.2670
11054SOL    HW234296   1.177   4.598   1.479 -0.1852 -0.0815  2.4424
11055SOL     OW34297   0.490   6.224   4.562 -0.2322 -0.1329  0.3901
11055SOL    HW134298   0.443   6.248   4.483 -1.7498  0.0677  1.3153
11055SOL    HW234299   0.569   6.180   4.531 -1.3306 -1.0637 -1.2180
11056SOL     OW34300   3.890   7.870   4.875 -0.5063 -0.1077 -0.0924
11056SOL    HW134301   3.904   7.822   4.956  1.5653  1.5276  0.5965
11056SOL    HW234302   3.868   7.959   4.903 -2.2799 -0.1018 -1.3470
11057SOL     OW34303   3.554   6.654   7.406 -0.3919  0.6655 -0.2156
11057SOL    HW134304   3.579   6.621   7.493 -1.2427 -1.9453 -0.8780
11057SOL    HW234305   3.583   6.587   7.345  0.2498  2.4797 -2.0319
11058SOL     OW34306   3.289   7.136   5.320 -0.4811 -0.5714  0.2339
11058SOL    HW134307   3.248   7.221   5.303 -0.2448 -0.8595 -2.1187
11058SOL    HW234308   3.217   7.073   5.313 -0.0200 -0.9091 -2.1552
11059SOL     OW34309   6.955   6.416   1.049 -1.0931 -1.0413 -0.0891
11059SOL    HW134310   6.963   6.329   1.011 -0.0820 -0.9438 -0.1126
11059SOL    HW234311   6.941   6.474   0.974  1.8937 -0.7133 -0.4934
11060SOL     OW34312   6.294   3.780   4.853  0.1746  0.0320 -0.1440
11060SOL    HW134313   6.343   3.746   4.928  2.4085  1.4934 -0.8605
11060SOL    HW234314   6.202   3.761   4.874  0.9110 -1.7340  1.8103
11061SOL     OW34315   4.137   6.051   2.524  0.6894  0.0119 -0.2346
11061SOL    HW134316   4.058   6.082   2.568  0.5084  1.0461 -1.2154
11061SOL    HW234317   4.151   5.963   2.557 -0.6410 -0.0272  0.2680
11062SOL     OW34318   1.349   4.506   7.435  0.0454 -0.3195 -0.2088
11062SOL    HW134319   1.269   4.548   7.465 -1.1414 -2.1551 -0.6417
11062SOL    HW234320   1.363   4.434   7.496  0.2367 -1.2286 -1.2965
11063SOL     OW34321   8.523   4.229   2.297  0.1188 -0.2854  0.0495
11063SOL    HW134322   8.455   4.162   2.291 -0.0077 -0.0439 -1.8762
11063SOL    HW234323   8.485   4.296   2.353 -0.1250 -1.3864  1.2394
11064SOL     OW34324   7.125   4.839   6.330  0.5604 -0.3531  0.1557
11064SOL    HW134325   7.112   4.754   6.288 -1.3158 -0.2144  0.4045
11064SOL    HW234326   7.158   4.896   6.261 -1.3405 -0.4444 -0.8717
11065SOL     OW34327   1.689   5.187   3.724  0.0434  0.1732  0.0390
11065SOL    HW134328   1.703   5.240   3.803  0.3198  0.1925 -0.0233
11065SOL    HW234329   1.722   5.242   3.653 -0.7884  0.4315 -0.1711
11066SOL     OW34330   8.185   3.686   2.658 -0.0130  0.0488  0.1764
11066SOL    HW134331   8.138   3.610   2.694  1.7965 -0.9612  0.5338
11066SOL    HW234332   8.270   3.684   2.702  0.5767  1.5010 -0.8336
11067SOL     OW34333   0.718   2.222   4.681  0.1913 -0.0900  0.4518
11067SOL    HW134334   0.730   2.306   4.726 -0.3468 -0.8123  1.9931
11067SOL    HW234335   0.806   2.186   4.675  0.4505  0.6409 -0.3702
11068SOL     OW34336   4.641   1.556   5.042  0.3412 -0.0404  0.5660
11068SOL    HW134337   4.662   1.601   4.960 -1.7295 -1.2996 -0.7470
11068SOL    HW234338   4.570   1.607   5.080  1.4126  0.6451  1.7446
11069SOL     OW34339   3.168   6.380   6.994 -0.5658  0.1221 -0.7001
11069SOL    HW134340   3.260   6.354   7.001 -0.6348 -0.4720 -1.8338
11069SOL    HW234341   3.119   6.301   7.016 -0.7989  0.0783 -1.3782
11070SOL     OW34342   8.654   1.926   5.022 -0.5003  0.0916 -0.0042
11070SOL    HW134343   8.661   1.885   4.935 -0.1319 -0.1248  0.1220
11070SOL    HW234344   8.705   1.869   5.079  2.3198  2.0650 -0.2999
11071SOL     OW34345   5.181   7.842   6.141  0.2491 -0.3390 -0.0543
11071SOL    HW134346   5.169   7.869   6.232  0.1426  0.9513 -0.4316
11071SOL    HW234347   5.269   7.872   6.119 -0.0517  0.1233 -0.6366
11072SOL     OW34348   7.787   6.610   8.155 -0.3495 -0.0315 -0.1435
11072SOL    HW134349   7.754   6.683   8.103 -0.6648  0.5131  0.7912
11072SOL    HW234350   7.858   6.647   8.207  1.4162 -1.0537 -1.6913
11073SOL     OW34351   5.505   0.901   2.398 -0.0830  0.0430  0.6966
11073SOL    HW134352   5.514   0.838   2.469 -1.9349  0.5277  1.4225
11073SOL    HW234353   5.507   0.849   2.318  0.9520 -0.6310  1.1465
11074SOL     OW34354   1.360   6.073   5.022 -0.2519 -0.2116 -0.4216
11074SOL    HW134355   1.396   6.155   4.989  0.7105  0.4928  2.0910
11074SOL    HW234356   1.435   6.028   5.061 -1.3786 -0.5567  1.4757
11075SOL     OW34357   2.233   6.182   2.903 -0.1166 -0.4322 -0.3384
11075SOL    HW134358   2.178   6.177   2.981  0.0873  1.1283 -0.0534
11075SOL    HW234359   2.194   6.253   2.852 -0.4015 -1.5963 -1.7993
11076SOL     OW34360   3.255   1.849   2.095  0.3258 -0.4201  0.2176
11076SOL    HW134361   3.281   1.934   2.058 -0.1797  0.1017  1.0128
11076SOL    HW234362   3.164   1.839   2.068  0.2272 -0.4590  0.5607
11077SOL     OW34363   7.955   3.180   2.046 -0.2177 -0.3112  0.4727
11077SOL    HW134364   8.004   3.109   2.087 -0.8451 -0.2654  1.3358
11077SOL    HW234365   7.994   3.189   1.959  1.1143 -0.4533  1.0217
11078SOL     OW34366   4.435   8.246   2.524  0.3990  0.2805  0.0784
11078SOL    HW134367   4.364   8.210   2.578  0.7918 -3.5760 -1.6283
11078SOL    HW234368   4.390   8.302   2.461 -0.6639  0.6611  1.1314
11079SOL     OW34369   0.772   4.328   3.712  0.0595  0.2067  0.1657
11079SOL    HW134370   0.692   4.374   3.739 -0.4672 -1.1759  1.1197
11079SOL    HW234371   0.794   4.273   3.787  1.0444 -0.5807 -0.6689
11080SOL     OW34372   4.525   0.080   9.063  0.5666  0.2612 -0.7019
11080SOL    HW134373   4.440   0.037   9.056  0.2621  0.8970 -1.0080
11080SOL    HW234374   4.561   0.078   8.974  1.6263 -1.4790 -0.2803
11081SOL     OW34375   6.793   3.110   5.288  0.8941  0.1335  0.1185
11081SOL    HW134376   6.831   3.152   5.211  2.5290  0.7033  1.1800
11081SOL    HW234377   6.771   3.182   5.347 -1.7254 -0.2003 -0.3449
11082SOL     OW34378   8.487   7.389   4.584  0.4458  0.1215 -0.0013
11082SOL    HW134379   8.541   7.467   4.571 -2.3366  2.1074 -0.5719
11082SOL    HW234380   8.403   7.411   4.544 -1.2556 -2.2803  1.9475
11083SOL     OW34381   3.729   4.890   5.328  0.0513  0.3926 -0.2646
11083SOL    HW134382   3.785   4.933   5.263 -1.3781  0.4390 -1.5393
11083SOL    HW234383   3.656   4.951   5.340 -0.7893 -0.5931 -0.2565
11084SOL     OW34384   5.301   2.869   8.689 -0.1115 -0.1433 -0.5956
11084SOL    HW134385   5.250   2.919   8.624 -0.7942  0.7852  0.6087
11084SOL    HW234386   5.252   2.880   8.770  0.5261 -1.6060  0.0096
11085SOL     OW34387   8.706   0.080   2.606 -0.2161 -0.2776 -0.1911
11085SOL    HW134388   8.783   0.053   2.556  0.5257 -0.3675  0.9700
11085SOL    HW234389   8.632   0.056   2.550  0.5277 -1.8430 -0.5699
11086SOL     OW34390   5.366   3.162   6.428  0.1781 -0.6739  0.9576
11086SOL    HW134391   5.450   3.117   6.440  1.0055  0.4709 -0.2975
11086SOL    HW234392   5.388   3.255   6.426 -0.8902 -0.4034 -0.9326
11087SOL     OW34393   7.497   3.891   0.363  0.2431 -0.2929 -0.2929
11087SOL    HW134394   7.405   3.883   0.390  0.2717  0.1231 -0.0551
11087SOL    HW234395   7.512   3.986   0.360  1.1800 -0.3605  1.4252
11088SOL     OW34396   8.797   2.388   7.552  0.0769  0.1863  0.4994
11088SOL    HW134397   8.844   2.365   7.632  1.8862  1.0804 -0.2598
11088SOL    HW234398   8.763   2.304   7.519  0.1930 -0.3255  1.6439
11089SOL     OW34399   5.463   3.508   1.937 -0.1529  0.8412  0.4224
11089SOL    HW134400   5.501   3.587   1.975 -0.1793 -0.1221  2.6017
11089SOL    HW234401   5.529   3.440   1.951 -0.1021  0.4544 -1.4737
11090SOL     OW34402   5.850   3.051   0.392  0.2574  0.5850  0.2753
11090SOL    HW134403   5.765   3.018   0.362  0.9178 -0.7095 -0.2417
11090SOL    HW234404   5.830   3.095   0.475 -0.7762 -0.5621  0.6706
11091SOL     OW34405   2.641   2.001   0.589 -0.2751  0.1508  0.1500
11091SOL    HW134406   2.633   1.928   0.650 -0.2448 -2.5821 -2.8419
11091SOL    HW234407   2.733   2.028   0.596 -0.4035  0.3025  1.6355
11092SOL     OW34408   5.605   1.750   8.184  0.5708  0.2767 -0.2714
11092SOL    HW134409   5.650   1.688   8.242  0.5481  0.9520  0.4831
11092SOL    HW234410   5.513   1.745   8.209 -0.0469 -1.8752 -2.5108
11093SOL     OW34411   0.291   3.117   5.990  0.2556 -0.4604  0.3826
11093SOL    HW134412   0.309   3.128   5.897  0.7682 -0.5534  0.4677
11093SOL    HW234413   0.358   3.055   6.020  0.5422  0.1223  0.9624
11094SOL     OW34414   6.894   7.104   6.564  0.0661  0.3712 -0.7541
11094SOL    HW134415   6.828   7.076   6.501 -0.5455  2.0508 -0.9050
11094SOL    HW234416   6.954   7.160   6.514  1.2673 -0.6081 -0.4722
11095SOL     OW34417   0.162   6.321   5.891 -0.8094 -0.1150 -0.2048
11095SOL    HW134418   0.071   6.316   5.919 -1.3342 -0.3682 -1.8579
11095SOL    HW234419   0.160   6.378   5.814  0.1842 -1.3840 -1.2073
11096SOL     OW34420   5.768   1.208   4.487 -0.1806  0.6380 -0.6334
11096SOL    HW134421   5.748   1.144   4.555  2.3492  1.0260  0.6033
11096SOL    HW234422   5.695   1.270   4.491 -0.0568  0.7426  1.9244
11097SOL     OW34423   8.252   1.115   6.824 -0.0164  0.1470 -0.3249
11097SOL    HW134424   8.191   1.189   6.824 -0.2457 -0.0279  0.8962
11097SOL    HW234425   8.291   1.116   6.912  1.2852 -0.1247 -0.8722
11098SOL     OW34426   2.006   8.646   7.771  0.0559  0.1834 -0.4054
11098SOL    HW134427   1.946   8.572   7.765  0.4654 -0.0420 -2.2283
11098SOL    HW234428   1.982   8.703   7.699  2.1813 -0.0591 -1.3721
11099SOL     OW34429   2.741   7.912   7.249  0.1536 -1.1417 -0.3453
11099SOL    HW134430   2.691   7.831   7.253 -0.3210 -0.8212  2.7588
11099SOL    HW234431   2.682   7.975   7.206 -2.2852 -0.7956  3.1375
11100SOL     OW34432   8.650   0.824   2.868 -0.2517 -0.1447  0.0637
11100SOL    HW134433   8.665   0.911   2.831 -0.6556 -0.8829 -1.9574
11100SOL    HW234434   8.714   0.816   2.938  0.8094  1.2224 -0.7024
11101SOL     OW34435   7.355   5.820   0.662 -0.3276  0.5234  0.1414
11101SOL    HW134436   7.347   5.725   0.676 -0.1457  0.8075  2.8060
11101SOL    HW234437   7.266   5.853   0.673 -0.4876  0.6383 -1.3545
11102SOL     OW34438   4.250   4.126   5.957  0.0152 -0.5685 -0.1526
11102SOL    HW134439   4.234   4.106   5.864 -2.5570  0.0109  0.0780
11102SOL    HW234440   4.256   4.040   5.999  1.9697 -0.8496 -0.9152
11103SOL     OW34441   2.977   4.193   4.583  0.6881 -0.5282 -0.0924
11103SOL    HW134442   2.940   4.106   4.567  0.9299 -0.9708  1.5597
11103SOL    HW234443   2.922   4.229   4.653  2.1425 -0.4303  1.0594
11104SOL     OW34444   0.236   6.076   2.666  0.3437 -0.4423  0.1743
11104SOL    HW134445   0.311   6.056   2.722  0.3173 -0.0213  0.3647
11104SOL    HW234446   0.261   6.044   2.580  0.5319 -0.7749  0.3487
11105SOL     OW34447   2.627   4.071   5.249  0.6817  0.4430  0.6798
11105SOL    HW134448   2.713   4.074   5.290  1.0646  0.3518 -0.0840
11105SOL    HW234449   2.646   4.072   5.155 -0.0905 -1.0290  0.4867
11106SOL     OW34450   7.579   8.720   0.418  0.1300  0.4302 -0.3238
11106SOL    HW134451   7.653   8.718   0.478  0.4739 -2.4013 -0.6774
11106SOL    HW234452   7.609   8.771   0.343  0.4661  2.1393  0.9109
11107SOL     OW34453   2.158   4.416   0.827  0.2621 -0.3138 -0.1609
11107SOL    HW134454   2.216   4.424   0.752 -0.2590 -2.0589 -0.8044
11107SOL    HW234455   2.070   4.417   0.790 -0.0304 -0.3602  0.5171
11108SOL     OW34456   4.380   7.295   6.325 -0.4823  0.1281  0.1528
11108SOL    HW134457   4.412   7.219   6.375  1.4163 -0.2166 -1.4796
11108SOL    HW234458   4.342   7.257   6.246 -2.2496  0.7537  0.6522
11109SOL     OW34459   1.534   8.187   5.649 -0.6286 -0.0496 -0.3568
11109SOL    HW134460   1.626   8.213   5.655 -1.0748  2.2140 -1.8301
11109SOL    HW234461   1.497   8.209   5.735 -0.1697  0.8843 -0.3811
11110SOL     OW34462   1.927   2.604   2.409 -0.4077  0.4302  0.6021
11110SOL    HW134463   2.004   2.661   2.415 -0.3269  0.4583 -0.5464
11110SOL    HW234464   1.956   2.522   2.449 -0.7677  1.3833  3.0003
11111SOL     OW34465   6.587   0.020   3.487 -0.3569 -0.0621  0.5146
11111SOL    HW134466   6.536  -0.040   3.542 -0.9019  1.1325  1.3488
11111SOL    HW234467   6.677   0.007   3.514 -0.5693  0.1437  1.3406
11112SOL     OW34468   0.224   7.629   6.063 -0.0986 -0.1136  0.2058
11112SOL    HW134469   0.268   7.691   6.121 -2.9017  1.4774  0.8487
11112SOL    HW234470   0.235   7.665   5.975  2.5620 -1.5349 -0.1505
11113SOL     OW34471   1.978   7.380   2.471  0.2888  0.2999 -0.3934
11113SOL    HW134472   1.954   7.469   2.443 -2.1086 -0.6750 -1.6659
11113SOL    HW234473   2.040   7.350   2.405 -0.1201  0.4467 -0.8422
11114SOL     OW34474   7.362   7.175   8.864  0.3198 -0.1450 -0.3509
11114SOL    HW134475   7.440   7.150   8.914 -0.7431  0.1796  1.5716
11114SOL    HW234476   7.328   7.251   8.910  0.0864  1.1269 -2.4978
11115SOL     OW34477   2.822   1.895   2.808  0.0683  0.2721 -0.5027
11115SOL    HW134478   2.763   1.968   2.825  0.0832  0.2540 -0.3745
11115SOL    HW234479   2.794   1.861   2.723  0.1340  0.4989 -0.6161
11116SOL     OW34480   8.005   0.700   4.826  0.2225 -0.0343 -0.2801
11116SOL    HW134481   7.951   0.625   4.852  1.8062 -0.7004  1.2706
11116SOL    HW234482   8.077   0.701   4.888  1.9916  0.8644 -2.2230
11117SOL     OW34483   5.690   3.358   6.016 -0.4144  0.3579  0.1050
11117SOL    HW134484   5.775   3.394   6.041 -0.6136 -0.2528  1.8508
11117SOL    HW234485   5.636   3.366   6.095 -0.7631 -2.7398  0.3380
11118SOL     OW34486   7.531   5.749   1.795  0.3608 -0.1533 -0.3280
11118SOL    HW134487   7.505   5.760   1.886 -0.6517 -1.0704 -0.4938
11118SOL    HW234488   7.554   5.838   1.766  0.2751  0.2121  0.6814
11119SOL     OW34489   2.596   8.641   7.659  0.1406  0.1921  0.7969
11119SOL    HW134490   2.673   8.603   7.701 -0.0017 -2.0540 -0.7823
11119SOL    HW234491   2.523   8.615   7.715  0.4000  1.4514  1.7517
11120SOL     OW34492   7.402   1.178   5.034  0.8109  0.1803  0.1800
11120SOL    HW134493   7.493   1.167   5.062  0.3991  0.5385  1.7908
11120SOL    HW234494   7.366   1.089   5.035  1.1646  0.0285 -0.5430
11121SOL     OW34495   2.633   3.926   6.190  0.5744 -0.4395  0.7385
11121SOL    HW134496   2.555   3.971   6.222  1.7308  0.9849  1.7035
11121SOL    HW234497   2.621   3.835   6.216 -0.8160 -0.2889  0.7189
11122SOL     OW34498   6.200   7.730   8.621 -0.2476 -0.4643 -0.2705
11122SOL    HW134499   6.110   7.746   8.649 -0.2001 -0.7200  0.0373
11122SOL    HW234500   6.240   7.817   8.615 -0.2349 -0.4015  0.5520
11123SOL     OW34501   3.341   8.425   4.597  0.0869  0.0457  0.5839
11123SOL    HW134502   3.402   8.351   4.594  0.0235 -0.0379  1.2219
11123SOL    HW234503   3.352   8.469   4.512  3.0838  1.6765  1.6806
11124SOL     OW34504   0.179   6.835   7.865  0.0326  0.7196  0.1111
11124SOL    HW134505   0.158   6.757   7.813  0.5174 -0.1723  1.1898
11124SOL    HW234506   0.259   6.870   7.825 -0.4292  0.9374 -0.6495
11125SOL     OW34507   9.079   4.631   7.809  0.4966  0.0034  0.1720
11125SOL    HW134508   9.098   4.546   7.851  0.9727  0.6429  1.3106
11125SOL    HW234509   9.153   4.645   7.750  0.2285 -0.5396 -0.3030
11126SOL     OW34510   8.632   3.422   9.066 -0.4227  0.1945  0.1467
11126SOL    HW134511   8.597   3.442   8.979  1.2459  0.9238 -0.3981
11126SOL    HW234512   8.555   3.402   9.119 -1.5032  0.0500 -1.4107
11127SOL     OW34513   2.452   8.621   7.881 -0.4135 -0.5646 -0.2619
11127SOL    HW134514   2.471   8.549   7.942 -0.2466 -1.7924 -1.7128
11127SOL    HW234515   2.512   8.691   7.908  1.5573 -2.0086 -0.5914
11128SOL     OW34516   1.430   8.966   4.631  0.2480  0.8497  0.7905
11128SOL    HW134517   1.492   9.035   4.652  2.1813 -0.2244 -1.0398
11128SOL    HW234518   1.484   8.888   4.616 -1.4291  0.0099 -1.5284
11129SOL     OW34519   7.975   8.921   7.325  0.1405  0.2401 -0.3281
11129SOL    HW134520   8.051   8.955   7.373  0.2880  0.2596 -0.5737
11129SOL    HW234521   8.004   8.917   7.234  0.3425 -1.1592 -0.2238
11130SOL     OW34522   7.201   5.975   5.790  0.2333 -0.4178 -0.0584
11130SOL    HW134523   7.149   6.048   5.823  0.1866 -0.4410 -0.0814
11130SOL    HW234524   7.180   5.902   5.849  0.7558 -0.2468  0.3479
11131SOL     OW34525   0.210   8.824   0.612  0.2780 -0.0777 -0.2389
11131SOL    HW134526   0.295   8.812   0.569  0.0536 -2.0207 -0.2437
11131SOL    HW234527   0.229   8.870   0.693  0.8878  2.4357 -1.6796
11132SOL     OW34528   8.749   6.636   7.020  0.0818  0.3502  0.2077
11132SOL    HW134529   8.655   6.622   7.028  0.0578  0.8757  0.9910
11132SOL    HW234530   8.759   6.691   6.942 -0.3079  0.7011  0.3988
11133SOL     OW34531   6.233   1.561   4.690  0.5072  0.0575  0.7995
11133SOL    HW134532   6.160   1.620   4.670  0.8076  0.7450  1.6696
11133SOL    HW234533   6.195   1.496   4.750  0.9793  1.4728  2.7542
11134SOL     OW34534   7.986   5.828   8.520  0.3229  0.0283 -0.0487
11134SOL    HW134535   8.065   5.878   8.538  0.6767 -0.0233 -1.3390
11134SOL    HW234536   7.924   5.855   8.587  0.9055  1.2814  0.0025
11135SOL     OW34537   5.485   8.364   4.813  0.0679  0.1480 -0.5913
11135SOL    HW134538   5.492   8.329   4.724 -1.2393  0.5647 -0.8789
11135SOL    HW234539   5.538   8.444   4.812 -0.3370  0.4152 -1.1487
11136SOL     OW34540   2.375   7.500   1.851 -0.3913 -0.2244  0.2274
11136SOL    HW134541   2.412   7.524   1.766 -0.5318  0.8141  0.4476
11136SOL    HW234542   2.280   7.511   1.840 -0.3737  0.4016  0.6568
11137SOL     OW34543   6.700   5.667   8.601 -0.1464  0.6055  0.1771
11137SOL    HW134544   6.665   5.589   8.643  0.8959 -2.0235 -3.3700
11137SOL    HW234545   6.624   5.721   8.581 -1.4246 -1.4940 -0.8761
11138SOL     OW34546   5.631   7.959   4.632 -0.0592 -0.4236 -0.4414
11138SOL    HW134547   5.616   8.011   4.553  0.7182 -1.9500 -1.6378
11138SOL    HW234548   5.604   7.871   4.608  0.3200 -0.9496  0.9757
11139SOL     OW34549   1.037   8.503   7.701 -0.2576  0.1052  0.4082
11139SOL    HW134550   0.993   8.447   7.637 -0.7183 -0.2079  0.9837
11139SOL    HW234551   1.125   8.516   7.666 -1.0357  1.4161 -1.1932
11140SOL     OW34552   1.733   5.139   1.497  0.4400  0.2702 -0.1719
11140SOL    HW134553   1.781   5.118   1.577  1.3916 -0.4229 -0.8948
11140SOL    HW234554   1.771   5.221   1.467  1.4306 -0.4256 -0.9005
11141SOL     OW34555   8.986   4.240   2.680  0.1020  0.4290  0.3484
11141SOL    HW134556   8.974   4.333   2.660  0.2275  0.4600  0.4165
11141SOL    HW234557   9.044   4.208   2.611 -1.2402  0.0232 -0.6341
11142SOL     OW34558   3.102   3.986   5.204  0.1150 -0.4217 -0.0020
11142SOL    HW134559   3.077   3.916   5.143 -1.8720  1.2096 -1.1629
11142SOL    HW234560   3.067   4.066   5.165  0.4940  0.9687  2.3279
11143SOL     OW34561   1.380   1.071   2.383  0.1187 -0.1582 -0.6409
11143SOL    HW134562   1.444   1.063   2.454  0.1912  1.7604 -0.4365
11143SOL    HW234563   1.297   1.042   2.422  0.0928  1.1895  0.3522
11144SOL     OW34564   1.705   4.246   1.721  0.0265 -0.6078  0.3922
11144SOL    HW134565   1.629   4.252   1.779 -2.6660  0.2494 -2.8529
11144SOL    HW234566   1.717   4.336   1.689  2.6431 -0.6920  0.9802
11145SOL     OW34567   6.920   3.691   7.002 -0.3530  0.0108 -0.0487
11145SOL    HW134568   6.946   3.624   7.064 -1.4778 -0.3005  0.0996
11145SOL    HW234569   7.003   3.730   6.973  0.2435 -0.6502  0.7260
11146SOL     OW34570   3.366   6.150   4.044 -0.1535  0.5295 -0.3868
11146SOL    HW134571   3.455   6.143   4.076  0.0007 -1.2585 -1.0704
11146SOL    HW234572   3.375   6.155   3.949 -0.7736  0.0776 -0.4790
11147SOL     OW34573   6.360   3.095   1.182 -0.2720  0.5501 -0.2947
11147SOL    HW134574   6.277   3.049   1.171  0.0618 -1.3049  3.3426
11147SOL    HW234575   6.334   3.183   1.211 -0.8977  0.9309 -1.8940
11148SOL     OW34576   1.118   4.598   1.086 -0.4238  0.2870  0.0178
11148SOL    HW134577   1.057   4.585   1.013  0.3286 -0.8820 -0.4495
11148SOL    HW234578   1.094   4.682   1.123 -3.6141 -0.9430  1.1104
11149SOL     OW34579   4.291   5.942   8.289 -0.2369  0.5710 -0.0830
11149SOL    HW134580   4.319   6.033   8.289 -0.1270  0.5750 -1.7498
11149SOL    HW234581   4.308   5.912   8.378 -2.0146  2.6658  1.0477
11150SOL     OW34582   8.319   1.100   2.258 -0.6251  0.0422 -0.2028
11150SOL    HW134583   8.398   1.095   2.204 -1.1590 -0.8840 -0.9409
11150SOL    HW234584   8.280   1.012   2.252 -3.1727  1.1661 -2.1552
11151SOL     OW34585   5.978   0.145   3.533  0.3700  1.0699 -0.0513
11151SOL    HW134586   5.923   0.162   3.456 -0.8043  1.0538  0.7610
11151SOL    HW234587   6.055   0.101   3.498 -0.4957  0.3671 -1.1278
11152SOL     OW34588   5.217   0.428   6.783 -0.3296 -0.2353  0.1705
11152SOL    HW134589   5.282   0.490   6.816 -0.6864  0.6947 -0.8023
11152SOL    HW234590   5.206   0.364   6.853  1.1702 -0.0527  0.5992
11153SOL     OW34591   2.290   2.665   0.747  0.0213  0.0891 -1.1641
11153SOL    HW134592   2.261   2.748   0.707  0.6029  0.1287 -1.5185
11153SOL    HW234593   2.349   2.627   0.682  0.6112 -0.0769 -0.5437
11154SOL     OW34594   8.181   4.711   5.139  0.6000  0.0475  0.2727
11154SOL    HW134595   8.116   4.656   5.095  1.4770 -1.0599  0.2962
11154SOL    HW234596   8.133   4.754   5.209  0.0311 -1.2971  0.7327
11155SOL     OW34597   5.084   3.734   8.405 -0.0504  0.9477  0.1924
11155SOL    HW134598   5.162   3.721   8.460  0.9908  1.9160 -0.9913
11155SOL    HW234599   5.054   3.645   8.385  0.1428  0.5681  1.4732
11156SOL     OW34600   5.242   0.741   0.444  0.3226 -0.1182  0.0166
11156SOL    HW134601   5.242   0.670   0.509  0.5689 -1.8407 -1.7534
11156SOL    HW234602   5.187   0.809   0.483  2.5246  0.0989  3.1443
11157SOL     OW34603   4.209   4.202   4.616 -0.0741  0.1383  0.0142
11157SOL    HW134604   4.191   4.214   4.523 -3.9062 -0.2640  0.5490
11157SOL    HW234605   4.137   4.246   4.661  0.0112 -2.1678  2.6934
11158SOL     OW34606   5.432   7.272   3.091 -0.5298  0.1338 -0.2012
11158SOL    HW134607   5.468   7.254   3.178 -1.1494  0.1497  0.0617
11158SOL    HW234608   5.405   7.364   3.095  1.9361  1.0161 -1.2981
11159SOL     OW34609   0.251   0.432   0.559  0.1422  0.3040  0.3218
11159SOL    HW134610   0.253   0.411   0.466 -1.0045  2.7065 -0.3427
11159SOL    HW234611   0.158   0.450   0.577  0.2318 -0.7796  2.1233
11160SOL     OW34612   3.660   6.583   1.369 -0.1374 -1.1026 -0.6394
11160SOL    HW134613   3.590   6.526   1.337 -0.8822  0.0695 -1.1982
11160SOL    HW234614   3.677   6.643   1.296  0.2052 -0.2515  0.1170
11161SOL     OW34615   7.970   6.882   3.872  0.2516 -0.0484 -0.3635
11161SOL    HW134616   8.008   6.806   3.827  2.1339  1.5712 -1.6452
11161SOL    HW234617   7.876   6.876   3.852  0.4223 -1.7189 -0.8635
11162SOL     OW34618   7.967   4.708   7.501 -0.4407  0.1072  0.0115
11162SOL    HW134619   7.946   4.800   7.485 -1.7795 -0.0695  0.6601
11162SOL    HW234620   7.908   4.659   7.444 -0.8901 -0.3780  0.8757
11163SOL     OW34621   8.020   2.282   7.926  0.0039  0.5645 -0.5051
11163SOL    HW134622   8.019   2.378   7.931  1.5498  0.5818  0.1188
11163SOL    HW234623   8.048   2.262   7.837  1.6893  0.7587 -0.0571
11164SOL     OW34624   6.430   6.248   7.873  0.7729 -0.0968  1.0023
11164SOL    HW134625   6.414   6.255   7.779  0.1404  2.2878  1.2148
11164SOL    HW234626   6.469   6.161   7.885  0.3888 -0.6555 -1.3704
11165SOL     OW34627   2.888   5.749   4.209  0.1290  0.1487 -0.0270
11165SOL    HW134628   2.910   5.738   4.116 -0.4363 -0.0148 -0.1455
11165SOL    HW234629   2.809   5.697   4.221 -0.3203  0.8922  0.3367
11166SOL     OW34630   6.133   8.399   4.527  0.4623 -0.4491  0.1536
11166SOL    HW134631   6.119   8.490   4.554 -2.2696 -0.6095 -0.4229
11166SOL    HW234632   6.061   8.380   4.467  1.8948 -2.5146 -1.0558
11167SOL     OW34633   2.540   8.935   7.567 -0.0295  0.4792  0.3900
11167SOL    HW134634   2.581   9.010   7.524  1.4067  1.8176  3.7168
11167SOL    HW234635   2.613   8.891   7.612 -0.9910 -2.3874 -0.6486
11168SOL     OW34636   0.842   0.981   7.226  0.0864 -0.5386 -0.3142
11168SOL    HW134637   0.837   0.990   7.321 -1.3908 -1.5752 -0.2674
11168SOL    HW234638   0.878   0.894   7.212  0.4131 -0.3443 -0.7201
11169SOL     OW34639   3.528   2.995   2.364  0.2855  0.5129 -0.1377
11169SOL    HW134640   3.580   2.933   2.314 -0.1550 -1.4902  1.7416
11169SOL    HW234641   3.588   3.068   2.381  0.7723  0.7455 -2.4911
11170SOL     OW34642   7.055   7.068   7.637  0.4637 -0.0266  0.0813
11170SOL    HW134643   7.111   7.008   7.688  0.9784 -0.5469 -1.0750
11170SOL    HW234644   7.107   7.148   7.630 -0.1057  0.4921  1.3791
11171SOL     OW34645   2.701   1.597   2.325 -0.2943 -0.7512  0.4679
11171SOL    HW134646   2.645   1.670   2.350 -0.3492  0.0295 -1.7009
11171SOL    HW234647   2.662   1.563   2.244  1.2831 -1.4042 -0.0674
11172SOL     OW34648   6.937   0.230   5.413  0.5409 -0.1294 -0.2908
11172SOL    HW134649   6.894   0.308   5.448  0.5527  0.0647 -0.7030
11172SOL    HW234650   6.977   0.189   5.489 -0.1438 -0.1666  0.0536
11173SOL     OW34651   5.513   8.266   0.290  0.0350  0.5095  0.1460
11173SOL    HW134652   5.428   8.243   0.327 -0.1432  0.4887 -0.2729
11173SOL    HW234653   5.493   8.325   0.218  0.2805 -0.4947 -0.7724
11174SOL     OW34654   0.606   7.687   6.922  0.0149 -0.6455 -0.1727
11174SOL    HW134655   0.600   7.739   6.842 -1.2445 -1.2062 -0.4731
11174SOL    HW234656   0.585   7.598   6.895 -0.2529 -0.8758  0.7450
11175SOL     OW34657   0.766   1.130   8.986  0.4638  0.3970  0.2887
11175SOL    HW134658   0.737   1.049   9.028  1.0850 -0.7504 -1.3994
11175SOL    HW234659   0.716   1.134   8.905  3.3635 -0.5566 -1.6930
11176SOL     OW34660   7.464   7.725   2.109  0.1411 -0.3870 -0.0236
11176SOL    HW134661   7.501   7.814   2.107 -1.6295  0.5495  2.7755
11176SOL    HW234662   7.393   7.730   2.173  0.1776 -3.9473  0.5053
11177SOL     OW34663   5.108   6.496   8.363  0.2197  0.0245 -0.1052
11177SOL    HW134664   5.043   6.554   8.323 -0.9591 -1.1152  0.0699
11177SOL    HW234665   5.061   6.454   8.435  0.4466 -2.3966 -1.2538
11178SOL     OW34666   0.443   5.214   5.859 -0.4527 -0.3991 -0.1672
11178SOL    HW134667   0.368   5.264   5.825  0.5142  1.5482  0.4067
11178SOL    HW234668   0.490   5.276   5.914 -0.2043 -2.5196  2.1779
11179SOL     OW34669   7.411   3.722   5.021 -0.2400  0.3875 -0.4020
11179SOL    HW134670   7.418   3.655   4.954  0.9206 -0.1601  0.2395
11179SOL    HW234671   7.334   3.698   5.072  0.2633 -0.5610 -0.0759
11180SOL     OW34672   1.559   9.105   8.007 -0.0822  0.5761  0.0142
11180SOL    HW134673   1.538   9.155   8.086 -3.0457 -0.9210  0.3240
11180SOL    HW234674   1.545   9.166   7.935 -1.7492  0.7880  0.4809
11181SOL     OW34675   7.801   3.083   8.431  0.5803  0.4722  0.0326
11181SOL    HW134676   7.840   3.026   8.365  0.8181  0.0568  0.5269
11181SOL    HW234677   7.725   3.035   8.463 -0.5137  1.3822 -1.1030
11182SOL     OW34678   3.989   4.931   1.648  0.0217 -0.4117  0.0773
11182SOL    HW134679   3.923   4.966   1.588 -0.8606 -1.2772  0.5245
11182SOL    HW234680   4.073   4.957   1.609 -0.5667  1.8380  0.1708
11183SOL     OW34681   3.644   5.395   5.519 -0.2896 -0.1145 -0.5795
11183SOL    HW134682   3.703   5.409   5.593  1.1511 -0.6444 -1.5758
11183SOL    HW234683   3.580   5.332   5.551 -0.1553  0.2543  0.4460
11184SOL     OW34684   3.780   3.576   6.347  0.2617  0.0819 -0.3930
11184SOL    HW134685   3.747   3.610   6.264 -0.1225 -0.2505 -0.3778
11184SOL    HW234686   3.808   3.487   6.328  0.9984  0.2996 -0.3634
11185SOL     OW34687   3.361   5.308   9.091  0.5093  0.1489 -0.0409
11185SOL    HW134688   3.275   5.346   9.074  0.3350  0.0980  0.7149
11185SOL    HW234689   3.359   5.223   9.046 -1.4689 -1.9000  3.4694
11186SOL     OW34690   0.425   1.345   2.287  0.1378 -0.4044  0.1459
11186SOL    HW134691   0.469   1.348   2.202 -0.4853 -0.4794 -0.1851
11186SOL    HW234692   0.479   1.399   2.344 -0.2261  0.8652 -0.6757
11187SOL     OW34693   6.180   3.995   4.713 -0.1246 -0.3561 -1.0209
11187SOL    HW134694   6.239   3.936   4.759  0.6868 -0.9100 -2.7082
11187SOL    HW234695   6.185   3.969   4.622 -1.5833  0.7942 -1.4789
11188SOL     OW34696   6.733   4.060   7.621 -0.2559  0.3323  0.1120
11188SOL    HW134697   6.670   4.048   7.693 -1.0435  0.9474 -0.4664
11188SOL    HW234698   6.729   4.153   7.600  0.3905  0.2611 -0.3593
11189SOL     OW34699   4.059   5.176   5.243 -0.6889 -0.6145  0.8458
11189SOL    HW134700   3.987   5.117   5.219 -2.2335  1.6385 -0.4517
11189SOL    HW234701   4.126   5.160   5.177 -1.6866  0.0117 -0.3641
11190SOL     OW34702   2.213   6.029   1.423  0.1728 -0.2705 -0.5468
11190SOL    HW134703   2.234   6.123   1.427 -2.8766  0.4962  0.6242
11190SOL    HW234704   2.155   6.021   1.348  0.9509 -1.3987 -1.0519
11191SOL     OW34705   4.714   6.076   1.855  0.7418 -0.5819 -0.0678
11191SOL    HW134706   4.740   6.118   1.773 -1.3233  3.8563  1.2315
11191SOL    HW234707   4.642   6.019   1.831  1.0680 -0.4276 -1.5167
11192SOL     OW34708   1.493   6.835   8.089  0.0460  0.0934  0.0776
11192SOL    HW134709   1.431   6.834   8.161  1.1716  0.4216  1.0918
11192SOL    HW234710   1.547   6.757   8.103 -0.3841 -0.4099 -1.0154
11193SOL     OW34711   1.021   1.623   0.931  0.0196 -0.8060  0.1793
11193SOL    HW134712   1.033   1.630   1.025  1.3177  1.1099 -0.0689
11193SOL    HW234713   0.970   1.700   0.907  2.2219  0.4099 -0.9784
11194SOL     OW34714   4.235   5.552   0.311  0.1265  0.0856 -0.6134
11194SOL    HW134715   4.233   5.601   0.393  0.9234  1.1158 -1.1873
11194SOL    HW234716   4.291   5.477   0.330  0.4942  0.4399 -0.2752
11195SOL     OW34717   3.662   5.834   6.262 -0.1202 -0.4018 -0.1185
11195SOL    HW134718   3.622   5.808   6.179  0.0272 -0.4585 -0.1717
11195SOL    HW234719   3.753   5.854   6.240  0.0187 -0.7896  0.0993
11196SOL     OW34720   1.809   6.292   4.724 -0.0095  0.1778 -0.6374
11196SOL    HW134721   1.817   6.293   4.629  0.3601 -1.2762 -0.6479
11196SOL    HW234722   1.736   6.233   4.741  0.0261  0.3112 -0.0119
11197SOL     OW34723   3.194   9.006   5.984 -0.0440  0.2980 -0.2922
11197SOL    HW134724   3.284   9.004   6.019  0.7956  1.8786 -2.1724
11197SOL    HW234725   3.153   9.079   6.030 -0.2221 -0.1187  0.2179
11198SOL     OW34726   3.416   4.951   1.316 -0.0636  0.1568  0.3866
11198SOL    HW134727   3.369   5.032   1.332 -1.6339 -1.0306  2.2510
11198SOL    HW234728   3.396   4.929   1.224  1.0328  2.1864 -0.4085
11199SOL     OW34729   6.890   3.461   0.088 -0.1197 -0.8238  0.0450
11199SOL    HW134730   6.941   3.482   0.167 -1.4892  0.0077  0.7434
11199SOL    HW234731   6.804   3.435   0.121 -0.1907 -2.1988 -1.1144
11200SOL     OW34732   1.393   5.713   2.746 -0.2430  0.2749  0.0888
11200SOL    HW134733   1.413   5.693   2.654 -2.1546  1.4676 -0.6420
11200SOL    HW234734   1.427   5.802   2.759 -0.2879  0.2406  0.4343
11201SOL     OW34735   5.601   6.180   3.862 -0.2735 -0.5093 -0.0506
11201SOL    HW134736   5.681   6.164   3.912 -0.5565 -2.4817 -0.1541
11201SOL    HW234737   5.531   6.174   3.927 -0.5397 -1.7448 -0.4335
11202SOL     OW34738   2.853   3.779   0.181  0.0216  0.5411  0.6124
11202SOL    HW134739   2.844   3.839   0.254 -2.0715  3.1087 -1.5639
11202SOL    HW234740   2.937   3.801   0.142 -0.3515  1.5459  0.3357
11203SOL     OW34741   9.002   5.589   2.026  0.1132 -0.2829 -0.0828
11203SOL    HW134742   9.037   5.632   2.104  1.5842  0.6823 -1.2190
11203SOL    HW234743   8.914   5.626   2.016  0.2212  0.1946  0.6488
11204SOL     OW34744   1.504   6.321   8.121  0.5956 -0.0556  0.8601
11204SOL    HW134745   1.582   6.333   8.066 -1.2914  2.0273 -1.5856
11204SOL    HW234746   1.434   6.299   8.059 -1.2715  0.4334  2.6853
11205SOL     OW34747   8.357   2.478   5.977 -0.0318  0.6131  0.1539
11205SOL    HW134748   8.446   2.513   5.979  0.0297  0.4901 -0.3374
11205SOL    HW234749   8.301   2.553   5.959  0.1575  0.3710 -1.5751
11206SOL     OW34750   3.121   6.372   0.361 -0.1487  0.6237 -0.4893
11206SOL    HW134751   3.158   6.288   0.388 -0.6181  0.8704  1.0511
11206SOL    HW234752   3.032   6.351   0.333 -0.6851  0.7300  1.0433
11207SOL     OW34753   5.852   4.222   5.844  0.2261 -0.2140 -0.4222
11207SOL    HW134754   5.922   4.271   5.801 -0.9886  1.9955 -0.0591
11207SOL    HW234755   5.895   4.176   5.916  1.5025 -0.0305 -1.0369
11208SOL     OW34756   0.219   6.954   3.070  0.4816  0.3497 -0.6402
11208SOL    HW134757   0.127   6.929   3.064  0.5119  0.6066 -4.0951
11208SOL    HW234758   0.266   6.870   3.074  0.1512  0.2091  0.5224
11209SOL     OW34759   6.971   3.482   7.492  0.5015 -0.1163  0.0147
11209SOL    HW134760   6.941   3.392   7.505 -2.0919  0.6949  0.1291
11209SOL    HW234761   6.910   3.535   7.542 -1.6882  2.1059 -4.4727
11210SOL     OW34762   3.658   4.020   3.213  0.2933 -0.0569 -0.0396
11210SOL    HW134763   3.611   3.939   3.234  0.0715  0.4458  1.5000
11210SOL    HW234764   3.707   3.999   3.133 -0.2265 -1.5144 -0.0074
11211SOL     OW34765   0.793   6.295   1.821 -0.0886  0.1614 -0.4920
11211SOL    HW134766   0.728   6.365   1.824  0.3701  0.6204 -1.0993
11211SOL    HW234767   0.868   6.333   1.775  1.4052  0.2888  1.8927
11212SOL     OW34768   4.975   2.824   3.378 -0.0443 -0.6420  0.4088
11212SOL    HW134769   5.035   2.831   3.304  1.0270  0.3752  1.3558
11212SOL    HW234770   4.906   2.887   3.359  0.5273  0.0312  0.5424
11213SOL     OW34771   4.799   5.803   1.143  0.2559 -0.0702 -0.1667
11213SOL    HW134772   4.841   5.884   1.174  0.0714 -0.2514  0.5533
11213SOL    HW234773   4.838   5.789   1.056 -0.6148  1.4628 -0.8485
11214SOL     OW34774   2.534   1.633   1.336  0.3005  0.0758  0.1440
11214SOL    HW134775   2.510   1.582   1.413  0.0238  2.0639  1.4521
11214SOL    HW234776   2.617   1.676   1.360 -0.7953  2.3254  0.2308
11215SOL     OW34777   5.764   8.168   6.789 -0.3043  0.0639 -0.3425
11215SOL    HW134778   5.766   8.197   6.697  0.3239  3.0644  0.5289
11215SOL    HW234779   5.671   8.154   6.807 -0.4216 -0.7872 -1.4461
11216SOL     OW34780   2.046   5.934   0.942  0.1468  0.1032  0.1404
11216SOL    HW134781   1.995   6.006   0.906 -0.2905 -0.3266 -0.1080
11216SOL    HW234782   2.120   5.976   0.986 -0.0598  0.6949 -0.0774
11217SOL     OW34783   2.441   5.298   8.376  0.0276 -0.4333  0.5805
11217SOL    HW134784   2.391   5.380   8.374 -1.0428 -1.0771 -0.0382
11217SOL    HW234785   2.388   5.236   8.325  2.8285 -0.4223 -2.7121
11218SOL     OW34786   2.903   4.324   0.533  0.0156  0.1403 -0.0801
11218SOL    HW134787   2.817   4.284   0.522 -0.3831  0.9717 -0.0739
11218SOL    HW234788   2.885   4.412   0.567  0.8520  0.3965 -0.2667
11219SOL     OW34789   7.916   8.045   4.323  0.0643  0.4203 -0.3575
11219SOL    HW134790   7.945   7.971   4.271  1.1002  2.2434 -2.5790
11219SOL    HW234791   7.994   8.099   4.333 -0.7550  1.4494  0.7708
11220SOL     OW34792   7.620   6.147   1.920  0.4825  0.2946 -0.1587
11220SOL    HW134793   7.611   6.139   1.826  0.2729 -1.1704 -0.0311
11220SOL    HW234794   7.540   6.108   1.956 -1.1590  3.8804  0.6168
11221SOL     OW34795   2.094   7.109   5.749  0.2675 -0.6791  0.1999
11221SOL    HW134796   2.144   7.191   5.755 -1.0190  0.0427  1.7824
11221SOL    HW234797   2.007   7.136   5.719  0.1810 -1.6323 -0.4372
11222SOL     OW34798   7.156   1.007   4.002  0.4758 -0.4042  0.7479
11222SOL    HW134799   7.084   1.010   3.939  0.9983 -0.6872  0.1250
11222SOL    HW234800   7.123   1.053   4.079 -0.0019  0.3974  0.0780
11223SOL     OW34801   2.575   3.965   0.594  0.7303  0.4650 -0.0773
11223SOL    HW134802   2.517   3.998   0.662  1.7251  1.3094  0.3934
11223SOL    HW234803   2.518   3.917   0.534 -0.1787 -0.2766  1.3296
11224SOL     OW34804   4.373   0.326   7.218 -0.2764 -0.2809 -0.3324
11224SOL    HW134805   4.356   0.405   7.166  0.0931 -0.5050 -0.8024
11224SOL    HW234806   4.382   0.358   7.308  0.2564  0.2651 -0.5706
11225SOL     OW34807   0.823   1.656   0.733  0.6454  0.2520  0.4898
11225SOL    HW134808   0.793   1.568   0.714  1.2671  0.3152 -0.8560
11225SOL    HW234809   0.753   1.694   0.788 -0.0046 -0.7820  0.3944
11226SOL     OW34810   5.637   3.792   1.891  0.2376  0.1598 -0.3862
11226SOL    HW134811   5.572   3.852   1.855 -1.2862 -1.9314 -1.3491
11226SOL    HW234812   5.646   3.818   1.983 -1.5145  0.8812 -0.3864
11227SOL     OW34813   2.061   1.656   7.198 -0.3740  0.0323  0.0898
11227SOL    HW134814   2.031   1.670   7.287 -0.4909 -0.7888  0.1893
11227SOL    HW234815   2.062   1.743   7.158  2.3232  0.8353  1.6954
11228SOL     OW34816   6.671   6.542   2.281 -0.1030 -0.3235  0.0339
11228SOL    HW134817   6.723   6.475   2.237  0.7317  1.4680 -1.8770
11228SOL    HW234818   6.604   6.566   2.218  0.0747  1.1516  0.3738
11229SOL     OW34819   4.809   2.593   0.030 -0.1191 -0.1286 -0.0561
11229SOL    HW134820   4.864   2.665  -0.003  0.9838 -0.5394  0.8210
11229SOL    HW234821   4.871   2.534   0.073 -0.9711 -1.7169 -0.9323
11230SOL     OW34822   2.947   6.404   5.016  0.2364  0.4130 -0.2486
11230SOL    HW134823   2.947   6.490   4.972  1.3645  0.3366 -0.4337
11230SOL    HW234824   3.008   6.414   5.089  1.6831 -0.6744 -1.2368
11231SOL     OW34825   6.655   6.295   5.341 -0.1728  0.1003 -0.1646
11231SOL    HW134826   6.636   6.207   5.372  1.2125 -0.2698 -0.3067
11231SOL    HW234827   6.745   6.290   5.308  0.3397  1.8223  0.8599
11232SOL     OW34828   6.719   8.228   3.207  0.4515  0.2862  0.2978
11232SOL    HW134829   6.760   8.145   3.184  1.7273  1.0689 -0.3728
11232SOL    HW234830   6.713   8.275   3.124 -3.8892 -0.5791 -0.1330
11233SOL     OW34831   5.624   6.019   3.184  0.6227  0.5291 -0.3038
11233SOL    HW134832   5.686   6.053   3.119  0.6298  3.1408  0.9247
11233SOL    HW234833   5.679   5.973   3.247  1.0869  1.0455 -0.3175
11234SOL     OW34834   7.358   0.299   6.954 -0.0919  0.4027 -0.1873
11234SOL    HW134835   7.311   0.370   6.910  0.0924 -1.0403 -2.8716
11234SOL    HW234836   7.449   0.330   6.959 -0.0566  0.4858 -1.1266
11235SOL     OW34837   3.351   4.053   6.502 -0.1290  0.5614  0.0036
11235SOL    HW134838   3.382   4.033   6.590  0.7569  0.3116 -0.3558
11235SOL    HW234839   3.412   4.007   6.444  0.5433  2.3953 -0.8028
11236SOL     OW34840   6.318   0.757   4.029  0.1234  0.2554  0.0073
11236SOL    HW134841   6.392   0.759   4.090  0.8966  2.7088 -0.9135
11236SOL    HW234842   6.348   0.701   3.957  0.6267  0.2715  0.1991
11237SOL     OW34843   1.743   7.068   8.304  0.2482 -0.1195  0.3843
11237SOL    HW134844   1.781   7.073   8.391  0.3020 -2.0663  0.5312
11237SOL    HW234845   1.777   6.985   8.268  0.6433  0.8597 -1.6887
11238SOL     OW34846   0.966   6.127   1.654  0.3128  0.9882  0.0918
11238SOL    HW134847   0.984   6.200   1.594 -0.7847  1.1276 -0.0876
11238SOL    HW234848   0.873   6.110   1.644  0.3482  0.2383  0.9072
11239SOL     OW34849   2.592   1.531   8.625 -0.2086 -0.3919  0.1045
11239SOL    HW134850   2.671   1.479   8.612 -0.1721 -0.6442  1.1963
11239SOL    HW234851   2.622   1.621   8.620 -0.0080 -0.4802 -0.3418
11240SOL     OW34852   7.308   3.362   0.566 -0.5559  0.2941 -0.1258
11240SOL    HW134853   7.379   3.388   0.508 -0.0811  0.4946  0.5399
11240SOL    HW234854   7.346   3.296   0.623 -1.5425 -1.3807 -1.2987
11241SOL     OW34855   3.092   8.518   0.823 -0.4955  0.1940 -0.8731
11241SOL    HW134856   3.171   8.569   0.807  1.9198 -2.9723 -0.1488
11241SOL    HW234857   3.059   8.551   0.906  0.5898  0.9965 -0.7338
11242SOL     OW34858   1.272   2.391   8.724 -0.1136  0.2899 -0.1961
11242SOL    HW134859   1.244   2.314   8.674 -2.6504  0.8144  0.3081
11242SOL    HW234860   1.242   2.375   8.813  1.0198  1.0455  0.3486
11243SOL     OW34861   4.136   8.083   1.064 -0.2414  0.1223 -0.7204
11243SOL    HW134862   4.169   8.127   1.143 -1.2457  0.8870 -0.7143
11243SOL    HW234863   4.162   8.140   0.992 -3.3353  1.9250 -0.5637
11244SOL     OW34864   2.678   7.454   8.801  0.5675  0.1528 -0.0600
11244SOL    HW134865   2.608   7.486   8.744  1.2669 -1.9291 -2.2666
11244SOL    HW234866   2.751   7.514   8.784  0.6185 -0.1665 -1.0670
11245SOL     OW34867   0.662   1.709   5.927 -0.1733 -0.0699 -0.0208
11245SOL    HW134868   0.722   1.643   5.892 -0.4650 -0.5507  0.3719
11245SOL    HW234869   0.707   1.793   5.912  0.8230 -0.4507  0.6742
11246SOL     OW34870   7.136   2.519   4.099 -0.2797 -0.2525 -0.4653
11246SOL    HW134871   7.130   2.549   4.190 -0.7202 -1.1766 -0.1733
11246SOL    HW234872   7.054   2.471   4.084  0.2256 -0.9599 -1.0233
11247SOL     OW34873   3.319   7.529   2.093  0.7720  0.4468  1.0634
11247SOL    HW134874   3.263   7.593   2.137  1.5885  1.1043  1.1964
11247SOL    HW234875   3.259   7.465   2.055 -0.0674  1.2058  1.0768
11248SOL     OW34876   0.151   7.299   0.699  0.1304  0.0206  0.3699
11248SOL    HW134877   0.189   7.366   0.756 -0.2680 -0.7514  1.5766
11248SOL    HW234878   0.056   7.305   0.715  0.0602 -0.5729  0.2173
11249SOL     OW34879   2.299   7.563   4.682 -0.0982  0.8831 -0.4597
11249SOL    HW134880   2.326   7.535   4.769 -0.1230  0.3374 -0.6266
11249SOL    HW234881   2.203   7.554   4.683  0.0761 -2.4917 -1.6547
11250SOL     OW34882   7.079   7.332   4.828 -0.1946 -0.3665  1.0690
11250SOL    HW134883   6.995   7.310   4.789  0.5756  0.9787 -1.5170
11250SOL    HW234884   7.068   7.421   4.860 -0.1197 -0.6600  1.9470
11251SOL     OW34885   5.111   4.174   2.285 -0.4541 -0.2492  0.5932
11251SOL    HW134886   5.114   4.130   2.200 -1.1119  0.8915 -0.0532
11251SOL    HW234887   5.088   4.105   2.347  0.2068 -1.1367 -0.1236
11252SOL     OW34888   3.709   3.400   7.827 -0.0768  0.1478 -0.2761
11252SOL    HW134889   3.751   3.480   7.859  3.5936 -0.1770 -3.5189
11252SOL    HW234890   3.628   3.430   7.786  1.6793  2.4937 -2.2991
11253SOL     OW34891   3.166   7.360   1.324 -0.3702  0.1173  0.4998
11253SOL    HW134892   3.239   7.367   1.386  0.5533 -2.1577 -0.2043
11253SOL    HW234893   3.099   7.311   1.371  0.6199 -2.2732 -0.4018
11254SOL     OW34894   1.569   8.752   0.503 -0.4693 -0.2864 -0.7099
11254SOL    HW134895   1.613   8.810   0.564 -2.0855 -0.0042  0.2629
11254SOL    HW234896   1.625   8.675   0.498  1.5759  1.1875 -1.8101
11255SOL     OW34897   8.624   7.497   2.367  0.9545 -0.1126  0.0978
11255SOL    HW134898   8.708   7.458   2.391  1.7142  1.0249 -0.6306
11255SOL    HW234899   8.602   7.457   2.283  0.8079 -0.3415  0.2438
11256SOL     OW34900   6.431   0.108   5.341 -0.0526 -0.5016 -0.1400
11256SOL    HW134901   6.505   0.155   5.303  1.5095 -2.3521  0.4218
11256SOL    HW234902   6.444   0.017   5.315 -2.6269 -0.7893 -0.7062
11257SOL     OW34903   2.568   2.337   4.150 -0.0182 -0.1669 -0.4301
11257SOL    HW134904   2.496   2.348   4.212  0.8971 -1.9888  1.0593
11257SOL    HW234905   2.526   2.319   4.066 -1.2811  0.8381 -0.0413
11258SOL     OW34906   3.966   6.497   3.972 -0.2482 -0.1385 -0.4832
11258SOL    HW134907   3.986   6.424   4.030 -1.7320  0.6091  1.0386
11258SOL    HW234908   3.915   6.458   3.901  0.1216 -0.7969 -0.3901
11259SOL     OW34909   7.079   8.980   0.829 -0.0980  0.1532 -0.1804
11259SOL    HW134910   7.009   8.918   0.811 -0.1559  0.5802 -1.5525
11259SOL    HW234911   7.038   9.066   0.819 -0.1111  0.4859  2.0327
11260SOL     OW34912   2.037   0.665   7.733 -0.2912  0.1334  0.2381
11260SOL    HW134913   1.987   0.601   7.783  0.6311 -0.2610  0.6869
11260SOL    HW234914   2.033   0.632   7.643  2.5892 -2.3022  0.8274
11261SOL     OW34915   5.717   0.164   8.357  0.2626 -0.2904 -0.0302
11261SOL    HW134916   5.692   0.077   8.325  1.1515 -0.7608  0.5112
11261SOL    HW234917   5.786   0.147   8.420  0.2579  0.8031  0.2898
11262SOL     OW34918   6.146   7.340   5.752  0.2994  1.3326 -0.0716
11262SOL    HW134919   6.198   7.285   5.812 -0.9853  0.3429  0.1741
11262SOL    HW234920   6.129   7.420   5.802 -1.2211  0.2989  1.1489
11263SOL     OW34921   7.607   8.021   7.325 -0.2701 -0.3689  0.3053
11263SOL    HW134922   7.643   8.101   7.288  1.9192 -1.0855  0.7717
11263SOL    HW234923   7.661   7.951   7.288 -1.2214 -1.5190  1.0104
11264SOL     OW34924   8.597   7.401   8.664 -0.5111 -0.3722 -0.0814
11264SOL    HW134925   8.681   7.424   8.623 -0.9839 -2.1614 -2.2517
11264SOL    HW234926   8.615   7.319   8.709 -1.0110 -0.6023 -0.2980
11265SOL     OW34927   7.011   6.966   1.853  0.2857  0.1177  0.0884
11265SOL    HW134928   7.022   6.927   1.940  0.8485  1.1877  0.5139
11265SOL    HW234929   6.994   6.891   1.796  0.3672 -0.6518  1.0354
11266SOL     OW34930   2.613   8.002   5.252 -0.1580 -0.8397 -0.0781
11266SOL    HW134931   2.627   8.074   5.314 -2.0002  0.9683 -1.6247
11266SOL    HW234932   2.693   7.949   5.259  2.2541  2.4339 -0.2870
11267SOL     OW34933   3.188   2.693   2.031  0.3768  0.3605  0.9113
11267SOL    HW134934   3.236   2.611   2.033  0.9007  0.6541  2.7526
11267SOL    HW234935   3.224   2.744   2.104  0.0489  2.2184 -0.1503
11268SOL     OW34936   3.117   0.317   2.434  0.4144 -0.3415 -0.0718
11268SOL    HW134937   3.159   0.392   2.476  2.8385 -1.7447  0.1627
11268SOL    HW234938   3.150   0.318   2.344  1.3334 -1.7080  0.2293
11269SOL     OW34939   7.709   1.277   5.025 -0.6112  0.7388 -0.1954
11269SOL    HW134940   7.747   1.363   5.040 -2.3448  1.4590  0.2445
11269SOL    HW234941   7.728   1.258   4.933  0.0242  1.4539 -0.2157
11270SOL     OW34942   6.179   7.089   8.676 -0.2912 -0.3760  0.1894
11270SOL    HW134943   6.146   7.157   8.618 -1.8758 -0.5869  0.7935
11270SOL    HW234944   6.271   7.079   8.652  0.1724  2.3879  0.4747
11271SOL     OW34945   0.909   3.500   2.800  0.7070  0.2668  0.2331
11271SOL    HW134946   0.837   3.555   2.832  0.4689  1.6358 -2.4319
11271SOL    HW234947   0.894   3.415   2.841 -2.1809  0.6454  0.1549
11272SOL     OW34948   3.113   7.257   5.570 -0.2384 -0.6477  0.1689
11272SOL    HW134949   3.186   7.301   5.613 -1.0325 -0.9691  1.9131
11272SOL    HW234950   3.117   7.288   5.479  2.6899 -1.5020 -0.0915
11273SOL     OW34951   6.311   8.407   1.538 -0.1746 -0.3788 -0.0684
11273SOL    HW134952   6.303   8.480   1.477 -2.1483  0.3893  1.0114
11273SOL    HW234953   6.340   8.447   1.620 -0.0827 -0.9826  0.1999
11274SOL     OW34954   6.867   6.311   4.120  0.2870 -0.2356  0.0274
11274SOL    HW134955   6.814   6.388   4.143  0.8424  0.4854 -1.0268
11274SOL    HW234956   6.832   6.241   4.175 -1.2247  0.4073 -0.0622
11275SOL     OW34957   1.629   5.430   4.725 -0.4704  0.1791 -0.1714
11275SOL    HW134958   1.583   5.417   4.808  1.2119  0.4455  0.8435
11275SOL    HW234959   1.660   5.342   4.701 -3.5854 -0.5404 -2.2424
11276SOL     OW34960   5.754   1.619   8.750  0.6981  0.8000  0.2025
11276SOL    HW134961   5.753   1.710   8.780  1.0369  1.0232 -0.4519
11276SOL    HW234962   5.829   1.613   8.690  0.1070  0.3439 -0.5160
11277SOL     OW34963   7.810   5.800   7.438  0.0645 -0.2278  0.0111
11277SOL    HW134964   7.789   5.883   7.481  0.2247 -0.2800  0.1926
11277SOL    HW234965   7.848   5.825   7.354 -1.3227 -0.1359 -0.6240
11278SOL     OW34966   4.649   5.054   3.532 -0.2812  0.1332  0.1617
11278SOL    HW134967   4.644   4.972   3.484 -1.1758 -0.2158  0.8096
11278SOL    HW234968   4.661   5.028   3.624  1.2376  0.7794  0.1804
11279SOL     OW34969   6.496   0.260   1.780  0.2853 -0.1907 -0.3946
11279SOL    HW134970   6.520   0.197   1.712 -0.5153 -2.2077  1.1172
11279SOL    HW234971   6.561   0.247   1.849 -0.5326 -0.1710  0.3998
11280SOL     OW34972   3.604   3.410   0.989 -0.3634  0.1808  0.0456
11280SOL    HW134973   3.583   3.452   1.072 -1.2536  0.1780 -0.1622
11280SOL    HW234974   3.558   3.326   0.993 -1.4937  0.7121 -0.9509
11281SOL     OW34975   8.583   5.866   8.833 -0.3859  0.2572  0.4035
11281SOL    HW134976   8.551   5.914   8.909 -1.0801 -0.1016  0.3440
11281SOL    HW234977   8.520   5.795   8.821 -0.2001  0.2201 -0.4118
11282SOL     OW34978   4.651   3.312   4.014 -0.1088 -0.8768  0.0876
11282SOL    HW134979   4.660   3.307   4.109  0.4692  1.0835  0.1729
11282SOL    HW234980   4.702   3.388   3.988 -0.9247 -0.8732 -1.7125
11283SOL     OW34981   4.532   5.959   1.665 -0.9112 -0.2615  0.3760
11283SOL    HW134982   4.456   5.902   1.650  1.1801 -2.7047 -2.1072
11283SOL    HW234983   4.582   5.954   1.583  1.1804  2.5094  1.3207
11284SOL     OW34984   6.811   6.117   2.560 -0.2225  0.2162 -0.0364
11284SOL    HW134985   6.782   6.076   2.478 -1.8396 -0.9775  1.0663
11284SOL    HW234986   6.818   6.044   2.621 -0.1036  1.2269  1.1921
11285SOL     OW34987   5.185   2.483   3.345  0.2347 -0.1690  0.1525
11285SOL    HW134988   5.159   2.391   3.342  0.2245 -0.2089  1.0927
11285SOL    HW234989   5.152   2.520   3.263  0.2379 -0.9997 -0.2339
11286SOL     OW34990   6.880   2.797   6.666 -0.1619 -0.1597 -0.4258
11286SOL    HW134991   6.833   2.715   6.684 -0.1342 -0.4014 -1.4236
11286SOL    HW234992   6.812   2.864   6.666 -0.3115 -0.3103 -0.4961
11287SOL     OW34993   8.007   2.239   5.353 -0.2788  1.0182 -0.2294
11287SOL    HW134994   8.085   2.287   5.322 -0.0916 -0.2557 -1.9333
11287SOL    HW234995   8.042   2.154   5.382 -0.8951  0.9091  0.1952
11288SOL     OW34996   6.604   6.354   1.199  0.0025 -0.0527 -0.1379
11288SOL    HW134997   6.630   6.309   1.119  0.3104  0.1199 -0.1392
11288SOL    HW234998   6.584   6.284   1.262  0.3211 -0.1919 -0.1881
11289SOL     OW34999   2.744   8.931   1.178 -0.6138  0.3444 -0.2219
11289SOL    HW135000   2.823   8.930   1.124  0.4431 -0.6112  1.2792
11289SOL    HW235001   2.770   8.888   1.260 -2.0954  1.8550  1.1259
11290SOL     OW35002   1.786   2.810   6.261 -0.0260  0.1425 -0.2172
11290SOL    HW135003   1.708   2.846   6.303  0.8203  1.9560 -0.0604
11290SOL    HW235004   1.754   2.766   6.182 -1.2971 -0.2180  0.4790
11291SOL     OW35005   4.216   3.800   1.923 -0.3755  0.2186  0.4131
11291SOL    HW135006   4.290   3.837   1.971  0.0470 -1.1474  0.8517
11291SOL    HW235007   4.152   3.776   1.991 -0.1280 -0.9437  0.2583
11292SOL     OW35008   2.153   0.323   8.061  0.1302  0.1014 -0.2754
11292SOL    HW135009   2.113   0.380   8.127  0.0649  0.2501 -0.4436
11292SOL    HW235010   2.117   0.236   8.079  0.5418  0.0312  0.2390
11293SOL     OW35011   0.185   6.569   2.120  0.1606  0.0645 -0.3037
11293SOL    HW135012   0.261   6.598   2.069  0.7724  0.0355  0.5672
11293SOL    HW235013   0.110   6.608   2.076  0.6492 -0.1907 -1.3916
11294SOL     OW35014   4.146   0.771   4.691  0.1764  0.2907 -0.0973
11294SOL    HW135015   4.168   0.861   4.667 -0.5437  0.8133  1.0952
11294SOL    HW235016   4.053   0.775   4.714  0.2103 -0.7006  0.2337
11295SOL     OW35017   7.459   3.253   6.295  0.1549 -0.1518  0.5548
11295SOL    HW135018   7.455   3.161   6.267  1.1395 -0.2183  0.6153
11295SOL    HW235019   7.527   3.254   6.363 -0.9937  0.3176  1.7464
11296SOL     OW35020   8.125   3.783   1.140  0.0594 -0.5325 -0.0810
11296SOL    HW135021   8.191   3.809   1.204 -0.0396 -1.0626  0.2367
11296SOL    HW235022   8.042   3.794   1.186 -0.0260 -0.6630 -0.2046
11297SOL     OW35023   2.318   2.549   6.932  0.3316 -0.1549  0.1667
11297SOL    HW135024   2.225   2.572   6.931 -0.2941 -1.8471  3.5522
11297SOL    HW235025   2.323   2.466   6.885  0.3078  0.2926 -0.6512
11298SOL     OW35026   3.631   6.085   5.324 -0.2749 -0.3538  0.0140
11298SOL    HW135027   3.648   6.127   5.408 -0.4666 -0.2033 -0.0217
11298SOL    HW235028   3.537   6.094   5.312 -0.1487  0.2602 -0.5560
11299SOL     OW35029   4.169   2.503   6.510 -0.1670 -0.0400 -0.3410
11299SOL    HW135030   4.169   2.552   6.593  0.9780  0.5375 -0.6653
11299SOL    HW235031   4.119   2.558   6.450 -0.2213 -0.0248 -0.2821
11300SOL     OW35032   7.762   0.419   0.610  0.3707  0.6810 -0.3514
11300SOL    HW135033   7.709   0.411   0.531 -0.8322  0.4257  0.4425
11300SOL    HW235034   7.836   0.473   0.584 -1.4313  3.0442 -0.9813
11301SOL     OW35035   1.679   1.805   7.110  0.4544 -0.1170 -0.1574
11301SOL    HW135036   1.638   1.886   7.081  0.0330 -0.7067 -1.2614
11301SOL    HW235037   1.687   1.752   7.031  1.1139 -0.9847  0.4702
11302SOL     OW35038   0.686   6.801   1.004  0.2144  0.3937 -0.1485
11302SOL    HW135039   0.775   6.791   1.037  1.4282  3.9258 -1.8056
11302SOL    HW235040   0.636   6.836   1.078  1.4436  2.6780 -0.2854
11303SOL     OW35041   8.599   5.037   2.875 -0.0805  0.0805  0.6074
11303SOL    HW135042   8.623   5.129   2.870 -2.2637  0.9475  3.5824
11303SOL    HW235043   8.572   5.015   2.786  0.7048  2.2165 -0.2303
11304SOL     OW35044   3.916   7.015   8.034  0.3933  0.0924  0.0028
11304SOL    HW135045   3.853   7.016   8.106  0.2549  0.8611 -0.1138
11304SOL    HW235046   3.868   7.055   7.961  1.5610  2.4050  0.4134
11305SOL     OW35047   1.197   2.826   4.057  0.3222  0.0692 -0.3637
11305SOL    HW135048   1.114   2.871   4.042 -0.3714 -0.5304  1.3619
11305SOL    HW235049   1.187   2.786   4.144  3.1082  1.5211  0.7571
11306SOL     OW35050   6.694   7.502   8.300  0.0348  0.3167  0.0796
11306SOL    HW135051   6.634   7.451   8.354  0.2373  0.4586  0.4402
11306SOL    HW235052   6.777   7.499   8.347  0.5975 -0.7496 -0.9185
11307SOL     OW35053   8.898   9.083   2.182 -0.1687 -0.3767  0.1031
11307SOL    HW135054   8.869   9.024   2.251  0.6071 -0.8090  0.0644
11307SOL    HW235055   8.823   9.142   2.168 -0.8118 -1.1063  0.4014
11308SOL     OW35056   2.257   3.047   1.954  0.2376 -0.1225 -0.1858
11308SOL    HW135057   2.324   3.089   1.901  1.0084 -0.7870  0.2420
11308SOL    HW235058   2.306   3.002   2.024 -0.5625 -1.5128 -0.4872
11309SOL     OW35059   9.069   1.828   6.239 -0.2875 -0.1368 -0.0855
11309SOL    HW135060   9.150   1.868   6.207  0.0377 -1.0835 -0.4991
11309SOL    HW235061   9.034   1.890   6.303  1.0844  0.0155  0.5454
11310SOL     OW35062   3.681   6.750   9.001 -0.0227 -0.4802  0.4463
11310SOL    HW135063   3.590   6.766   9.025 -0.2533 -0.9805 -0.0816
11310SOL    HW235064   3.715   6.693   9.069  0.5353  1.3918  1.8320
11311SOL     OW35065   6.701   0.609   5.233  0.8669  0.3151 -0.1560
11311SOL    HW135066   6.782   0.560   5.222  0.5918 -0.0607 -0.5401
11311SOL    HW235067   6.726   0.686   5.284  1.5004  0.2994 -0.4318
11312SOL     OW35068   3.749   0.113   8.810  0.5205 -0.1497 -0.2219
11312SOL    HW135069   3.655   0.094   8.804  0.4497 -0.1789  0.8090
11312SOL    HW235070   3.754   0.191   8.866  1.1766 -0.9062  0.7958
11313SOL     OW35071   2.584   5.252   6.329 -0.1025 -0.1677 -0.2942
11313SOL    HW135072   2.620   5.303   6.402 -0.8066  0.3637 -0.3083
11313SOL    HW235073   2.646   5.268   6.257  1.4272 -1.8859  0.5505
11314SOL     OW35074   5.905   2.670   4.927  0.1924  0.1694 -0.5709
11314SOL    HW135075   5.969   2.627   4.870  0.2444  0.0343 -0.4112
11314SOL    HW235076   5.955   2.737   4.974 -0.0347  0.9174 -1.3626
11315SOL     OW35077   1.314   0.322   5.310  0.6849 -0.0428  1.0820
11315SOL    HW135078   1.293   0.229   5.304 -0.6355  0.2835  0.3032
11315SOL    HW235079   1.344   0.335   5.400  0.5955 -1.1503  1.2820
11316SOL     OW35080   7.415   1.520   5.957 -0.4674  0.2990 -0.7428
11316SOL    HW135081   7.362   1.465   5.899  1.0999 -0.6660 -1.3264
11316SOL    HW235082   7.455   1.458   6.018 -1.2638  1.1906  0.7672
11317SOL     OW35083   3.085   0.414   0.142  0.2181  0.5444 -0.6535
11317SOL    HW135084   3.175   0.445   0.141  0.4204  0.0644  0.4839
11317SOL    HW235085   3.092   0.319   0.152 -0.3988  0.5155 -0.4168
11318SOL     OW35086   5.808   5.115   5.770  0.1891 -0.0739 -0.6854
11318SOL    HW135087   5.749   5.081   5.837  0.7481 -0.2385 -0.2699
11318SOL    HW235088   5.750   5.139   5.698 -0.2755 -1.2839 -0.7384
11319SOL     OW35089   4.314   9.002   1.662 -0.5421 -0.3817 -0.5136
11319SOL    HW135090   4.261   8.928   1.692 -0.2324  0.1492  1.5369
11319SOL    HW235091   4.252   9.070   1.641 -0.7631 -0.4380 -0.0628
11320SOL     OW35092   6.832   1.738   4.922 -0.5727  0.1966 -0.4868
11320SOL    HW135093   6.751   1.784   4.902 -0.4964  0.4806 -0.1632
11320SOL    HW235094   6.814   1.646   4.902 -0.2590  0.5353 -2.6324
11321SOL     OW35095   8.400   0.513   0.081  0.0934 -0.1943 -0.0524
11321SOL    HW135096   8.386   0.607   0.084 -0.2386 -0.2559  2.2972
11321SOL    HW235097   8.488   0.503   0.044  1.5010  1.2706  2.5916
11322SOL     OW35098   0.200   3.273   2.508 -0.2472  0.5335 -0.1968
11322SOL    HW135099   0.151   3.246   2.431  1.1184 -0.1970 -0.8367
11322SOL    HW235100   0.292   3.274   2.480  0.3825 -0.5807  1.6331
11323SOL     OW35101   4.120   2.978   0.514  0.1644  0.2386  0.0021
11323SOL    HW135102   4.169   3.060   0.501  1.9992 -1.0362 -1.8162
11323SOL    HW235103   4.075   2.990   0.598 -0.6779  3.5681 -0.7679
11324SOL     OW35104   6.923   4.155   6.406  0.2309 -0.0844 -0.0771
11324SOL    HW135105   6.893   4.171   6.316 -0.8126 -2.3853 -0.2010
11324SOL    HW235106   6.890   4.230   6.456 -0.3234  0.5662 -1.3629
11325SOL     OW35107   1.353   3.306   3.100 -0.4799  0.4012 -0.0828
11325SOL    HW135108   1.432   3.322   3.151  0.7078 -0.1874 -1.6432
11325SOL    HW235109   1.359   3.367   3.026  0.1361 -1.6690 -1.8689
11326SOL     OW35110   3.620   6.485   1.834  0.0601  0.4851  0.6873
11326SOL    HW135111   3.682   6.541   1.787  1.3770 -0.4023  1.3191
11326SOL    HW235112   3.673   6.439   1.899 -1.1271 -0.9113  0.7162
11327SOL     OW35113   4.453   1.655   6.224 -0.4367  0.2738  0.0004
11327SOL    HW135114   4.368   1.641   6.265  0.1650 -0.1067  1.1542
11327SOL    HW235115   4.471   1.748   6.237 -0.0063  0.0504  1.1250
11328SOL     OW35116   1.467   7.086   8.330  0.3524 -0.0749  0.0489
11328SOL    HW135117   1.553   7.061   8.297  0.1416 -0.9394  0.1157
11328SOL    HW235118   1.429   7.004   8.361 -0.9559  0.0647 -1.0620
11329SOL     OW35119   5.259   6.699   5.012  0.6804 -0.2394 -0.8126
11329SOL    HW135120   5.299   6.779   5.046 -0.9141 -0.1755  1.0608
11329SOL    HW235121   5.189   6.730   4.954 -0.3648 -0.2257  0.4231
11330SOL     OW35122   7.789   0.758   4.550 -0.1452 -0.7392  0.0703
11330SOL    HW135123   7.815   0.737   4.460  0.1217  2.0928 -0.6227
11330SOL    HW235124   7.870   0.751   4.601  0.1807 -0.3093 -0.3702
11331SOL     OW35125   7.030   2.391   2.631 -0.2607  0.4088 -0.5509
11331SOL    HW135126   6.999   2.347   2.552 -0.8884 -0.3924  0.1142
11331SOL    HW235127   7.121   2.363   2.641 -0.6456 -0.7369 -0.1535
11332SOL     OW35128   4.215   4.998   0.516  0.3252  1.0306  0.4831
11332SOL    HW135129   4.295   4.946   0.501  0.5468  0.7222  2.4775
11332SOL    HW235130   4.158   4.939   0.565  0.1697  2.3075  1.8882
11333SOL     OW35131   4.174   0.879   5.092 -0.0879  0.5408 -0.1239
11333SOL    HW135132   4.244   0.859   5.030  0.5189 -0.2766  0.8102
11333SOL    HW235133   4.218   0.903   5.173 -0.8189 -1.5376  0.9806
11334SOL     OW35134   6.654   0.338   4.304  0.2271 -0.0601 -0.0346
11334SOL    HW135135   6.728   0.366   4.252 -0.2351 -0.6228 -1.0184
11334SOL    HW235136   6.599   0.287   4.244 -1.2629  0.8491  0.4941
11335SOL     OW35137   3.848   7.890   6.853 -0.4594 -0.0223 -0.5634
11335SOL    HW135138   3.832   7.965   6.796  2.0034  0.0538 -1.2814
11335SOL    HW235139   3.766   7.842   6.854 -1.2969  1.2915 -2.2109
11336SOL     OW35140   0.549   5.607   4.408 -0.3331 -0.5191 -0.2333
11336SOL    HW135141   0.576   5.637   4.321 -2.0490  0.9710 -0.3084
11336SOL    HW235142   0.543   5.687   4.460 -0.7802 -1.2301  0.8460
11337SOL     OW35143   5.628   6.524   8.541 -0.1484  0.4651  0.1851
11337SOL    HW135144   5.668   6.462   8.481 -1.4892 -1.1188  0.8462
11337SOL    HW235145   5.535   6.499   8.543 -0.3467  1.2003  2.0253
11338SOL     OW35146   6.949   5.874   2.392  0.1761 -0.5121 -0.1824
11338SOL    HW135147   7.033   5.875   2.347  0.3492 -0.6750  0.1379
11338SOL    HW235148   6.937   5.783   2.418  1.0677 -0.0648  1.9607
11339SOL     OW35149   7.900   6.732   2.135  0.2280  0.5264 -0.5878
11339SOL    HW135150   7.944   6.772   2.210  0.1586 -0.7581  0.1683
11339SOL    HW235151   7.970   6.711   2.074  0.7808 -1.6115  0.6595
11340SOL     OW35152   2.129   5.414   7.645 -0.1156  0.1963 -0.1382
11340SOL    HW135153   2.113   5.466   7.567 -0.7593  0.0345 -0.1179
11340SOL    HW235154   2.044   5.407   7.688  0.4899  1.6553  1.4414
11341SOL     OW35155   7.986   0.463   4.953  0.7673 -0.0971 -0.5596
11341SOL    HW135156   8.070   0.492   4.989 -0.3390 -0.1946  2.4089
11341SOL    HW235157   7.953   0.401   5.018 -1.8338  0.3377 -1.3738
11342SOL     OW35158   7.899   3.920   0.961  0.4848  0.0936 -0.0299
11342SOL    HW135159   7.973   3.962   0.919  1.8657 -0.9185  1.2840
11342SOL    HW235160   7.892   3.962   1.047  0.3984 -0.7051  0.3722
11343SOL     OW35161   1.495   5.495   0.139 -0.2156 -0.0185 -0.0830
11343SOL    HW135162   1.478   5.534   0.054  1.2923  1.9139  0.4384
11343SOL    HW235163   1.566   5.432   0.123  0.4236  0.7186 -0.1803
11344SOL     OW35164   3.047   4.819   1.780 -0.5657  0.2939 -0.1719
11344SOL    HW135165   2.964   4.862   1.801  0.0445  0.9212  1.0606
11344SOL    HW235166   3.054   4.746   1.841  0.9011  1.7217  1.5091
11345SOL     OW35167   1.728   6.475   1.105  0.8243 -0.4768 -0.4881
11345SOL    HW135168   1.693   6.387   1.108 -1.4284  0.4017  1.6987
11345SOL    HW235169   1.681   6.517   1.033 -0.1401 -0.3126  0.2172
11346SOL     OW35170   1.962   7.564   6.491 -0.2608  0.6388  0.3557
11346SOL    HW135171   1.947   7.476   6.456 -1.2582  0.9831 -0.1064
11346SOL    HW235172   1.882   7.585   6.539 -0.6052  1.8395 -0.7035
11347SOL     OW35173   0.890   4.253   5.959  0.1971  0.0545  0.0876
11347SOL    HW135174   0.794   4.259   5.959  0.2489  1.2137 -0.9856
11347SOL    HW235175   0.911   4.190   5.890  0.2266 -0.1064  0.2406
11348SOL     OW35176   6.272   3.412   0.442  0.1483 -0.3388  0.4569
11348SOL    HW135177   6.210   3.357   0.489 -1.7655  2.0012  0.8494
11348SOL    HW235178   6.355   3.399   0.487 -0.6038 -1.6386  1.5318
11349SOL     OW35179   2.565   0.072   2.141  0.3238  0.4947 -0.2170
11349SOL    HW135180   2.526  -0.002   2.094  0.5062  1.1379 -1.4366
11349SOL    HW235181   2.610   0.033   2.215 -2.0869 -0.3335  0.9008
11350SOL     OW35182   5.215   0.251   1.442 -0.3327 -0.1561 -0.0136
11350SOL    HW135183   5.244   0.180   1.499 -2.0901  0.6036  1.9300
11350SOL    HW235184   5.144   0.212   1.390 -1.0231  0.0501  0.7631
11351SOL     OW35185   6.681   0.259   6.422 -0.1508  0.2839 -0.4251
11351SOL    HW135186   6.606   0.292   6.472  0.6495  0.1632  0.9139
11351SOL    HW235187   6.660   0.278   6.331 -0.4682  3.0712  0.1292
11352SOL     OW35188   4.059   1.306   6.122 -0.0483  0.0102 -1.1872
11352SOL    HW135189   4.093   1.332   6.037 -0.2921  0.1224 -1.2501
11352SOL    HW235190   4.130   1.255   6.162  0.2552  0.3886 -1.2496
11353SOL     OW35191   2.914   1.391   2.300 -0.0596 -0.0580 -0.1320
11353SOL    HW135192   2.873   1.475   2.322 -0.2450 -0.5743  1.6496
11353SOL    HW235193   2.904   1.338   2.379  2.9500 -0.6481 -0.0374
11354SOL     OW35194   6.238   4.151   0.685 -0.0367  0.4722 -0.6329
11354SOL    HW135195   6.309   4.136   0.748  0.0767  1.1563 -0.5839
11354SOL    HW235196   6.187   4.071   0.686 -0.4898  0.7411  0.9231
11355SOL     OW35197   8.531   3.695   6.068 -0.3915  0.2827 -0.3860
11355SOL    HW135198   8.620   3.665   6.048 -0.7752  0.9133 -3.5103
11355SOL    HW235199   8.543   3.784   6.101  0.2120 -0.3671  1.2586
11356SOL     OW35200   2.379   8.988   6.182 -0.1398 -0.6927  0.5087
11356SOL    HW135201   2.286   8.987   6.158  0.4344 -1.2771 -1.8891
11356SOL    HW235202   2.425   9.015   6.102  1.7044  0.8494  1.9826
11357SOL     OW35203   4.274   2.186   8.528 -0.0582 -0.4853 -0.1412
11357SOL    HW135204   4.247   2.269   8.490  0.6601 -0.1163  0.1450
11357SOL    HW235205   4.318   2.140   8.456 -0.1547 -0.4764 -0.2057
11358SOL     OW35206   2.375   3.610   6.469 -0.2537  0.1943 -0.2003
11358SOL    HW135207   2.398   3.692   6.512  1.0251 -0.4087  0.3123
11358SOL    HW235208   2.282   3.620   6.447 -0.5404  1.1456  1.2905
11359SOL     OW35209   8.890   6.258   2.431  0.2464  0.0874 -0.3949
11359SOL    HW135210   8.965   6.251   2.490  1.2295 -2.3401 -1.7700
11359SOL    HW235211   8.823   6.202   2.469  1.0180 -1.7929 -1.6304
11360SOL     OW35212   6.989   5.631   0.345 -0.0476 -0.3665 -0.0438
11360SOL    HW135213   6.930   5.673   0.282  0.6096  1.5783  0.5750
11360SOL    HW235214   6.943   5.637   0.428  1.0147  1.3253  0.4786
11361SOL     OW35215   8.824   4.403   3.910  0.1936 -0.0411  0.3996
11361SOL    HW135216   8.834   4.498   3.902 -1.1238  0.0767 -0.1327
11361SOL    HW235217   8.873   4.380   3.989  0.8759  1.0149  0.3088
11362SOL     OW35218   0.168   8.418   5.693  0.2044 -0.0336 -0.1361
11362SOL    HW135219   0.096   8.442   5.634  0.3005  0.0549 -0.2166
11362SOL    HW235220   0.233   8.487   5.682  1.1444 -1.0702 -1.4759
11363SOL     OW35221   0.583   8.231   6.354  0.0015  0.1565 -0.0686
11363SOL    HW135222   0.613   8.275   6.275  2.2045  0.0477  0.6248
11363SOL    HW235223   0.623   8.282   6.426 -0.1960 -0.9664  0.8670
11364SOL     OW35224   8.837   3.253   4.933  0.1534  0.1632  0.0335
11364SOL    HW135225   8.901   3.234   4.864 -0.0824 -0.5298 -0.0108
11364SOL    HW235226   8.884   3.236   5.014 -0.2386 -1.3611 -0.0125
11365SOL     OW35227   2.127   5.695   2.440  0.0537  0.0398 -0.0878
11365SOL    HW135228   2.062   5.671   2.506  1.5269 -0.6826  1.1883
11365SOL    HW235229   2.193   5.744   2.489  2.1003 -2.0333 -0.5464
11366SOL     OW35230   0.871   6.729   7.619  0.2150 -0.4447  0.3306
11366SOL    HW135231   0.876   6.778   7.537  1.0211 -0.3269  0.4387
11366SOL    HW235232   0.951   6.676   7.619  1.5605  1.4390  2.2089
11367SOL     OW35233   2.146   1.996   2.512 -0.1425 -0.2199  0.2280
11367SOL    HW135234   2.093   2.050   2.454 -0.5486  0.3734  1.1224
11367SOL    HW235235   2.085   1.930   2.545  0.2121 -0.8793 -0.4070
11368SOL     OW35236   0.834   4.347   0.429 -0.1480  0.2264 -0.3443
11368SOL    HW135237   0.825   4.252   0.431 -0.3548  0.1503 -2.4982
11368SOL    HW235238   0.919   4.364   0.470 -0.1816 -0.8543  0.2172
11369SOL     OW35239   2.214   8.510   7.885  0.4966  0.0321 -0.4822
11369SOL    HW135240   2.153   8.567   7.838 -2.0059  0.2962  2.7485
11369SOL    HW235241   2.293   8.564   7.895  0.2840  0.7625 -2.3289
11370SOL     OW35242   7.298   7.493   5.202  0.9412  0.1685 -0.6370
11370SOL    HW135243   7.360   7.527   5.268  2.0257  0.1026 -1.5904
11370SOL    HW235244   7.212   7.508   5.241  1.5493 -1.9275  1.8281
11371SOL     OW35245   4.914   8.385   6.830 -0.2900  0.4633 -0.5883
11371SOL    HW135246   4.946   8.399   6.740 -0.1905  0.6624 -0.5231
11371SOL    HW235247   4.841   8.447   6.839 -0.8189 -0.1192 -0.8010
11372SOL     OW35248   1.581   8.334   4.731  0.3680  0.1255  0.2576
11372SOL    HW135249   1.538   8.352   4.815 -0.7204 -0.2643 -0.1962
11372SOL    HW235250   1.675   8.335   4.751  0.1887  1.6913  1.1406
11373SOL     OW35251   0.073   4.249   4.146  0.6625 -0.9119  0.4168
11373SOL    HW135252   0.141   4.184   4.163  2.1739  0.5298  0.1414
11373SOL    HW235253   0.112   4.309   4.083 -1.0464 -0.2554 -0.0952
11374SOL     OW35254   8.537   5.405   0.881 -0.4663 -0.2327  0.1148
11374SOL    HW135255   8.540   5.495   0.847 -1.7137  0.3494  1.4431
11374SOL    HW235256   8.629   5.377   0.881 -0.0632  0.9888 -0.4265
11375SOL     OW35257   2.552   0.329   0.159 -0.2637 -0.5746  0.3496
11375SOL    HW135258   2.469   0.327   0.110 -0.9758 -0.2613  1.5104
11375SOL    HW235259   2.525   0.342   0.250  1.1619  1.5293  0.5253
11376SOL     OW35260   8.619   8.566   8.440  0.0887 -0.1623 -0.3201
11376SOL    HW135261   8.708   8.586   8.410  1.1324  1.2364  3.2264
11376SOL    HW235262   8.620   8.472   8.455  1.5332  0.0299  1.0778
11377SOL     OW35263   3.389   8.290   8.130 -0.3665  0.6033  0.2362
11377SOL    HW135264   3.316   8.228   8.121 -0.6392  0.9320  0.1522
11377SOL    HW235265   3.454   8.260   8.066 -0.2810  0.1064  0.5505
11378SOL     OW35266   2.962   7.176   0.846 -0.4071  0.2747  0.1577
11378SOL    HW135267   2.966   7.141   0.935  2.8436  0.0856  0.0334
11378SOL    HW235268   3.026   7.247   0.845 -0.8293  0.6880 -1.8806
11379SOL     OW35269   2.330   8.010   3.606  0.8305  0.3858 -0.7278
11379SOL    HW135270   2.377   7.928   3.591 -0.1826  0.0148 -2.1420
11379SOL    HW235271   2.237   7.984   3.607  0.5459  1.3689 -0.0502
11380SOL     OW35272   8.922   3.778   0.496 -0.0624  0.2264 -0.1821
11380SOL    HW135273   8.866   3.719   0.446  0.7115 -0.6744 -0.0176
11380SOL    HW235274   9.002   3.728   0.511  0.2271  0.9619  0.8240
11381SOL     OW35275   3.131   5.408   4.768  0.1610  0.3154  0.6134
11381SOL    HW135276   3.225   5.389   4.766  0.0172 -0.5317  1.3073
11381SOL    HW235277   3.124   5.501   4.743  1.1203  0.2130 -0.0814
11382SOL     OW35278   5.335   6.045   5.043 -0.1452  0.0915  0.1268
11382SOL    HW135279   5.353   5.994   5.121 -1.4204  2.3055  1.9795
11382SOL    HW235280   5.338   6.136   5.071  0.0365  1.0233 -2.5708
11383SOL     OW35281   2.971   1.969   0.251  0.2362  0.3620  0.2831
11383SOL    HW135282   2.951   1.877   0.264 -0.4210  0.4142 -0.2748
11383SOL    HW235283   3.060   1.980   0.285  0.5495 -0.6041 -0.1967
11384SOL     OW35284   7.216   8.470   3.170 -0.3888  0.2479 -0.1054
11384SOL    HW135285   7.273   8.527   3.222  0.6346 -0.6778 -0.1564
11384SOL    HW235286   7.194   8.398   3.229 -1.3275  0.4686 -0.1690
11385SOL     OW35287   8.468   6.688   3.035 -0.4047 -0.5645 -0.0668
11385SOL    HW135288   8.441   6.599   3.012 -3.5131  0.0193  0.8519
11385SOL    HW235289   8.425   6.705   3.119 -0.3336  1.9547 -0.4668
11386SOL     OW35290   1.211   5.645   6.846  0.2175 -0.2605 -0.0178
11386SOL    HW135291   1.128   5.680   6.813 -1.4022 -2.2775  1.5959
11386SOL    HW235292   1.274   5.715   6.832 -1.9986  1.8085 -0.2892
11387SOL     OW35293   0.830   3.321   4.014  0.6663 -0.0229  0.1720
11387SOL    HW135294   0.922   3.305   4.036  0.6374 -1.0482 -0.3985
11387SOL    HW235295   0.797   3.373   4.087  1.4368 -0.5041  0.8793
11388SOL     OW35296   4.027   0.165   8.108  0.3236 -0.1140  0.0283
11388SOL    HW135297   4.118   0.170   8.136  0.2990 -0.3684  0.1542
11388SOL    HW235298   3.976   0.203   8.180  0.2964 -0.3532  0.1338
11389SOL     OW35299   5.847   6.693   2.650  0.3091  0.4638  0.0582
11389SOL    HW135300   5.784   6.713   2.581 -0.0522 -0.7747  0.0081
11389SOL    HW235301   5.812   6.614   2.693  1.8273 -0.2913 -0.0130
11390SOL     OW35302   8.596   2.228   7.275  1.0798 -0.3248  0.0812
11390SOL    HW135303   8.516   2.188   7.310  0.5255 -1.9896 -2.7902
11390SOL    HW235304   8.585   2.321   7.293 -0.0084 -0.8395  2.4924
11391SOL     OW35305   4.361   3.424   4.927  0.3171 -0.1693 -0.4410
11391SOL    HW135306   4.399   3.349   4.973  0.4899  0.7820  1.0476
11391SOL    HW235307   4.394   3.417   4.837 -1.1074 -2.8426 -0.8332
11392SOL     OW35308   7.875   4.169   3.717  0.2502 -0.3679 -0.4272
11392SOL    HW135309   7.932   4.204   3.648  0.0372  0.3348 -0.2490
11392SOL    HW235310   7.929   4.104   3.761  1.5080  1.3974  0.7766
11393SOL     OW35311   0.017   5.492   4.186 -0.0712  0.1599  0.4439
11393SOL    HW135312   0.029   5.469   4.095  2.7934 -0.7177  0.9433
11393SOL    HW235313  -0.039   5.570   4.184  0.9863  0.9430 -2.1370
11394SOL     OW35314   1.992   5.472   4.029  0.5011 -0.0173  0.3337
11394SOL    HW135315   2.013   5.481   3.936  2.6212 -0.1619  0.7442
11394SOL    HW235316   1.917   5.413   4.031 -0.8378  1.5159 -1.3447
11395SOL     OW35317   9.028   6.459   4.099 -0.1851 -0.2473  0.0508
11395SOL    HW135318   9.037   6.514   4.021  0.1084 -0.6119 -0.1749
11395SOL    HW235319   9.022   6.370   4.065  0.6325 -0.4773  0.4801
11396SOL     OW35320   5.716   6.016   4.758 -0.0524  0.0739  0.3954
11396SOL    HW135321   5.734   6.022   4.852 -0.5214  1.7581  0.4018
11396SOL    HW235322   5.622   6.028   4.751  0.2452  2.3463 -0.4315
11397SOL     OW35323   8.764   7.332   6.449 -0.1555  0.2170 -0.0840
11397SOL    HW135324   8.737   7.261   6.508  1.5828 -2.0413 -1.8183
11397SOL    HW235325   8.859   7.337   6.462 -0.1752  1.8795 -0.4335
11398SOL     OW35326   5.679   6.263   0.323  0.0392  0.1522 -0.0878
11398SOL    HW135327   5.624   6.204   0.376  0.0497  0.8336  0.7108
11398SOL    HW235328   5.675   6.226   0.235  0.0810 -1.0661  0.3943
11399SOL     OW35329   2.033   2.811   3.492  0.1473 -0.2642  0.3297
11399SOL    HW135330   2.076   2.882   3.540 -0.2425 -0.2527  0.6676
11399SOL    HW235331   2.049   2.832   3.400 -0.6793  0.7364  0.3892
11400SOL     OW35332   4.753   0.039   5.806 -0.2167 -0.1086  0.3496
11400SOL    HW135333   4.669   0.061   5.847  0.1810  1.3878  0.4269
11400SOL    HW235334   4.782  -0.039   5.852 -1.7813 -0.9379 -0.0060
11401SOL     OW35335   6.111   5.467   1.610 -0.0023 -0.2109  0.7016
11401SOL    HW135336   6.179   5.400   1.597 -0.8481 -1.3924  2.1278
11401SOL    HW235337   6.146   5.523   1.679  1.4527  1.9320 -1.6158
11402SOL     OW35338   0.747   4.664   1.943  0.2439  0.2941  0.0991
11402SOL    HW135339   0.725   4.755   1.961 -0.4189 -0.1607  1.7925
11402SOL    HW235340   0.841   4.658   1.960  0.2954  0.6703 -0.0514
11403SOL     OW35341   6.246   1.348   0.211 -0.4762  0.2103 -0.3729
11403SOL    HW135342   6.220   1.391   0.129 -0.9802 -1.3997 -1.0895
11403SOL    HW235343   6.244   1.255   0.191 -0.8589 -0.2358  1.5553
11404SOL     OW35344   4.820   7.455   0.364 -0.4616 -0.8085  0.6334
11404SOL    HW135345   4.855   7.511   0.433 -0.0654  1.5533 -1.3573
11404SOL    HW235346   4.895   7.437   0.308 -1.1066 -1.3189 -0.0756
11405SOL     OW35347   7.013   0.496   1.444 -0.6159  0.4015 -0.5937
11405SOL    HW135348   7.037   0.570   1.388  1.6843 -1.2460 -1.9712
11405SOL    HW235349   6.985   0.536   1.527  1.3820  2.8031 -0.9719
11406SOL     OW35350   7.271   0.257   6.393 -0.0109  0.3075  0.3259
11406SOL    HW135351   7.271   0.203   6.472 -1.9190 -4.0801 -2.2633
11406SOL    HW235352   7.361   0.251   6.359  0.3897  0.8276  1.2674
11407SOL     OW35353   6.360   2.378   6.521  0.2183 -0.2451  0.0882
11407SOL    HW135354   6.280   2.410   6.561  1.3643  0.1476  2.1925
11407SOL    HW235355   6.348   2.395   6.427 -2.4926 -1.0665  0.2108
11408SOL     OW35356   7.839   2.440   1.261  0.0306 -0.0864 -0.0777
11408SOL    HW135357   7.834   2.409   1.171 -1.2407  1.0453 -0.4279
11408SOL    HW235358   7.899   2.515   1.257 -0.5995  0.4200 -0.1275
11409SOL     OW35359   4.073   4.672   5.259  0.8232 -0.3200  0.2045
11409SOL    HW135360   4.075   4.685   5.164  0.8877 -1.5083  0.0275
11409SOL    HW235361   4.149   4.615   5.277  0.3650 -0.7395  0.8560
11410SOL     OW35362   1.870   1.379   5.121 -0.5890  0.1332  0.4048
11410SOL    HW135363   1.834   1.325   5.191 -0.3321  0.9748  1.2103
11410SOL    HW235364   1.800   1.382   5.055 -1.0815 -0.1670  0.8992
11411SOL     OW35365   0.867   1.151   5.945 -0.2794  0.7327 -0.4880
11411SOL    HW135366   0.819   1.204   6.009 -1.9935  0.6122 -1.6171
11411SOL    HW235367   0.911   1.084   5.997 -1.1893  0.9612  0.6010
11412SOL     OW35368   4.221   5.789   4.632  0.8317  0.3501  0.4201
11412SOL    HW135369   4.140   5.770   4.584  2.0566 -1.7933 -0.9733
11412SOL    HW235370   4.202   5.869   4.680 -1.4932  0.9724 -1.3321
11413SOL     OW35371   0.393   2.248   1.388  0.4200  0.4269 -0.2350
11413SOL    HW135372   0.403   2.215   1.477  0.9715  0.8997 -0.1153
11413SOL    HW235373   0.438   2.332   1.389  1.4806 -0.1042 -1.2830
11414SOL     OW35374   3.842   3.467   1.820 -0.0383  0.2253  0.3639
11414SOL    HW135375   3.916   3.504   1.772 -0.0183  1.1115  1.0613
11414SOL    HW235376   3.861   3.485   1.912 -0.5356 -0.6166  0.6460
11415SOL     OW35377   7.518   8.249   4.246  0.0062 -1.0858  0.5344
11415SOL    HW135378   7.573   8.231   4.322  1.3567  1.9960  0.4124
11415SOL    HW235379   7.574   8.229   4.171  0.0400 -0.4446  0.3873
11416SOL     OW35380   2.544   8.949   4.444 -0.1739  0.1626  0.1211
11416SOL    HW135381   2.522   8.868   4.397  2.0661 -0.2713 -0.2822
11416SOL    HW235382   2.481   9.013   4.411 -0.6866 -0.9235 -1.1002
11417SOL     OW35383   9.009   4.262   3.623 -0.1149  0.5407  0.0205
11417SOL    HW135384   9.036   4.237   3.535 -1.6703 -1.6536  0.0752
11417SOL    HW235385   8.914   4.268   3.619 -0.2138  0.4272  1.5351
11418SOL     OW35386   7.075   6.579   4.200  0.3180  0.4514  0.2311
11418SOL    HW135387   7.002   6.627   4.240  1.2059  0.9332  1.3253
11418SOL    HW235388   7.151   6.636   4.213  0.9418 -0.1595 -0.6563
11419SOL     OW35389   7.392   5.439   8.689  0.1393  0.3655 -0.3168
11419SOL    HW135390   7.441   5.374   8.639  1.1950  1.0668 -0.2403
11419SOL    HW235391   7.364   5.504   8.624  1.6237  1.3457 -0.0304
11420SOL     OW35392   3.026   2.139   6.459  0.1750 -0.0965 -0.3124
11420SOL    HW135393   3.085   2.187   6.517  1.2102 -0.4156 -1.0778
11420SOL    HW235394   3.001   2.202   6.392 -1.1664  0.3249  0.5499
11421SOL     OW35395   1.513   8.989   5.969  0.6962 -0.2992  0.2203
11421SOL    HW135396   1.547   9.016   6.054  2.5217 -0.4261 -0.4371
11421SOL    HW235397   1.557   8.906   5.951 -0.1413 -0.5831 -0.5773
11422SOL     OW35398   7.091   8.421   2.478  0.1808 -0.1052 -0.5178
11422SOL    HW135399   7.152   8.402   2.549 -0.5070 -0.2212  0.0610
11422SOL    HW235400   7.056   8.335   2.452 -2.0088  0.1546  1.2581
11423SOL     OW35401   8.045   2.128   1.080 -0.0382  0.2694  0.2089
11423SOL    HW135402   8.049   2.067   1.006  0.9913  1.0237 -0.3862
11423SOL    HW235403   8.066   2.213   1.041  0.2100  0.7265  1.3296
11424SOL     OW35404   6.363   2.323   4.785  0.0569  0.3295  0.0022
11424SOL    HW135405   6.335   2.414   4.793  1.3366  0.7392 -0.0812
11424SOL    HW235406   6.404   2.302   4.868  2.3228  0.7536 -0.9381
11425SOL     OW35407   1.049   5.747   1.228 -0.6077 -0.0683 -0.4994
11425SOL    HW135408   1.018   5.756   1.318 -1.0213 -0.3248 -0.6149
11425SOL    HW235409   1.014   5.663   1.199 -1.1948  0.4071 -1.1822
11426SOL     OW35410   7.978   2.589   5.510 -0.2093  0.6887  0.3315
11426SOL    HW135411   8.060   2.542   5.525 -0.5963 -0.3772 -0.7425
11426SOL    HW235412   7.910   2.521   5.519 -0.7111  0.7734 -2.2615
11427SOL     OW35413   0.910   7.646   1.982 -0.3335  0.1850  0.3796
11427SOL    HW135414   0.901   7.703   2.059  0.2943 -1.8434  2.0638
11427SOL    HW235415   0.999   7.663   1.951 -0.3283  0.4928  0.5574
11428SOL     OW35416   8.054   0.597   2.312 -0.5780  0.2405  0.4042
11428SOL    HW135417   8.031   0.668   2.372  1.6476  0.0132  1.6370
11428SOL    HW235418   8.128   0.553   2.355  0.5514 -0.4629 -2.1218
11429SOL     OW35419   2.487   8.949   8.914  0.2440 -0.4734  0.3515
11429SOL    HW135420   2.549   8.877   8.930 -0.3834 -0.8971  0.9253
11429SOL    HW235421   2.517   9.020   8.970  0.8839 -0.2617 -0.2374
11430SOL     OW35422   3.041   3.460   1.210  0.0733  0.0609 -0.3575
11430SOL    HW135423   2.972   3.519   1.242 -1.0810 -0.9305 -0.9002
11430SOL    HW235424   3.106   3.518   1.172  0.3315  1.1224  1.5878
11431SOL     OW35425   6.389   1.337   8.190 -0.0145  0.0105  0.7572
11431SOL    HW135426   6.477   1.375   8.190  1.0719 -2.3569  0.5156
11431SOL    HW235427   6.350   1.368   8.108  1.3692 -0.5219 -0.1418
11432SOL     OW35428   2.333   5.766   7.345  0.3381 -0.2013 -0.1218
11432SOL    HW135429   2.409   5.810   7.383  1.1856 -0.6037 -1.2974
11432SOL    HW235430   2.336   5.789   7.252  0.0093 -1.6080 -0.4997
11433SOL     OW35431   4.344   4.335   2.294 -0.0825  0.0460 -0.1971
11433SOL    HW135432   4.357   4.318   2.201  0.5079  2.4236 -0.6151
11433SOL    HW235433   4.255   4.370   2.301 -0.4445 -0.9382  0.2805
11434SOL     OW35434   1.130   3.270   0.812 -0.2476 -0.4517 -0.1888
11434SOL    HW135435   1.199   3.335   0.813 -0.4172 -0.2320 -1.1128
11434SOL    HW235436   1.117   3.251   0.719 -1.2760 -0.6445 -0.0214
11435SOL     OW35437   6.060   2.115   1.636 -0.5710  0.5728 -0.2752
11435SOL    HW135438   6.132   2.067   1.595 -1.3385  0.9046 -2.0689
11435SOL    HW235439   6.088   2.125   1.727  2.6388  2.5230 -1.3083
11436SOL     OW35440   6.887   1.399   2.678 -0.3803 -0.0045 -0.2594
11436SOL    HW135441   6.827   1.391   2.752 -0.2854  1.6412  0.0319
11436SOL    HW235442   6.847   1.464   2.621  0.8077  0.6969 -0.3420
11437SOL     OW35443   2.594   0.716   0.781  0.3030 -0.3748 -0.5096
11437SOL    HW135444   2.550   0.743   0.862  0.4366 -0.4924 -0.3976
11437SOL    HW235445   2.557   0.773   0.714  0.5410  0.0424 -0.2869
11438SOL     OW35446   6.700   8.155   7.007 -0.9079  0.9211  0.6577
11438SOL    HW135447   6.769   8.109   7.056 -1.9881  0.6063  1.9430
11438SOL    HW235448   6.718   8.248   7.024 -1.1164  0.8235  1.4635
11439SOL     OW35449   7.492   7.655   7.887 -0.4207 -0.3632  0.0500
11439SOL    HW135450   7.493   7.609   7.971 -0.6679 -0.8131 -0.1905
11439SOL    HW235451   7.431   7.728   7.900  0.3286  0.1886  0.5806
11440SOL     OW35452   2.406   4.297   1.193  0.0085  0.5924 -0.2193
11440SOL    HW135453   2.326   4.339   1.162 -0.8204  0.3014  1.4129
11440SOL    HW235454   2.418   4.331   1.281  1.9199  0.9123 -0.5640
11441SOL     OW35455   7.373   0.027   8.906 -0.3808  0.7273  0.5911
11441SOL    HW135456   7.403   0.117   8.906  0.3354  0.4908  0.5759
11441SOL    HW235457   7.400  -0.007   8.821  1.4178 -0.1781  1.4822
11442SOL     OW35458   0.477   8.432   5.053  0.0603 -0.5437  0.4134
11442SOL    HW135459   0.568   8.462   5.061  0.4688 -2.0363  1.7563
11442SOL    HW235460   0.425   8.500   5.095  0.8409 -1.0020  2.1923
11443SOL     OW35461   4.652   2.333   6.665  0.4555  0.0479 -0.1015
11443SOL    HW135462   4.668   2.425   6.687 -0.2335  0.0789  0.2763
11443SOL    HW235463   4.732   2.306   6.619 -0.1518  1.4514 -2.1646
11444SOL     OW35464   3.042   1.438   8.701  0.4068  0.4582  0.1914
11444SOL    HW135465   2.958   1.393   8.696  2.0519 -2.8375 -1.3298
11444SOL    HW235466   3.044   1.493   8.623 -0.3474  0.6689  0.3082
11445SOL     OW35467   7.407   6.318   8.622 -0.1341 -0.0717  0.1917
11445SOL    HW135468   7.469   6.387   8.647 -0.6088  0.1037  0.9501
11445SOL    HW235469   7.329   6.366   8.592 -0.8464 -0.2273  1.6757
11446SOL     OW35470   5.242   8.060   2.140 -0.1402  0.2736  0.1178
11446SOL    HW135471   5.147   8.059   2.132 -0.0486 -1.3323 -1.1968
11446SOL    HW235472   5.263   7.978   2.184  0.4890  2.0986  3.6263
11447SOL     OW35473   2.589   3.476   6.379  0.0051 -0.1492  0.2251
11447SOL    HW135474   2.600   3.486   6.285  1.2903 -1.2367  0.2335
11447SOL    HW235475   2.507   3.522   6.399 -0.6064 -0.4212 -1.5017
11448SOL     OW35476   6.943   8.223   0.653  0.1104  0.4421  0.3559
11448SOL    HW135477   6.968   8.132   0.637 -1.7447  0.2273 -1.7811
11448SOL    HW235478   6.989   8.246   0.734  0.1975 -2.5371  1.2883
11449SOL     OW35479   4.946   4.706   5.077 -0.1912 -0.2110 -0.0826
11449SOL    HW135480   4.966   4.675   4.989  0.0112  1.0527 -0.4967
11449SOL    HW235481   4.963   4.800   5.074 -1.7148  0.1308  0.8612
11450SOL     OW35482   3.130   8.688   2.868 -0.0949  0.4355 -0.6252
11450SOL    HW135483   3.170   8.660   2.950  1.0065  0.4530 -1.1382
11450SOL    HW235484   3.202   8.726   2.818 -0.5034 -0.6174 -2.0746
11451SOL     OW35485   4.379   2.785   0.047  0.1982  0.6368 -0.2249
11451SOL    HW135486   4.357   2.871   0.010  2.0063  1.9178  1.4305
11451SOL    HW235487   4.474   2.786   0.054  0.1682 -1.0569  0.8754
11452SOL     OW35488   4.984   4.496   1.061 -0.1295 -0.3685  0.0495
11452SOL    HW135489   4.988   4.532   0.973 -0.8413  0.8790  0.4959
11452SOL    HW235490   4.960   4.571   1.116 -1.2017 -1.4317  1.0932
11453SOL     OW35491   7.872   0.463   5.718  0.5838 -0.2723 -0.3134
11453SOL    HW135492   7.917   0.543   5.692  0.1934 -0.3477 -1.2740
11453SOL    HW235493   7.786   0.492   5.749  0.6258 -0.2811 -0.1869
11454SOL     OW35494   9.062   2.246   5.285 -0.5223  0.1243  0.1521
11454SOL    HW135495   8.990   2.254   5.223 -1.0428 -0.8240  0.6193
11454SOL    HW235496   9.056   2.156   5.318  1.6762 -0.4277 -0.7880
11455SOL     OW35497   6.395   5.764   8.193  0.2679  0.2886 -0.5311
11455SOL    HW135498   6.478   5.779   8.238  0.2339  0.5149 -0.5400
11455SOL    HW235499   6.336   5.830   8.229 -0.1575 -0.4266  0.1090
11456SOL     OW35500   4.531   1.340   6.910 -0.5687 -0.1027 -0.1678
11456SOL    HW135501   4.592   1.322   6.982 -1.0497 -1.4970 -0.0955
11456SOL    HW235502   4.447   1.307   6.940 -0.9213 -0.0936 -1.1049
11457SOL     OW35503   2.210   1.605   2.531 -0.2055  0.0441  0.1207
11457SOL    HW135504   2.120   1.582   2.511 -0.2935 -0.8052  1.3581
11457SOL    HW235505   2.248   1.632   2.448 -0.9914 -1.6525 -0.8260
11458SOL     OW35506   3.060   8.339   8.286  0.0191 -0.4057 -0.5723
11458SOL    HW135507   3.041   8.321   8.378 -0.0552  0.4629 -0.4149
11458SOL    HW235508   3.076   8.252   8.248  0.5791 -0.7359  0.3740
11459SOL     OW35509   1.416   6.729   5.676 -0.0428  0.2388 -0.5063
11459SOL    HW135510   1.502   6.730   5.720  1.1135 -0.1272 -2.6340
11459SOL    HW235511   1.403   6.820   5.648 -1.6684  0.9117  2.0400
11460SOL     OW35512   7.219   5.108   3.985 -0.1544 -0.1308 -0.0520
11460SOL    HW135513   7.204   5.016   3.962  2.4828 -0.4111 -1.0482
11460SOL    HW235514   7.185   5.157   3.910  0.1851 -0.4438 -0.4158
11461SOL     OW35515   4.040   0.804   5.711  0.2984  0.1256  0.1727
11461SOL    HW135516   4.086   0.880   5.744  2.2764 -0.8450 -0.2385
11461SOL    HW235517   3.949   0.833   5.702  1.4074  3.2903 -2.5170
11462SOL     OW35518   6.862   2.147   2.669 -0.1254 -0.0643 -0.6097
11462SOL    HW135519   6.916   2.226   2.671 -0.1041 -0.0863 -0.3608
11462SOL    HW235520   6.922   2.078   2.641  0.0752 -0.1656  0.0569
11463SOL     OW35521   5.410   8.482   2.530  0.6226  0.3995 -0.6803
11463SOL    HW135522   5.326   8.507   2.571 -0.0540 -0.5609 -1.4373
11463SOL    HW235523   5.394   8.395   2.494  2.5015 -0.5904  0.7202
11464SOL     OW35524   1.980   7.489   2.916  0.2213  0.0824 -0.1105
11464SOL    HW135525   2.000   7.577   2.947 -1.5954  0.6975 -0.5431
11464SOL    HW235526   1.896   7.468   2.956 -0.3175 -0.6463 -1.5601
11465SOL     OW35527   2.223   6.150   5.957  0.1940  0.6817 -0.0024
11465SOL    HW135528   2.185   6.062   5.955  0.9960  0.1841  2.6498
11465SOL    HW235529   2.265   6.160   5.871 -2.7422 -0.1227 -1.6750
11466SOL     OW35530   8.773   7.899   0.502 -0.7465 -0.6427  0.3892
11466SOL    HW135531   8.828   7.929   0.574 -1.0573  0.5411  0.1529
11466SOL    HW235532   8.710   7.840   0.543 -0.1637 -0.9444  0.8755
11467SOL     OW35533   5.530   4.949   6.784  0.6945 -0.2249 -0.0716
11467SOL    HW135534   5.555   5.030   6.829 -1.3052 -0.8874  2.4232
11467SOL    HW235535   5.454   4.973   6.732 -1.9481 -0.9922  3.1455
11468SOL     OW35536   2.939   2.215   7.912  0.0315 -0.4804 -0.5691
11468SOL    HW135537   3.013   2.193   7.856  0.2252  0.7196 -0.8120
11468SOL    HW235538   2.888   2.278   7.861 -0.8934 -0.9119 -0.2055
11469SOL     OW35539   4.033   5.536   2.783 -0.2851  0.0552 -0.5658
11469SOL    HW135540   4.075   5.591   2.717  0.7529 -0.1392 -0.0997
11469SOL    HW235541   4.053   5.446   2.755  0.5755 -0.0231  0.2384
11470SOL     OW35542   3.700   3.291   1.427 -0.2587 -0.5170  0.3794
11470SOL    HW135543   3.703   3.341   1.345  1.5543 -1.0446  0.0891
11470SOL    HW235544   3.617   3.317   1.468  0.3035  2.2760 -0.0571
11471SOL     OW35545   7.491   4.016   0.796 -0.0275  0.5612 -0.3520
11471SOL    HW135546   7.491   4.091   0.856  0.2632 -0.9679  1.6810
11471SOL    HW235547   7.584   3.999   0.779 -0.0758  0.3333 -0.3869
11472SOL     OW35548   2.168   6.623   5.275 -0.0576 -0.6651 -0.1150
11472SOL    HW135549   2.112   6.546   5.261  0.7925 -1.1531 -1.0068
11472SOL    HW235550   2.176   6.662   5.188  1.7233 -1.1491 -0.2153
11473SOL     OW35551   1.240   5.628   1.049  0.3738 -0.4499 -0.4354
11473SOL    HW135552   1.173   5.681   1.093 -1.8367 -0.0131 -3.9542
11473SOL    HW235553   1.296   5.692   1.005  0.0641 -0.8837 -1.5038
11474SOL     OW35554   6.970   6.395   7.369 -0.1253  0.1724 -0.5727
11474SOL    HW135555   6.987   6.484   7.399  2.5598 -0.5245  0.2480
11474SOL    HW235556   6.954   6.404   7.275  1.8003  1.3880 -0.8306
11475SOL     OW35557   6.878   5.932   4.737 -0.5753  0.5779 -0.4236
11475SOL    HW135558   6.972   5.916   4.739 -0.7785 -0.7983 -0.5390
11475SOL    HW235559   6.839   5.846   4.757 -1.8226  0.6534 -2.3029
11476SOL     OW35560   8.294   3.828   3.712 -0.0506 -0.1534 -0.5456
11476SOL    HW135561   8.353   3.799   3.642  0.5524  0.3193 -0.2368
11476SOL    HW235562   8.345   3.820   3.792 -0.6860 -0.5340 -0.1665
11477SOL     OW35563   5.391   7.330   6.464 -0.0140  0.7321 -0.0353
11477SOL    HW135564   5.397   7.247   6.416  0.6872 -0.5403  2.1570
11477SOL    HW235565   5.313   7.372   6.427 -1.1981 -1.5140 -0.2776
11478SOL     OW35566   3.595   3.764   3.302 -0.2995  0.1591 -0.5482
11478SOL    HW135567   3.525   3.735   3.361 -0.2812  0.6951 -0.2550
11478SOL    HW235568   3.676   3.737   3.346 -0.3266 -0.8782 -1.1121
11479SOL     OW35569   6.666   0.687   4.980 -0.5896  0.1311 -0.2683
11479SOL    HW135570   6.661   0.654   5.070 -0.0590  1.9543  0.4714
11479SOL    HW235571   6.679   0.781   4.990 -1.8281  0.5649 -2.2818
11480SOL     OW35572   4.540   7.027   0.308  0.1246 -0.0296 -0.3223
11480SOL    HW135573   4.562   7.113   0.273 -1.5392  0.6143  0.1292
11480SOL    HW235574   4.608   7.010   0.374  0.1568  1.2039 -0.0084
11481SOL     OW35575   3.002   8.001   8.521  0.1670  0.2649 -0.4089
11481SOL    HW135576   2.954   8.078   8.552  0.4686 -0.0659  0.9730
11481SOL    HW235577   2.984   7.934   8.587  3.7550  0.5772  1.1657
11482SOL     OW35578   7.649   4.883   0.618 -0.1039  0.4628 -0.0207
11482SOL    HW135579   7.648   4.877   0.522 -2.3549  0.1678 -0.0084
11482SOL    HW235580   7.603   4.805   0.648 -0.7238  1.2886  1.2434
11483SOL     OW35581   4.449   3.791   0.108  0.1959 -0.1527 -0.2334
11483SOL    HW135582   4.462   3.734   0.184 -0.0846  0.1927  0.0786
11483SOL    HW235583   4.537   3.823   0.088  0.3264 -0.5331 -0.2884
11484SOL     OW35584   7.958   1.241   7.381  0.2233  0.2201  0.3014
11484SOL    HW135585   7.870   1.273   7.363  0.1388  1.0535  1.9859
11484SOL    HW235586   7.945   1.172   7.446  0.7892  0.1513  0.3479
11485SOL     OW35587   1.663   3.116   2.335  0.0216  0.0488  0.3925
11485SOL    HW135588   1.611   3.097   2.414 -1.1529  0.1671 -0.3219
11485SOL    HW235589   1.653   3.211   2.323 -0.6406 -0.1149 -0.4404
11486SOL     OW35590   0.778   0.712   8.454  0.1259  0.3374 -0.1707
11486SOL    HW135591   0.811   0.632   8.413  2.3561  2.0976 -2.1102
11486SOL    HW235592   0.845   0.735   8.518  0.0078  1.1398 -0.3248
11487SOL     OW35593   1.854   3.120   2.585 -0.3356  0.1177  0.1969
11487SOL    HW135594   1.889   3.174   2.515  0.7335 -0.1192  0.5375
11487SOL    HW235595   1.819   3.042   2.541 -3.4259  1.7263 -0.4977
11488SOL     OW35596   0.244   3.178   4.114  0.0159 -0.5524  0.1398
11488SOL    HW135597   0.261   3.211   4.026  0.1193  0.0482  0.3862
11488SOL    HW235598   0.239   3.083   4.103 -0.7818 -0.4353 -0.6548
11489SOL     OW35599   1.540   5.150   5.783 -0.2972  0.0476 -0.6036
11489SOL    HW135600   1.446   5.129   5.783  0.0771 -1.8859  0.4277
11489SOL    HW235601   1.578   5.090   5.718  0.1783  1.1499 -1.3642
11490SOL     OW35602   8.628   8.392   8.729 -0.2985 -0.3205 -0.3594
11490SOL    HW135603   8.559   8.338   8.689  0.1763  0.3063 -2.1041
11490SOL    HW235604   8.669   8.334   8.793 -0.4542 -1.7252 -1.4806
11491SOL     OW35605   2.542   6.490   6.560 -0.0444 -0.4819  0.0413
11491SOL    HW135606   2.631   6.482   6.594 -0.2642 -1.0251  0.5116
11491SOL    HW235607   2.496   6.543   6.626  0.0260  0.1396 -0.3986
11492SOL     OW35608   4.720   6.064   4.130  0.2115 -0.1823 -0.0952
11492SOL    HW135609   4.644   6.005   4.127  0.4848 -0.5263 -2.0490
11492SOL    HW235610   4.754   6.055   4.219 -0.7230 -1.7419  0.1522
11493SOL     OW35611   0.290   5.762   4.137 -0.0626 -0.1203 -0.1782
11493SOL    HW135612   0.317   5.683   4.089 -0.8851 -0.1035 -0.6739
11493SOL    HW235613   0.251   5.728   4.218  0.7722 -0.1663  0.2226
11494SOL     OW35614   1.639   3.252   6.376 -0.4159 -0.0905 -0.5970
11494SOL    HW135615   1.555   3.205   6.370 -0.8315  0.5709 -0.0177
11494SOL    HW235616   1.704   3.182   6.382 -0.9867 -0.6089 -0.2525
11495SOL     OW35617   0.900   0.069   1.174  0.2961 -0.3019 -0.4466
11495SOL    HW135618   0.835   0.012   1.132  0.5631 -0.7923 -0.2091
11495SOL    HW235619   0.981   0.017   1.174 -0.1451 -1.1764  2.4912
11496SOL     OW35620   6.974   2.111   8.162  0.0718  0.4604 -0.3384
11496SOL    HW135621   7.053   2.076   8.204 -1.1795 -1.9012  0.1979
11496SOL    HW235622   7.002   2.134   8.074  1.6508  0.9651  0.2541
11497SOL     OW35623   0.527   7.684   8.408  0.3138 -0.4634  0.2661
11497SOL    HW135624   0.575   7.758   8.446  0.6676 -0.4391 -0.2190
11497SOL    HW235625   0.491   7.719   8.326  0.7761 -0.9226 -0.1414
11498SOL     OW35626   1.582   6.702   3.932 -0.1996  0.5987  0.3032
11498SOL    HW135627   1.581   6.619   3.979 -1.1003  1.0891  1.1812
11498SOL    HW235628   1.500   6.746   3.957  0.7412  2.2186  0.7146
11499SOL     OW35629   2.099   7.249   2.214 -0.0660 -0.1782 -0.2273
11499SOL    HW135630   2.078   7.156   2.228  1.6277 -0.7365 -1.0674
11499SOL    HW235631   2.037   7.278   2.147  0.3335 -1.1575 -1.0578
11500SOL     OW35632   0.408   7.227   8.720 -0.3519  0.3909 -0.3725
11500SOL    HW135633   0.317   7.198   8.732 -0.3650  0.9934  1.1886
11500SOL    HW235634   0.406   7.320   8.742  0.7214  0.3115  0.0923
11501SOL     OW35635   0.144   4.042   6.260  0.2487  0.4286  0.5351
11501SOL    HW135636   0.188   3.992   6.328 -0.9677  0.9220  1.7405
11501SOL    HW235637   0.112   4.120   6.304 -0.5854  0.7659 -0.6052
11502SOL     OW35638   2.765   3.393   2.228  0.7543 -0.0865 -0.1206
11502SOL    HW135639   2.845   3.383   2.176  1.4613 -1.9604  1.1851
11502SOL    HW235640   2.791   3.368   2.317 -0.9222  0.8422  0.6821
11503SOL     OW35641   4.345   2.302   6.628  0.0509 -0.4958 -0.0678
11503SOL    HW135642   4.300   2.357   6.564 -0.8192 -0.1512  0.8203
11503SOL    HW235643   4.427   2.278   6.585 -0.5301 -0.3005 -1.3172
11504SOL     OW35644   2.362   8.940   5.057  0.5000  0.0198  0.3349
11504SOL    HW135645   2.337   8.962   5.147  0.3001  0.7907  0.1002
11504SOL    HW235646   2.369   8.845   5.057 -3.4188 -0.4332  0.2104
11505SOL     OW35647   5.497   8.413   5.777 -0.2015  0.4489  0.0777
11505SOL    HW135648   5.429   8.475   5.801 -0.4409 -0.1451  0.9419
11505SOL    HW235649   5.491   8.407   5.681 -1.7157 -0.0043  0.1826
11506SOL     OW35650   8.596   0.572   4.364 -0.2858  0.1437  0.0669
11506SOL    HW135651   8.640   0.605   4.442 -0.4221 -0.1781  0.2821
11506SOL    HW235652   8.536   0.642   4.339 -0.4122  0.1514  0.3887
11507SOL     OW35653   1.838   5.357   6.920  0.0705  0.0737  0.0900
11507SOL    HW135654   1.827   5.420   6.849 -1.4703 -0.5342 -0.2299
11507SOL    HW235655   1.760   5.367   6.974  0.5516 -0.4795  0.9157
11508SOL     OW35656   4.348   8.387   3.251 -0.2500  0.8117 -0.4814
11508SOL    HW135657   4.414   8.326   3.219 -0.7237  0.0141  0.0319
11508SOL    HW235658   4.382   8.418   3.335 -1.1312 -0.6489  0.4500
11509SOL     OW35659   2.787   8.617   5.948  0.1490 -0.0828 -0.2626
11509SOL    HW135660   2.730   8.661   6.011  0.2327 -0.0425 -0.2155
11509SOL    HW235661   2.859   8.679   5.934 -0.2372  0.2149 -0.9458
11510SOL     OW35662   1.320   5.350   2.623  0.2167  0.1689 -0.1151
11510SOL    HW135663   1.325   5.262   2.585  0.8474 -0.5142  1.4549
11510SOL    HW235664   1.253   5.394   2.571  0.8238 -0.7810 -1.7953
11511SOL     OW35665   8.170   8.615   4.963  0.5909  0.1438 -0.3776
11511SOL    HW135666   8.106   8.552   4.929  0.6620 -0.7991  1.1508
11511SOL    HW235667   8.234   8.624   4.893 -0.3962 -0.0669 -1.3355
11512SOL     OW35668   7.430   0.039   7.022 -0.3541  0.2917  0.3725
11512SOL    HW135669   7.413  -0.004   7.105 -0.6966 -0.8728 -0.2852
11512SOL    HW235670   7.374   0.117   7.024  0.9033  1.2181  1.9219
11513SOL     OW35671   1.323   3.665   6.319 -0.2449  0.4396 -0.3211
11513SOL    HW135672   1.282   3.583   6.291  1.9574  0.1240 -3.2178
11513SOL    HW235673   1.357   3.703   6.238  0.6039  3.2039  1.2030
11514SOL     OW35674   2.168   1.986   1.835 -0.3783  0.3875  0.1829
11514SOL    HW135675   2.182   2.080   1.846 -0.6479  0.7283 -2.0346
11514SOL    HW235676   2.147   1.975   1.743  0.6283 -1.9899  0.1670
11515SOL     OW35677   1.336   1.583   0.853 -0.1518 -0.5407  0.8370
11515SOL    HW135678   1.260   1.632   0.821  1.2553  0.9080 -0.4730
11515SOL    HW235679   1.354   1.518   0.785 -0.0448 -0.6897  1.0054
11516SOL     OW35680   4.877   1.562   8.206  0.1460 -0.0843 -0.1840
11516SOL    HW135681   4.811   1.549   8.138  0.6393 -0.0678 -0.6749
11516SOL    HW235682   4.854   1.499   8.275  0.5306 -1.2116 -1.0438
11517SOL     OW35683   2.996   8.131   1.988  0.1259 -0.1290  0.2999
11517SOL    HW135684   2.936   8.205   1.979  0.4280 -0.1470 -3.4743
11517SOL    HW235685   3.076   8.160   1.942  0.6582 -2.3438 -0.2695
11518SOL     OW35686   9.063   2.368   6.820  0.0060  0.2576 -0.1911
11518SOL    HW135687   8.975   2.342   6.792  0.3887 -0.1011 -1.0867
11518SOL    HW235688   9.065   2.348   6.914 -1.5750  2.2007  0.3505
11519SOL     OW35689   2.236   5.308   1.470  0.1687  0.0500 -0.5959
11519SOL    HW135690   2.206   5.263   1.391 -0.2262  0.6807 -0.8113
11519SOL    HW235691   2.222   5.401   1.452  0.2176  0.2124  0.1606
11520SOL     OW35692   8.845   5.670   4.686 -0.1920  0.7304  0.1115
11520SOL    HW135693   8.766   5.616   4.695 -1.6013  2.5310 -0.7803
11520SOL    HW235694   8.846   5.697   4.594  2.6064 -0.8129 -0.4358
11521SOL     OW35695   5.101   1.657   0.480 -0.1141  0.2617 -0.0089
11521SOL    HW135696   5.178   1.694   0.436  0.4974 -1.3130 -0.3089
11521SOL    HW235697   5.081   1.720   0.549  0.0393  1.8517 -1.3440
11522SOL     OW35698   2.443   8.130   3.348 -0.7112  0.2790  0.2288
11522SOL    HW135699   2.467   8.054   3.294 -1.0280  0.4443 -0.1467
11522SOL    HW235700   2.363   8.103   3.392 -0.9590  0.4809 -0.0920
11523SOL     OW35701   3.967   6.212   4.138 -0.4214  0.1149  0.3230
11523SOL    HW135702   4.020   6.266   4.197  1.0023  0.6328 -1.3388
11523SOL    HW235703   3.964   6.126   4.180  0.5582  0.4611  1.1372
11524SOL     OW35704   8.662   5.751   1.004 -0.5470 -0.0800  0.2843
11524SOL    HW135705   8.610   5.812   1.056 -1.1988 -2.0126  2.0421
11524SOL    HW235706   8.686   5.681   1.065  3.1645  0.0719 -0.7169
11525SOL     OW35707   1.709   2.967   4.523 -0.0913  0.1090  0.5027
11525SOL    HW135708   1.712   3.033   4.453  1.4205 -0.5779 -0.1314
11525SOL    HW235709   1.798   2.965   4.558 -0.2745 -1.1270  0.9495
11526SOL     OW35710   3.283   5.765   6.488  0.1548 -0.2766 -0.4105
11526SOL    HW135711   3.304   5.827   6.558  0.3249  0.2133 -0.8890
11526SOL    HW235712   3.313   5.808   6.408 -3.3887  0.9150 -1.3103
11527SOL     OW35713   6.592   8.972   0.583  1.3202 -0.3863  0.0074
11527SOL    HW135714   6.508   8.940   0.553  0.4118  2.7075 -1.1801
11527SOL    HW235715   6.591   8.958   0.678 -0.9920  0.4293  0.1682
11528SOL     OW35716   7.561   3.750   1.575  0.0703 -0.7169  0.4100
11528SOL    HW135717   7.485   3.694   1.587  1.3083 -2.0785  2.3744
11528SOL    HW235718   7.615   3.737   1.653  1.2480  1.9582  0.1912
11529SOL     OW35719   8.929   0.356   4.317  0.3468 -0.5434  0.2147
11529SOL    HW135720   8.943   0.285   4.253 -0.4572 -0.9756  0.5078
11529SOL    HW235721   8.839   0.344   4.346 -0.4074  1.6509 -1.0073
11530SOL     OW35722   4.064   1.038   0.056  0.3225  0.1647  0.0864
11530SOL    HW135723   4.098   1.082   0.134 -0.1452  1.7623 -0.5727
11530SOL    HW235724   4.133   1.048  -0.010  0.7301 -1.2071  0.2718
11531SOL     OW35725   2.421   5.939   6.634 -0.0960  0.5500 -0.0185
11531SOL    HW135726   2.366   5.999   6.684 -1.1344 -0.1386 -0.2826
11531SOL    HW235727   2.404   5.853   6.673  0.3693  0.2504 -0.4646
11532SOL     OW35728   1.791   4.833   3.691  0.3138 -0.1190  0.2513
11532SOL    HW135729   1.775   4.805   3.781 -0.7858 -0.3359 -0.0052
11532SOL    HW235730   1.833   4.757   3.650 -1.0762 -0.8042  0.0319
11533SOL     OW35731   4.561   1.287   8.092  0.3063 -0.4948  0.1753
11533SOL    HW135732   4.576   1.379   8.067 -0.8177  0.0790  1.4862
11533SOL    HW235733   4.534   1.245   8.010  3.0576 -0.2486 -0.9600
11534SOL     OW35734   4.337   6.919   2.653 -0.0509  0.3155  0.3548
11534SOL    HW135735   4.427   6.934   2.626 -0.0225 -0.7783 -0.1933
11534SOL    HW235736   4.344   6.878   2.739  0.0407 -1.1225 -0.3159
11535SOL     OW35737   5.926   0.128   9.008 -0.2024 -0.1955  0.6473
11535SOL    HW135738   5.906   0.186   9.081 -0.5128  0.4957  0.0356
11535SOL    HW235739   5.887   0.044   9.032 -1.1412  0.2830  0.8586
11536SOL     OW35740   4.025   0.281   9.069 -0.4047 -0.4056  0.2348
11536SOL    HW135741   3.941   0.252   9.102 -0.8143  0.9339  0.4122
11536SOL    HW235742   4.040   0.227   8.991 -1.5389 -0.4763  0.0578
11537SOL     OW35743   4.252   8.205   1.867 -0.2955 -1.0492 -0.1429
11537SOL    HW135744   4.221   8.246   1.948  0.2320 -0.4891 -0.2130
11537SOL    HW235745   4.249   8.111   1.884 -0.0588 -0.9293  0.5746
11538SOL     OW35746   9.074   4.148   1.774  0.8016  0.3310 -0.6962
11538SOL    HW135747   9.010   4.170   1.707  2.3649  0.9316 -2.0530
11538SOL    HW235748   9.027   4.091   1.835 -1.6803  2.5911 -0.3325
11539SOL     OW35749   0.222   6.312   3.947 -0.6585  0.1193  0.2473
11539SOL    HW135750   0.275   6.237   3.974 -1.3698 -1.7306 -2.9343
11539SOL    HW235751   0.133   6.290   3.976 -0.4067  1.3696  2.1450
11540SOL     OW35752   0.739   7.063   6.863 -0.2028  0.8316  0.0120
11540SOL    HW135753   0.829   7.033   6.878 -0.5050 -1.0102 -1.4951
11540SOL    HW235754   0.739   7.096   6.773 -1.4001 -0.9258 -0.6953
11541SOL     OW35755   6.625   8.251   6.547 -0.1665  0.3101 -0.1470
11541SOL    HW135756   6.669   8.333   6.569  1.3909 -0.7332  0.8930
11541SOL    HW235757   6.532   8.268   6.563 -0.5075  3.0580 -3.7471
11542SOL     OW35758   6.601   4.105   6.617  0.1741 -0.4453  0.2655
11542SOL    HW135759   6.665   4.171   6.592  1.8883 -1.5547  1.4836
11542SOL    HW235760   6.546   4.148   6.683 -0.7701  0.6974 -1.2098
11543SOL     OW35761   4.387   2.121   4.704 -0.0177 -0.1020 -0.0005
11543SOL    HW135762   4.339   2.041   4.726  0.4883 -1.0298 -1.9921
11543SOL    HW235763   4.388   2.122   4.608  2.7372  0.5757 -0.0556
11544SOL     OW35764   0.153   2.666   2.897  0.0662  0.5646 -0.1171
11544SOL    HW135765   0.100   2.745   2.886 -0.5272 -0.0211 -1.7847
11544SOL    HW235766   0.189   2.673   2.986 -1.6308  1.6916  0.5378
11545SOL     OW35767   5.610   1.118   0.241  0.3225  0.5311  0.2847
11545SOL    HW135768   5.701   1.093   0.227  0.5069  1.0241  0.5449
11545SOL    HW235769   5.577   1.140   0.154  0.6352  0.9331  0.2628
11546SOL     OW35770   7.333   2.938   4.819  0.3947  0.5860 -0.4385
11546SOL    HW135771   7.239   2.943   4.838  1.0224 -0.1574  3.9510
11546SOL    HW235772   7.363   3.029   4.819 -0.0526  0.7490  0.3727
11547SOL     OW35773   0.724   8.761   6.307 -0.1097  0.6280  0.3853
11547SOL    HW135774   0.681   8.843   6.281  1.5841  0.9214 -1.8378
11547SOL    HW235775   0.810   8.788   6.338  1.0374 -0.3114 -1.7623
11548SOL     OW35776   3.479   7.815   1.032  0.0445 -0.3041 -0.4765
11548SOL    HW135777   3.411   7.876   1.061  0.8916  1.0522 -1.2183
11548SOL    HW235778   3.546   7.871   0.993  1.1176 -1.6883 -0.6924
11549SOL     OW35779   4.261   2.723   3.169  0.3733 -0.6263 -0.2440
11549SOL    HW135780   4.293   2.637   3.196  0.3239 -0.6907 -0.3862
11549SOL    HW235781   4.206   2.753   3.241 -0.6020 -1.2517 -0.7022
11550SOL     OW35782   3.805   2.900   4.623 -0.5794 -0.5112  0.0318
11550SOL    HW135783   3.758   2.935   4.698  2.1126 -1.5537  2.3784
11550SOL    HW235784   3.883   2.956   4.615  0.4158 -1.9172 -0.4046
11551SOL     OW35785   2.747   3.024   6.845 -0.7543 -0.7475  0.6604
11551SOL    HW135786   2.783   3.102   6.803 -2.1054 -1.3099 -1.7510
11551SOL    HW235787   2.702   3.057   6.923  0.7864  0.5280  1.0549
11552SOL     OW35788   6.202   0.957   4.772  0.1279 -0.3201 -0.1181
11552SOL    HW135789   6.134   0.971   4.706 -1.5227  0.1591  1.6162
11552SOL    HW235790   6.247   0.878   4.744 -0.4147 -0.0496 -1.8858
11553SOL     OW35791   2.550   4.784   4.530  0.3943 -0.2859  0.3060
11553SOL    HW135792   2.586   4.717   4.588  0.9696  0.6073  1.0029
11553SOL    HW235793   2.515   4.851   4.588  0.6024  0.4295 -0.3723
11554SOL     OW35794   7.557   7.664   6.310 -0.2496 -0.0221 -0.5690
11554SOL    HW135795   7.506   7.587   6.285 -2.3871  1.4393 -1.0089
11554SOL    HW235796   7.641   7.629   6.340 -1.8880 -2.7098  1.3611
11555SOL     OW35797   7.870   0.268   1.753  0.5279 -0.1305 -0.2186
11555SOL    HW135798   7.933   0.261   1.681 -1.6544 -2.1303 -2.0941
11555SOL    HW235799   7.887   0.192   1.808  1.7690  1.0558  1.1369
11556SOL     OW35800   0.385   1.497   3.842  0.4375 -0.3212 -0.3686
11556SOL    HW135801   0.318   1.521   3.905  1.4354 -0.3627  0.7360
11556SOL    HW235802   0.339   1.443   3.777 -0.5552 -0.4571  0.4397
11557SOL     OW35803   3.250   6.747   1.196 -0.0515 -0.1415  0.1233
11557SOL    HW135804   3.277   6.808   1.265 -0.9639  2.9688 -2.0300
11557SOL    HW235805   3.330   6.727   1.149  0.0622  0.5887 -0.0024
11558SOL     OW35806   8.544   5.818   1.385  0.4386  0.0948  0.0413
11558SOL    HW135807   8.575   5.872   1.313  1.7628  0.3464  0.7681
11558SOL    HW235808   8.586   5.854   1.463  0.9222 -1.6135  0.6235
11559SOL     OW35809   8.818   1.467   5.106  0.3381  0.5148 -0.0190
11559SOL    HW135810   8.775   1.404   5.048  0.0473  0.4638  0.2518
11559SOL    HW235811   8.909   1.469   5.074  0.2645  0.2333 -0.2615
11560SOL     OW35812   2.737   5.625   2.892  0.2266  0.0418 -0.1797
11560SOL    HW135813   2.752   5.535   2.924 -0.4315 -0.5323 -1.4184
11560SOL    HW235814   2.824   5.656   2.869  0.4809 -0.2276  0.3886
11561SOL     OW35815   7.517   5.433   6.283 -0.8716  0.3002 -0.1263
11561SOL    HW135816   7.584   5.485   6.239 -3.0753  3.1458 -0.4048
11561SOL    HW235817   7.466   5.395   6.212 -1.1505  0.3625  0.0380
11562SOL     OW35818   4.724   6.632   3.691  0.0968 -0.1027 -0.1383
11562SOL    HW135819   4.637   6.595   3.708 -0.1604  0.5921  0.0811
11562SOL    HW235820   4.730   6.707   3.750  0.5252  0.3341 -0.7309
11563SOL     OW35821   0.843   8.302   8.705  0.2374 -0.5136  0.2593
11563SOL    HW135822   0.802   8.374   8.754  0.5711 -0.3893  0.3644
11563SOL    HW235823   0.919   8.343   8.663  1.2990 -1.0929  1.4997
11564SOL     OW35824   6.114   6.479   1.429  0.1043 -0.4588  0.0021
11564SOL    HW135825   6.170   6.418   1.381  0.6703 -1.2315  1.5825
11564SOL    HW235826   6.174   6.546   1.462  0.0905 -1.1027  1.4077
11565SOL     OW35827   8.200   3.221   3.063 -0.7505  0.3903 -0.3508
11565SOL    HW135828   8.168   3.132   3.071 -0.5450  0.1981 -1.5155
11565SOL    HW235829   8.138   3.274   3.114  0.2481 -0.6228  2.0386
11566SOL     OW35830   7.597   1.908   3.231  0.1586  0.1250  0.0127
11566SOL    HW135831   7.615   1.997   3.260  0.9418  0.0625 -0.2509
11566SOL    HW235832   7.661   1.892   3.161 -1.0604 -0.0657 -1.0946
11567SOL     OW35833   5.168   8.846   2.301 -0.0538  0.2607  0.3521
11567SOL    HW135834   5.106   8.843   2.374 -0.1235 -0.4587  0.2661
11567SOL    HW235835   5.155   8.763   2.255 -1.5932  1.5493 -1.7707
11568SOL     OW35836   7.445   4.544   4.263  0.2713 -0.6655 -0.9163
11568SOL    HW135837   7.497   4.483   4.316  0.5422 -0.4688 -0.9496
11568SOL    HW235838   7.441   4.503   4.177 -0.2434 -1.0269 -0.7214
11569SOL     OW35839   0.568   0.472   8.054 -0.0351  0.3911 -0.4106
11569SOL    HW135840   0.603   0.499   8.139 -1.9019  1.4064  0.0805
11569SOL    HW235841   0.486   0.428   8.074 -1.2148  1.8894 -1.7278
11570SOL     OW35842   0.551   3.958   3.978  0.0283 -0.1909  0.0947
11570SOL    HW135843   0.515   3.869   3.968 -0.7130  0.0471  0.6060
11570SOL    HW235844   0.487   4.014   3.935  0.1814  0.1622  0.3285
11571SOL     OW35845   1.273   7.554   1.021  0.4951  0.2319 -0.1380
11571SOL    HW135846   1.288   7.460   1.032  0.2029  0.2711  0.6503
11571SOL    HW235847   1.340   7.581   0.958 -0.0463 -0.6780 -1.1434
11572SOL     OW35848   2.215   4.869   7.563 -0.0759 -0.3031  0.1859
11572SOL    HW135849   2.245   4.820   7.487 -0.0948 -1.2340  0.7579
11572SOL    HW235850   2.194   4.802   7.628 -1.4840  0.4011  0.4944
11573SOL     OW35851   5.504   4.744   1.031 -0.1425 -0.2765 -0.2797
11573SOL    HW135852   5.480   4.686   0.958  1.0774 -1.7124  0.4009
11573SOL    HW235853   5.455   4.708   1.106 -0.7950  0.7215 -0.2122
11574SOL     OW35854   6.302   4.032   7.037 -0.3401 -0.9368  0.1903
11574SOL    HW135855   6.303   4.081   6.955  0.1088  0.4433  0.9763
11574SOL    HW235856   6.272   4.096   7.102  0.9316 -1.5115  1.3825
11575SOL     OW35857   6.139   8.622   2.006  0.0297  0.3338  0.1031
11575SOL    HW135858   6.136   8.562   1.931  1.0831 -0.0873  0.3839
11575SOL    HW235859   6.071   8.589   2.065 -1.0864  0.9073 -0.8241
11576SOL     OW35860   8.701   0.889   2.047  0.6673 -0.1905  0.1500
11576SOL    HW135861   8.790   0.910   2.017  1.3179 -1.6776  0.9286
11576SOL    HW235862   8.714   0.850   2.133 -0.8628  0.6542  0.7980
11577SOL     OW35863   5.423   1.598   2.581 -0.7449 -0.0502  0.2979
11577SOL    HW135864   5.470   1.638   2.655 -0.3510 -0.9952  0.5688
11577SOL    HW235865   5.357   1.663   2.557 -0.1643  0.7369  0.7722
11578SOL     OW35866   2.550   6.395   0.624  0.0994 -0.7705  0.5091
11578SOL    HW135867   2.512   6.476   0.591  0.8712 -1.0038 -1.0307
11578SOL    HW235868   2.528   6.329   0.558  1.8764 -1.2138  0.3051
11579SOL     OW35869   0.009   9.099   3.291  0.0042 -0.5074 -0.1840
11579SOL    HW135870  -0.011   9.185   3.254 -1.2314 -0.8385 -0.3289
11579SOL    HW235871   0.024   9.042   3.216  0.1053 -0.5764 -0.1118
11580SOL     OW35872   8.384   3.710   0.009 -1.0236  0.4380  0.8101
11580SOL    HW135873   8.356   3.706  -0.083  1.5120  1.9974 -0.1310
11580SOL    HW235874   8.387   3.619   0.038 -0.4207 -0.2156 -1.1455
11581SOL     OW35875   3.418   8.606   0.036 -0.0185  0.3955 -0.2373
11581SOL    HW135876   3.371   8.523   0.027 -0.0297  0.0397  2.4829
11581SOL    HW235877   3.412   8.628   0.128  1.2104  2.7386 -0.6305
11582SOL     OW35878   5.410   0.957   3.388  0.0894 -0.0654 -0.0234
11582SOL    HW135879   5.431   0.907   3.467  0.9453 -0.3159 -0.4028
11582SOL    HW235880   5.329   1.003   3.410 -1.2230 -2.2677  0.0590
11583SOL     OW35881   2.664   4.050   4.673  0.3335 -0.5089 -0.0206
11583SOL    HW135882   2.710   4.120   4.719 -0.2896  0.2583 -0.5419
11583SOL    HW235883   2.715   4.036   4.593  1.5094 -1.9550  0.9322
11584SOL     OW35884   1.473   0.539   1.760 -0.3103  0.2062 -0.0161
11584SOL    HW135885   1.433   0.599   1.823  0.9022  1.4001 -0.3229
11584SOL    HW235886   1.466   0.584   1.676  2.4415  0.9302  0.0581
11585SOL     OW35887   1.659   0.634   5.087  0.1479  0.0531 -0.3504
11585SOL    HW135888   1.692   0.596   5.168 -0.3032 -1.5583 -0.8835
11585SOL    HW235889   1.593   0.572   5.056 -0.2418  1.0187 -1.5584
11586SOL     OW35890   2.279   7.992   6.903 -0.1202  0.5007  0.0285
11586SOL    HW135891   2.319   8.024   6.822 -0.5842  1.2792  0.0896
11586SOL    HW235892   2.192   8.034   6.904 -0.8928 -1.0386 -0.0396
11587SOL     OW35893   6.417   5.139   8.656  0.2424 -0.0387  0.2193
11587SOL    HW135894   6.437   5.145   8.749 -1.8756  0.0784  0.7087
11587SOL    HW235895   6.398   5.046   8.641  1.8683 -0.3023 -0.4229
11588SOL     OW35896   2.858   4.344   2.345  0.4461  0.6227  0.5279
11588SOL    HW135897   2.844   4.295   2.265 -2.5032  1.0691  0.6561
11588SOL    HW235898   2.835   4.434   2.323 -0.9880  0.6580  1.9354
11589SOL     OW35899   2.122   4.926   3.421  0.4603 -0.5600 -0.0494
11589SOL    HW135900   2.204   4.961   3.454  0.9769  0.6351 -2.4013
11589SOL    HW235901   2.056   4.958   3.483  1.6734 -1.1771  1.6223
11590SOL     OW35902   1.792   2.822   0.497 -0.4245 -0.4125 -0.3257
11590SOL    HW135903   1.816   2.730   0.505  0.2385 -0.2758 -0.6781
11590SOL    HW235904   1.815   2.846   0.407 -1.0118 -0.0182 -0.3799
11591SOL     OW35905   7.498   8.198   5.689 -0.0430  0.1381 -0.0058
11591SOL    HW135906   7.418   8.167   5.648  0.3652 -0.9337 -0.0276
11591SOL    HW235907   7.479   8.197   5.783 -0.8091  2.1139 -0.1061
11592SOL     OW35908   2.425   4.192   3.322  0.0381 -0.0041  0.0045
11592SOL    HW135909   2.333   4.213   3.308  0.2009  1.2515  0.6837
11592SOL    HW235910   2.469   4.277   3.328  0.9186 -0.5348  1.7104
11593SOL     OW35911   8.303   4.199   2.910  0.0068 -0.2729 -0.5339
11593SOL    HW135912   8.358   4.266   2.951 -0.6646 -0.0111 -0.0350
11593SOL    HW235913   8.349   4.116   2.927 -0.4667 -0.2268  1.1688
11594SOL     OW35914   5.895   0.257   8.164 -0.2262  0.7266  0.3259
11594SOL    HW135915   5.919   0.338   8.210 -2.3456  0.5922  1.8244
11594SOL    HW235916   5.845   0.207   8.229 -1.7684 -0.3239 -1.5752
11595SOL     OW35917   3.718   8.733   7.480 -0.2429 -0.3324 -0.5396
11595SOL    HW135918   3.741   8.788   7.555  0.5401 -0.9956 -0.2818
11595SOL    HW235919   3.725   8.643   7.513  0.4861 -0.6435 -1.5011
11596SOL     OW35920   5.221   3.601   2.550  0.1211  0.0966  0.6270
11596SOL    HW135921   5.211   3.677   2.608  0.0274  1.6183 -1.2592
11596SOL    HW235922   5.315   3.585   2.547  0.5327  2.3198 -1.4665
11597SOL     OW35923   5.951   3.215   8.966 -0.2135 -0.2707 -0.1183
11597SOL    HW135924   5.856   3.210   8.955 -0.2355 -0.2206  0.0601
11597SOL    HW235925   5.971   3.149   9.032 -0.5495  2.1546  2.5930
11598SOL     OW35926   0.485   6.093   2.836 -0.2700 -0.7652 -0.2632
11598SOL    HW135927   0.565   6.078   2.786  1.0884  2.6243  0.6089
11598SOL    HW235928   0.469   6.186   2.827 -3.0799 -1.0165  1.1856
11599SOL     OW35929   7.518   1.855   0.739 -0.1495 -0.1395 -0.0009
11599SOL    HW135930   7.428   1.872   0.766  1.0781  0.1662  4.6564
11599SOL    HW235931   7.525   1.760   0.736 -0.6567 -0.1652 -0.6975
11600SOL     OW35932   6.696   1.493   1.017  0.3564 -0.0428  0.1761
11600SOL    HW135933   6.724   1.409   1.053  0.2595 -0.0242  0.2933
11600SOL    HW235934   6.752   1.558   1.060  0.0740  0.0023  0.4732
11601SOL     OW35935   8.757   7.530   9.032 -0.3845 -0.2740 -0.0105
11601SOL    HW135936   8.848   7.553   9.009 -0.2697 -0.5062  0.2012
11601SOL    HW235937   8.753   7.436   9.018 -0.2997 -0.4253  0.9561
11602SOL     OW35938   7.328   0.503   7.726  0.4350 -0.5620 -0.5544
11602SOL    HW135939   7.263   0.573   7.735 -0.1495 -0.9405 -1.6149
11602SOL    HW235940   7.362   0.514   7.637 -0.2181 -2.0711 -1.0109
11603SOL     OW35941   1.282   3.422   2.359 -0.3922  0.2829 -0.2602
11603SOL    HW135942   1.268   3.480   2.434  0.6659  0.8222 -0.4628
11603SOL    HW235943   1.347   3.468   2.305 -2.9833  1.1913 -2.8726
11604SOL     OW35944   3.551   1.907   1.285 -0.2885  0.1268  0.4662
11604SOL    HW135945   3.585   1.890   1.198 -0.8000  2.9637 -0.4062
11604SOL    HW235946   3.626   1.896   1.343 -0.0488 -2.2425 -0.2083
11605SOL     OW35947   8.568   2.710   2.434 -0.5699  0.3562 -0.0243
11605SOL    HW135948   8.496   2.672   2.384 -0.1589  1.1826 -1.2917
11605SOL    HW235949   8.566   2.664   2.518 -0.4287 -2.0510 -1.2750
11606SOL     OW35950   7.911   6.262   4.478  0.4928  0.0570 -0.1453
11606SOL    HW135951   7.859   6.285   4.555  0.0638 -0.4369 -0.2841
11606SOL    HW235952   7.984   6.212   4.513  1.0852  1.0458  0.0889
11607SOL     OW35953   4.521   8.457   3.437  0.1335 -0.0324  0.3986
11607SOL    HW135954   4.603   8.420   3.404  2.0851 -0.3009  4.7834
11607SOL    HW235955   4.544   8.546   3.465 -1.0711 -0.0849  1.6649
11608SOL     OW35956   3.967   1.889   4.053 -0.1540 -0.0627  0.1215
11608SOL    HW135957   3.871   1.884   4.058 -0.0657 -1.1203  1.5963
11608SOL    HW235958   3.995   1.891   4.145  1.2292  1.0184 -0.2891
11609SOL     OW35959   1.104   0.638   6.881 -0.3859  0.1476 -0.0353
11609SOL    HW135960   1.156   0.670   6.955  0.0175 -0.0840 -0.2171
11609SOL    HW235961   1.091   0.716   6.826  0.3017  0.0855 -0.3005
11610SOL     OW35962   3.803   6.446   6.244  0.2954 -0.1349 -0.3109
11610SOL    HW135963   3.762   6.515   6.192  1.1968 -0.5452 -1.6411
11610SOL    HW235964   3.732   6.409   6.296 -0.7440  0.0247 -1.5677
11611SOL     OW35965   1.118   6.142   1.877 -0.0569 -0.6167  0.1701
11611SOL    HW135966   1.064   6.123   1.800 -0.2426  0.0272  0.1301
11611SOL    HW235967   1.187   6.200   1.844  0.6636 -1.4149  0.2235
11612SOL     OW35968   4.316   7.656   1.291 -0.7877  0.1066 -0.0750
11612SOL    HW135969   4.228   7.618   1.296 -0.7802  0.0837 -0.1177
11612SOL    HW235970   4.369   7.601   1.348 -0.4038 -0.9611 -1.4133
11613SOL     OW35971   4.927   5.661   4.714 -0.0657  0.0408 -0.1098
11613SOL    HW135972   4.869   5.658   4.638 -2.2051 -0.1028  1.4494
11613SOL    HW235973   4.988   5.732   4.694  0.0858 -0.6566 -2.3750
11614SOL     OW35974   4.673   6.998   5.496 -0.4843 -0.1293 -0.3242
11614SOL    HW135975   4.623   6.986   5.415 -2.3892 -0.8564  0.8894
11614SOL    HW235976   4.611   7.039   5.557  1.1783  1.2326  0.5256
11615SOL     OW35977   0.379   1.959   5.197 -0.0380  1.1523 -0.0780
11615SOL    HW135978   0.417   2.046   5.208 -1.9124  2.4311 -2.6663
11615SOL    HW235979   0.368   1.949   5.103  1.7172 -2.7173 -0.0629
11616SOL     OW35980   6.200   3.039   6.039  0.3626  0.1297 -0.3667
11616SOL    HW135981   6.138   3.094   6.087  0.5070 -0.2893  0.3166
11616SOL    HW235982   6.272   3.025   6.100 -0.4928 -2.3389  0.1999
11617SOL     OW35983   9.002   7.264   3.000  0.4664  0.1330  0.1316
11617SOL    HW135984   8.975   7.251   2.909  2.7484 -2.8868 -0.2873
11617SOL    HW235985   8.950   7.201   3.050 -0.3925  1.4071  0.8968
11618SOL     OW35986   4.434   6.147   7.951 -0.7220  0.0513 -0.2929
11618SOL    HW135987   4.362   6.206   7.973 -0.4337 -0.3151  1.9529
11618SOL    HW235988   4.510   6.204   7.940 -0.5275  0.2141  1.4791
11619SOL     OW35989   3.591   5.801   0.278 -0.8303 -0.3429 -0.0455
11619SOL    HW135990   3.627   5.850   0.352 -2.1444 -0.9780  1.0762
11619SOL    HW235991   3.648   5.725   0.268 -0.3564  0.0097 -0.0089
11620SOL     OW35992   7.365   3.391   6.954 -0.1666  0.1606  0.5090
11620SOL    HW135993   7.344   3.297   6.953  2.3994 -0.5031 -0.1165
11620SOL    HW235994   7.357   3.416   7.045 -0.5878 -0.7681  0.7435
11621SOL     OW35995   4.776   7.727   2.012  0.2287 -0.1167 -0.1341
11621SOL    HW135996   4.695   7.678   1.997 -0.1478  0.2995  0.5300
11621SOL    HW235997   4.846   7.662   2.000 -0.1039 -0.1943 -2.0376
11622SOL     OW35998   8.596   3.711   8.066  0.3772  0.5791 -0.5834
11622SOL    HW135999   8.543   3.778   8.023  2.4719  1.4322 -1.9671
11622SOL    HW236000   8.619   3.649   7.996 -0.2580 -0.7962  0.3677
11623SOL     OW36001   5.151   2.107   7.530 -0.0000  0.4256  0.0082
11623SOL    HW136002   5.119   2.022   7.561  0.4920 -0.1593 -1.0323
11623SOL    HW236003   5.081   2.168   7.550 -0.9921 -0.5000 -0.5527
11624SOL     OW36004   7.142   5.960   2.641  0.1060  0.9858 -0.0446
11624SOL    HW136005   7.060   5.928   2.603  1.5426 -1.3248 -1.4555
11624SOL    HW236006   7.144   5.924   2.729 -0.0151  0.2509 -0.3334
11625SOL     OW36007   3.429   1.169   0.803  0.8084 -0.2913  0.2950
11625SOL    HW136008   3.369   1.144   0.874  2.0467 -1.3889  0.9949
11625SOL    HW236009   3.391   1.128   0.725  0.1221 -0.1537  0.5494
11626SOL     OW36010   6.530   4.151   2.606 -0.0382 -0.4223  0.4713
11626SOL    HW136011   6.439   4.122   2.615 -0.4439  0.4450 -0.6449
11626SOL    HW236012   6.564   4.149   2.696 -0.9565 -1.3640  0.8264
11627SOL     OW36013   3.177   7.616   6.313 -0.5489  0.4448  0.1133
11627SOL    HW136014   3.136   7.533   6.291  0.3203  0.2424 -0.8240
11627SOL    HW236015   3.152   7.632   6.404 -0.8324 -0.7765  0.2651
11628SOL     OW36016   6.094   5.116   5.175 -0.5362  0.3319  0.4380
11628SOL    HW136017   6.153   5.155   5.239  0.2256  1.6592 -1.0252
11628SOL    HW236018   6.102   5.021   5.189  3.3472  0.2914 -0.8424
11629SOL     OW36019   2.006   4.396   5.826 -0.0595  0.3788 -0.3509
11629SOL    HW136020   1.978   4.445   5.904 -0.8202  0.8899 -0.9339
11629SOL    HW236021   2.089   4.355   5.853  0.1594  1.2788  0.4313
11630SOL     OW36022   4.525   0.725   7.796  0.0530 -0.5163  0.5393
11630SOL    HW136023   4.510   0.744   7.704  0.3990 -2.4016  0.0492
11630SOL    HW236024   4.490   0.800   7.842 -0.4906  0.2858 -1.1095
11631SOL     OW36025   1.125   6.499   4.898  0.3104  0.5286  0.2381
11631SOL    HW136026   1.123   6.593   4.917  1.5890  0.7648 -0.6112
11631SOL    HW236027   1.085   6.458   4.975 -1.6342  1.8230 -0.0099
11632SOL     OW36028   0.270   0.863   9.091 -0.7825  0.1714 -0.5889
11632SOL    HW136029   0.223   0.941   9.062  0.3071  0.4691 -1.6355
11632SOL    HW236030   0.202   0.806   9.127 -1.8010  0.9912 -1.1476
11633SOL     OW36031   7.820   3.083   7.995  0.1917  0.7767  0.3392
11633SOL    HW136032   7.750   3.117   7.939  0.1940  2.5412  1.3268
11633SOL    HW236033   7.817   3.138   8.073 -0.4502 -2.2354  2.5805
11634SOL     OW36034   4.005   1.041   7.959  0.5074  0.0786  0.0967
11634SOL    HW136035   3.926   1.032   7.907  1.8452  0.8271 -2.1866
11634SOL    HW236036   4.025   0.952   7.989 -1.3401 -0.0693  1.0558
11635SOL     OW36037   8.162   1.942   0.525  0.7187  0.0256  0.5581
11635SOL    HW136038   8.076   1.984   0.535  0.6344  0.3527 -1.2185
11635SOL    HW236039   8.147   1.851   0.551  0.0963  0.3229  1.2769
11636SOL     OW36040   6.795   3.964   5.416  0.1599  0.1490 -1.4203
11636SOL    HW136041   6.715   4.014   5.400  0.7118  1.0924 -1.2962
11636SOL    HW236042   6.858   3.998   5.353 -0.3894 -2.8117 -3.7814
11637SOL     OW36043   7.382   0.422   5.077 -0.0969  0.0015 -0.5871
11637SOL    HW136044   7.344   0.509   5.086  1.3112  0.5802 -0.0717
11637SOL    HW236045   7.342   0.387   4.997 -1.2430  0.8015 -0.3940
11638SOL     OW36046   7.309   1.580   7.299  0.3249 -0.2089  0.3809
11638SOL    HW136047   7.244   1.523   7.340 -0.0194  0.7544  1.2253
11638SOL    HW236048   7.313   1.550   7.208 -2.5361  0.7083 -0.1573
11639SOL     OW36049   6.028   0.650   4.642 -0.9048 -0.3979  0.3136
11639SOL    HW136050   5.978   0.661   4.723 -0.4289  0.0191  0.5605
11639SOL    HW236051   6.024   0.557   4.623  0.3617 -0.7874  1.7406
11640SOL     OW36052   6.320   4.939   7.322  0.4464 -0.0506 -0.4745
11640SOL    HW136053   6.395   4.892   7.357 -0.0853  0.1416  0.9686
11640SOL    HW236054   6.291   4.996   7.393 -1.0118 -0.0497 -1.0164
11641SOL     OW36055   6.601   3.310   8.050  0.3473 -0.1023 -0.1928
11641SOL    HW136056   6.568   3.341   7.965 -1.2747 -0.1851  0.3711
11641SOL    HW236057   6.563   3.223   8.060 -1.0305  0.6288  1.4212
11642SOL     OW36058   8.584   6.376   7.429 -0.1753 -0.0018 -0.3881
11642SOL    HW136059   8.653   6.436   7.458  0.3639 -0.4612 -0.7066
11642SOL    HW236060   8.535   6.426   7.364  0.4867 -0.0114 -0.9099
11643SOL     OW36061   4.462   8.869   0.279 -0.2304 -0.2052 -0.4869
11643SOL    HW136062   4.379   8.871   0.232 -1.1735  0.7528  1.1414
11643SOL    HW236063   4.473   8.958   0.313  0.3764 -0.8557  1.1173
11644SOL     OW36064   8.588   1.845   8.750  0.1100 -0.0116 -0.3722
11644SOL    HW136065   8.650   1.801   8.692 -0.9296 -1.0023 -0.7726
11644SOL    HW236066   8.591   1.795   8.831  0.1996  0.2428 -0.2174
11645SOL     OW36067   4.858   5.037   5.672 -0.2195 -0.2043 -0.1651
11645SOL    HW136068   4.804   4.989   5.609 -1.4638  0.1974  0.5686
11645SOL    HW236069   4.943   4.993   5.669 -0.6274 -0.9583 -1.2197
11646SOL     OW36070   3.166   7.181   6.149  0.9025  0.0139  0.2185
11646SOL    HW136071   3.249   7.228   6.149  0.7368  0.3306  0.9037
11646SOL    HW236072   3.143   7.171   6.057  1.3931  0.4802  0.0430
11647SOL     OW36073   5.478   8.611   0.552 -1.2311  0.2584  0.1439
11647SOL    HW136074   5.490   8.575   0.640  1.1636  2.2547  0.7194
11647SOL    HW236075   5.558   8.588   0.505 -1.5286  1.1292 -0.8237
11648SOL     OW36076   5.736   7.064   0.352  0.5233  0.0881  0.3172
11648SOL    HW136077   5.821   7.095   0.323 -0.1289  1.4146 -0.2597
11648SOL    HW236078   5.694   7.030   0.273 -1.0187  3.1556 -0.3375
11649SOL     OW36079   1.257   2.224   7.625  0.6712 -0.0317 -0.3545
11649SOL    HW136080   1.310   2.253   7.699 -0.4467  2.6527 -0.4516
11649SOL    HW236081   1.316   2.229   7.550  1.2344 -0.6563  0.0388
11650SOL     OW36082   2.830   6.107   4.937 -0.0914  0.2688 -0.6659
11650SOL    HW136083   2.858   6.187   4.982  1.1853 -0.3301 -0.3685
11650SOL    HW236084   2.872   6.112   4.851 -2.7860  1.5758 -2.0175
11651SOL     OW36085   1.926   6.605   0.333 -0.5232  0.3952 -0.9543
11651SOL    HW136086   2.012   6.645   0.347 -0.9045  0.6249  1.0447
11651SOL    HW236087   1.894   6.646   0.252  0.7979  1.0894 -1.1647
11652SOL     OW36088   5.829   5.016   3.257 -0.9038  0.0212  0.7085
11652SOL    HW136089   5.841   5.006   3.352 -0.2085 -0.0201  0.6179
11652SOL    HW236090   5.916   5.035   3.223 -1.2809  0.8333  0.1689
11653SOL     OW36091   4.459   4.190   9.100  0.3495 -0.4702 -0.0611
11653SOL    HW136092   4.510   4.164   9.023 -0.1133 -0.6165 -0.3197
11653SOL    HW236093   4.523   4.233   9.157  0.1893  2.1366 -1.7068
11654SOL     OW36094   3.615   5.447   6.738  0.4181 -0.1884  0.5522
11654SOL    HW136095   3.560   5.379   6.777  1.1122 -0.4838  1.0482
11654SOL    HW236096   3.691   5.399   6.704  0.2053  0.1682 -0.4379
11655SOL     OW36097   6.510   1.412   4.877  0.3330  0.1170  0.1174
11655SOL    HW136098   6.453   1.353   4.828 -0.0175  1.3562 -1.0165
11655SOL    HW236099   6.452   1.480   4.911  0.8222  0.1625  0.8972
11656SOL     OW36100   5.748   1.488   6.640 -0.2220  0.6305 -0.4405
11656SOL    HW136101   5.784   1.459   6.556 -1.4615  0.6970 -1.0075
11656SOL    HW236102   5.781   1.423   6.703 -1.1927 -0.8131 -1.3506
11657SOL     OW36103   5.446   3.395   3.208 -0.0644  0.7789 -0.1438
11657SOL    HW136104   5.450   3.349   3.292 -1.6307  0.9490  0.0577
11657SOL    HW236105   5.441   3.487   3.232 -1.2089  0.7906 -0.3789
11658SOL     OW36106   4.999   0.589   5.287  0.3336 -0.1102 -0.1818
11658SOL    HW136107   4.973   0.553   5.202 -0.0087  1.0548 -0.5938
11658SOL    HW236108   5.036   0.675   5.266  2.0853 -0.6134  0.6682
11659SOL     OW36109   3.779   2.807   2.405 -0.0620  0.6260  0.4427
11659SOL    HW136110   3.780   2.807   2.500 -0.9433 -0.6289  0.4768
11659SOL    HW236111   3.754   2.718   2.381  1.2223  0.6065 -0.9856
11660SOL     OW36112   1.906   3.374   2.211  0.3535  0.4228 -0.3183
11660SOL    HW136113   1.892   3.427   2.132  1.3258  0.9357 -0.1639
11660SOL    HW236114   1.823   3.381   2.259 -0.7035 -0.8952 -1.8527
11661SOL     OW36115   5.321   1.736   9.040 -0.0860 -0.2178 -0.8675
11661SOL    HW136116   5.226   1.723   9.040  0.0664 -1.4430  0.2729
11661SOL    HW236117   5.333   1.821   8.996 -1.8575  1.1314  1.0510
11662SOL     OW36118   5.045   4.492   1.941 -0.3585 -0.0120  0.2278
11662SOL    HW136119   5.132   4.458   1.921 -1.7622 -2.4050 -2.5554
11662SOL    HW236120   5.014   4.439   2.015 -0.4923 -1.1529 -0.6272
11663SOL     OW36121   1.089   2.383   6.582 -0.7491  0.0639  0.1613
11663SOL    HW136122   1.018   2.447   6.579  1.4379  2.5806 -1.8136
11663SOL    HW236123   1.128   2.394   6.669  0.0910  2.0720 -0.4274
11664SOL     OW36124   2.374   2.011   2.370  0.3613 -0.2012 -0.6721
11664SOL    HW136125   2.350   2.083   2.311  1.2665  1.5252  0.9661
11664SOL    HW236126   2.298   2.001   2.428  0.7816  0.4190 -0.0024
11665SOL     OW36127   7.187   5.270   5.544 -0.3759  0.3500  0.1221
11665SOL    HW136128   7.208   5.307   5.459 -0.5579 -0.4429 -0.2832
11665SOL    HW236129   7.109   5.317   5.573 -2.1105 -1.3334 -1.5156
11666SOL     OW36130   0.853   5.573   4.643  0.1675 -0.5308  0.4505
11666SOL    HW136131   0.773   5.548   4.689 -0.6209 -1.9294 -1.5330
11666SOL    HW236132   0.824   5.595   4.555  1.7981  0.4640  0.1326
11667SOL     OW36133   4.649   0.149   2.603 -0.9411  0.3164  0.5134
11667SOL    HW136134   4.616   0.232   2.568 -1.0501  0.3565  0.7104
11667SOL    HW236135   4.697   0.174   2.683  0.3501  0.3661 -0.2515
11668SOL     OW36136   3.758   5.989   4.038  0.5025 -0.1777 -0.5512
11668SOL    HW136137   3.684   5.969   3.980  0.2246 -0.2431 -0.1740
11668SOL    HW236138   3.831   6.007   3.978  0.2021 -0.1890 -0.9241
11669SOL     OW36139   5.611   3.271   0.227  0.1876 -0.6249 -0.3002
11669SOL    HW136140   5.582   3.320   0.304 -0.0080 -0.1510 -0.6697
11669SOL    HW236141   5.693   3.314   0.201 -0.0573 -0.3998 -0.7078
11670SOL     OW36142   0.216   0.650   4.946 -0.6127  0.6413 -0.3618
11670SOL    HW136143   0.166   0.581   4.990 -0.1053  1.5821  1.7969
11670SOL    HW236144   0.221   0.621   4.855 -0.9355 -1.8563  0.3380
11671SOL     OW36145   2.165   7.619   3.434 -0.2612  0.4770 -0.1213
11671SOL    HW136146   2.155   7.714   3.434  0.7468  0.5928  0.1341
11671SOL    HW236147   2.191   7.598   3.344  1.0557  0.6265  0.2157
11672SOL     OW36148   6.191   7.336   5.467 -0.3245 -0.1748 -0.0417
11672SOL    HW136149   6.145   7.413   5.434 -0.1657  0.7182  1.6837
11672SOL    HW236150   6.191   7.348   5.562  1.2300 -1.4322  0.1511
11673SOL     OW36151   5.662   7.456   5.114  0.1165 -0.5695 -0.5581
11673SOL    HW136152   5.579   7.502   5.123  0.4222 -0.0661 -0.2427
11673SOL    HW236153   5.698   7.487   5.031  0.8365  0.6315  0.1730
11674SOL     OW36154   7.183   1.827   4.674 -0.1622 -0.1915  0.6921
11674SOL    HW136155   7.209   1.919   4.674 -0.3606 -0.1268  1.4202
11674SOL    HW236156   7.259   1.781   4.710  0.4134 -0.4751 -0.8105
11675SOL     OW36157   4.556   4.538   5.360 -0.4794 -0.0974 -0.0148
11675SOL    HW136158   4.607   4.468   5.318 -0.2584 -0.2801  0.5397
11675SOL    HW236159   4.595   4.619   5.328  0.0275 -0.2349  0.2325
11676SOL     OW36160   4.138   1.195   6.666  0.1042  0.1103  0.6379
11676SOL    HW136161   4.225   1.235   6.655  0.0910 -0.1943 -0.6411
11676SOL    HW236162   4.110   1.173   6.578 -0.1193 -2.2676  1.2280
11677SOL     OW36163   1.429   3.774   5.364  0.1111  0.1033 -0.2508
11677SOL    HW136164   1.431   3.726   5.447 -1.0633 -1.0416 -0.8425
11677SOL    HW236165   1.336   3.783   5.343  0.3852 -0.0126 -1.6409
11678SOL     OW36166   5.739   3.716   6.636 -0.3254  0.5856 -0.2416
11678SOL    HW136167   5.767   3.625   6.626 -0.1329  0.7158 -1.0105
11678SOL    HW236168   5.781   3.746   6.717  0.4649  0.2889 -0.5260
11679SOL     OW36169   5.841   0.414   7.465 -0.0582  0.3353  0.6150
11679SOL    HW136170   5.936   0.424   7.454 -0.0290 -0.5233  0.0398
11679SOL    HW236171   5.813   0.497   7.503  1.2616 -0.1974  2.9606
11680SOL     OW36172   7.354   2.660   1.287 -0.0084 -0.1914 -0.4133
11680SOL    HW136173   7.437   2.662   1.334  0.2443 -1.0316 -0.8004
11680SOL    HW236174   7.289   2.635   1.353  0.3769 -1.5879 -0.5163
11681SOL     OW36175   8.330   2.571   4.426 -0.0965 -0.9487  0.3905
11681SOL    HW136176   8.246   2.526   4.416  0.1538 -1.2181 -0.6496
11681SOL    HW236177   8.319   2.653   4.378  0.4476 -1.2930 -0.3416
11682SOL     OW36178   6.424   2.079   6.612 -0.0593 -0.7335 -0.0029
11682SOL    HW136179   6.368   2.071   6.535  1.9619 -1.5510 -1.4801
11682SOL    HW236180   6.385   2.150   6.663 -0.2335  1.4580 -2.9100
11683SOL     OW36181   3.110   0.305   7.976 -0.4327 -0.5494  0.3657
11683SOL    HW136182   3.201   0.293   8.002 -0.5959 -0.5533  0.9558
11683SOL    HW236183   3.106   0.272   7.887 -0.0488 -1.3793  0.6470
11684SOL     OW36184   0.820   3.558   5.611  0.0457 -0.0503 -0.4081
11684SOL    HW136185   0.751   3.606   5.657 -0.7622 -0.5328 -1.0759
11684SOL    HW236186   0.806   3.581   5.519  1.4590  0.6924 -0.4658
11685SOL     OW36187   2.731   1.606   5.511  0.6668  0.1949 -0.1274
11685SOL    HW136188   2.722   1.694   5.549 -0.0013 -0.1019  0.4175
11685SOL    HW236189   2.771   1.554   5.581 -0.1969 -0.2590  0.0456
11686SOL     OW36190   8.597   6.875   2.355 -0.3592  0.3327 -0.0394
11686SOL    HW136191   8.591   6.802   2.417 -0.9768  0.7094  0.3499
11686SOL    HW236192   8.690   6.876   2.330 -0.1584 -0.0111  0.6500
11687SOL     OW36193   4.248   4.193   7.136 -0.3783 -0.3328  0.3417
11687SOL    HW136194   4.163   4.235   7.151  0.2426  1.7723 -1.5695
11687SOL    HW236195   4.311   4.265   7.140  1.4300 -1.8903  2.0591
11688SOL     OW36196   7.718   5.370   5.705 -0.5162  0.0055  0.4964
11688SOL    HW136197   7.686   5.452   5.742  1.7391  1.7530 -1.0987
11688SOL    HW236198   7.803   5.357   5.746 -1.0610 -1.8745  1.1045
11689SOL     OW36199   6.878   8.871   3.028  0.2239 -0.0690  0.3525
11689SOL    HW136200   6.794   8.875   2.984  0.6120 -0.9498 -0.5150
11689SOL    HW236201   6.942   8.867   2.957  1.0196  0.9368  0.9990
11690SOL     OW36202   5.084   4.651   6.278  0.1355 -0.3407 -0.2780
11690SOL    HW136203   5.023   4.577   6.280 -0.2098 -0.0959  2.9713
11690SOL    HW236204   5.031   4.727   6.303  1.2682  0.3470  0.0897
11691SOL     OW36205   3.669   4.743   2.185 -0.2955 -0.2440 -0.0822
11691SOL    HW136206   3.685   4.732   2.279  1.2744 -1.7955 -0.4947
11691SOL    HW236207   3.678   4.655   2.148 -1.2831  0.2712 -1.6498
11692SOL     OW36208   4.699   8.006   6.745  0.4015 -0.0673 -0.0210
11692SOL    HW136209   4.615   7.972   6.776  0.1064  0.0673 -0.6542
11692SOL    HW236210   4.727   7.944   6.678  1.8894 -1.3205  1.6946
11693SOL     OW36211   5.143   0.106   5.772  0.1307 -0.2401  0.5313
11693SOL    HW136212   5.151   0.021   5.815 -2.0012 -1.8426 -1.9478
11693SOL    HW236213   5.134   0.085   5.679 -2.0996  2.5811 -0.0253
11694SOL     OW36214   8.820   5.494   9.014 -0.4775  0.1150  0.1155
11694SOL    HW136215   8.848   5.503   8.923  0.5655 -1.1244  0.2857
11694SOL    HW236216   8.752   5.427   9.012 -1.3351  0.9591  0.1115
11695SOL     OW36217   0.772   5.820   8.990  0.2490 -0.2493 -0.1613
11695SOL    HW136218   0.812   5.870   9.061  2.7820 -1.6789 -0.4602
11695SOL    HW236219   0.771   5.730   9.022 -0.1181 -0.6763 -1.3156
11696SOL     OW36220   7.468   4.306   7.894 -0.6342  0.6304 -0.7374
11696SOL    HW136221   7.468   4.368   7.967  2.1648 -1.4636  1.2472
11696SOL    HW236222   7.544   4.330   7.841 -0.8430  0.2527 -1.2209
11697SOL     OW36223   5.410   8.966   1.884 -0.2869 -0.3561 -0.1911
11697SOL    HW136224   5.389   9.058   1.873  0.3738 -0.1870 -0.0736
11697SOL    HW236225   5.487   8.965   1.941  0.6670 -0.8900 -1.4357
11698SOL     OW36226   1.768   7.215   1.528  0.5625 -0.5458  0.9619
11698SOL    HW136227   1.677   7.215   1.558  0.6956  2.1340  1.6430
11698SOL    HW236228   1.785   7.124   1.502 -1.3334 -1.8223  3.6919
11699SOL     OW36229   3.498   2.830   0.243 -0.0815 -0.8226  0.2657
11699SOL    HW136230   3.557   2.860   0.174 -0.0340 -1.4025  0.0456
11699SOL    HW236231   3.467   2.910   0.285  2.4834 -0.4989  1.7731
11700SOL     OW36232   5.725   3.429   1.076  0.2962 -0.2304  0.6464
11700SOL    HW136233   5.656   3.493   1.058  2.5985  1.4946 -3.1641
11700SOL    HW236234   5.723   3.419   1.172 -4.7195  0.0647  0.8466
11701SOL     OW36235   6.629   5.656   3.530  0.6395  0.4614 -0.2186
11701SOL    HW136236   6.662   5.690   3.613 -0.3000 -2.8988  1.7166
11701SOL    HW236237   6.647   5.562   3.534  0.5079  0.1644 -3.8556
11702SOL     OW36238   4.091   6.624   6.767 -0.0614 -0.3425  0.2860
11702SOL    HW136239   4.132   6.572   6.836  0.6280  0.6107  0.6134
11702SOL    HW236240   4.008   6.579   6.749  0.6654 -1.7486  0.3062
11703SOL     OW36241   6.938   8.878   2.206 -0.1147  0.1695 -0.1544
11703SOL    HW136242   7.012   8.901   2.150  0.6397  3.1523  1.8434
11703SOL    HW236243   6.877   8.834   2.147  2.4200 -0.7622 -2.2887
11704SOL     OW36244   4.017   2.117   1.406 -0.4542  0.3548 -0.3040
11704SOL    HW136245   4.021   2.187   1.471 -0.4278 -0.0505  0.1377
11704SOL    HW236246   3.992   2.040   1.456  0.7653 -0.2307 -0.5508
11705SOL     OW36247   7.341   0.545   6.505 -0.3302  0.2056 -0.3389
11705SOL    HW136248   7.283   0.620   6.491 -0.2284  0.2969 -0.2791
11705SOL    HW236249   7.302   0.474   6.455 -1.3072 -0.1550  0.8941
11706SOL     OW36250   1.048   6.371   3.784  0.1059  0.8957 -0.1266
11706SOL    HW136251   1.009   6.394   3.868 -1.2338  1.4813 -0.8643
11706SOL    HW236252   0.974   6.340   3.731  1.0292 -0.1015 -0.8749
11707SOL     OW36253   4.421   4.768   6.852 -0.0217  0.6109 -0.4518
11707SOL    HW136254   4.493   4.793   6.795  0.0652 -0.8588 -1.0271
11707SOL    HW236255   4.346   4.818   6.819 -0.5335 -1.8021 -3.3930
11708SOL     OW36256   5.164   5.485   0.902 -0.1032  0.5090  0.1123
11708SOL    HW136257   5.071   5.501   0.886 -0.4811 -1.4985 -0.0038
11708SOL    HW236258   5.172   5.480   0.997  0.0342  1.3585  0.1534
11709SOL     OW36259   3.653   0.920   2.602  0.2430  0.2324  0.5593
11709SOL    HW136260   3.582   0.869   2.640 -0.1341 -0.0169 -0.4352
11709SOL    HW236261   3.622   0.943   2.514  1.6610 -0.5015 -0.1826
11710SOL     OW36262   7.088   6.258   3.172 -0.1889  0.0896 -0.1904
11710SOL    HW136263   7.120   6.345   3.148 -0.5181  0.4254  0.5437
11710SOL    HW236264   7.118   6.201   3.102 -0.5443  0.9097 -1.0358
11711SOL     OW36265   4.605   3.250   9.058 -0.4372  0.1378  0.0495
11711SOL    HW136266   4.608   3.234   9.153  0.3777 -0.0670 -0.0056
11711SOL    HW236267   4.611   3.162   9.019 -0.0725  0.2696 -0.1968
11712SOL     OW36268   4.360   3.026   1.513 -0.0520 -0.0420 -0.2002
11712SOL    HW136269   4.447   3.000   1.483  0.3487  0.3254  0.6011
11712SOL    HW236270   4.376   3.099   1.573 -0.9084 -0.0080  0.0028
11713SOL     OW36271   1.766   4.133   8.827 -0.3546  0.8651 -0.2007
11713SOL    HW136272   1.785   4.141   8.734 -1.0519  0.9368 -0.3462
11713SOL    HW236273   1.672   4.114   8.831 -0.2001  0.1852  0.4604
11714SOL     OW36274   7.164   8.620   7.473 -0.2276 -0.5991  0.1658
11714SOL    HW136275   7.240   8.659   7.430 -0.3933 -0.6327 -0.1594
11714SOL    HW236276   7.142   8.681   7.543 -1.3548  0.6525 -1.2039
11715SOL     OW36277   3.351   7.923   4.319 -0.7376  0.4160  0.9341
11715SOL    HW136278   3.378   7.948   4.407  0.6693 -1.6119  1.1559
11715SOL    HW236279   3.423   7.868   4.287  0.3752  3.5598 -2.7359
11716SOL     OW36280   6.219   7.323   8.091  0.5269  0.0784 -0.2517
11716SOL    HW136281   6.140   7.281   8.125 -0.3202  2.0789  0.4132
11716SOL    HW236282   6.191   7.363   8.009  0.7452  1.0864  0.1554
11717SOL     OW36283   7.620   5.037   1.240 -0.2364  0.0403 -0.4262
11717SOL    HW136284   7.681   4.974   1.201  2.2793  0.6772  2.1193
11717SOL    HW236285   7.612   5.106   1.175  0.1493 -1.0024 -1.6352
11718SOL     OW36286   8.101   4.257   3.993 -0.3355  0.2257 -0.4459
11718SOL    HW136287   8.081   4.297   4.078 -0.7065  0.5354 -0.6801
11718SOL    HW236288   8.056   4.312   3.929  0.3643  0.2930 -0.8875
11719SOL     OW36289   3.559   5.157   8.464  0.1805 -0.2233  0.0601
11719SOL    HW136290   3.530   5.072   8.499 -2.1973  0.0961 -0.9397
11719SOL    HW236291   3.521   5.221   8.524  0.7112  0.1718 -0.0284
11720SOL     OW36292   3.599   4.287   5.961  0.5333 -0.2896 -0.1934
11720SOL    HW136293   3.608   4.284   5.866 -2.2026 -0.2810 -0.5291
11720SOL    HW236294   3.645   4.367   5.987  1.9098 -0.6438 -1.3639
11721SOL     OW36295   3.908   5.305   6.371  0.3568 -0.5624 -0.1933
11721SOL    HW136296   3.979   5.367   6.354 -0.7767  1.3796  1.6092
11721SOL    HW236297   3.830   5.347   6.335 -0.1264 -2.0007 -0.8897
11722SOL     OW36298   3.170   0.191   4.667 -0.3118  0.0390 -0.3776
11722SOL    HW136299   3.129   0.122   4.719 -0.9444 -0.0768 -1.0188
11722SOL    HW236300   3.133   0.272   4.702 -0.7926 -0.0432 -0.6941
11723SOL     OW36301   0.156   2.427   3.242 -0.2509  0.0626 -0.1153
11723SOL    HW136302   0.230   2.373   3.271  0.4235  0.5290 -0.9306
11723SOL    HW236303   0.089   2.413   3.309  0.4327 -0.6670  0.4403
11724SOL     OW36304   7.682   6.548   0.693 -0.1210  0.2242  0.0154
11724SOL    HW136305   7.711   6.557   0.783 -0.4685 -0.2504  0.1790
11724SOL    HW236306   7.681   6.454   0.677 -1.3121  0.2319 -0.0589
11725SOL     OW36307   6.041   2.692   8.599  0.1646 -0.2082 -0.0125
11725SOL    HW136308   6.038   2.753   8.672  1.0260 -0.1111 -0.0465
11725SOL    HW236309   5.997   2.613   8.631 -1.1467  0.4824 -0.0430
11726SOL     OW36310   5.919   0.699   7.541 -0.4920  0.3185 -0.0518
11726SOL    HW136311   6.010   0.668   7.539 -0.2220  1.0871 -0.2264
11726SOL    HW236312   5.917   0.770   7.476 -0.8053  1.3856  1.0896
11727SOL     OW36313   8.620   0.315   3.304 -0.8645 -1.0374 -0.3742
11727SOL    HW136314   8.666   0.368   3.239 -1.0263 -0.8998 -0.3780
11727SOL    HW236315   8.550   0.273   3.255 -1.2845 -0.5540 -0.1966
11728SOL     OW36316   4.927   6.720   5.912  0.5726  0.0856 -0.1703
11728SOL    HW136317   4.865   6.754   5.848  1.4430 -0.0035 -1.0785
11728SOL    HW236318   4.939   6.629   5.887 -0.2982 -0.4012  1.1038
11729SOL     OW36319   7.521   3.901   2.420 -0.8702 -0.0717 -0.0390
11729SOL    HW136320   7.459   3.860   2.360 -0.6709  0.0294 -0.3158
11729SOL    HW236321   7.545   3.832   2.482 -2.1309  0.1726  0.7823
11730SOL     OW36322   8.787   5.187   5.782 -0.1553 -0.0866 -0.3891
11730SOL    HW136323   8.790   5.149   5.694 -1.4175  0.6963 -0.7861
11730SOL    HW236324   8.802   5.113   5.840 -1.4922 -1.0244 -1.1871
11731SOL     OW36325   4.583   7.035   5.211 -0.0937 -0.0551 -0.0934
11731SOL    HW136326   4.515   7.096   5.239  0.8092 -0.1428  2.4694
11731SOL    HW236327   4.665   7.082   5.223  0.4484 -0.6260 -1.3110
11732SOL     OW36328   7.281   0.213   7.750  0.2100 -0.2517  0.0041
11732SOL    HW136329   7.354   0.151   7.739  1.3376  1.0277 -0.0698
11732SOL    HW236330   7.319   0.298   7.726 -1.3708  0.4290 -0.1702
11733SOL     OW36331   3.773   4.241   6.547  0.0681  0.4292 -0.0601
11733SOL    HW136332   3.735   4.203   6.626 -2.7871 -1.5270 -2.1677
11733SOL    HW236333   3.792   4.166   6.491  2.8322  1.6962 -0.9919
11734SOL     OW36334   4.590   8.281   1.463  0.2572 -0.1408 -0.0838
11734SOL    HW136335   4.644   8.265   1.541 -0.4043  1.0007  0.6436
11734SOL    HW236336   4.512   8.228   1.476  0.7769 -1.0843 -0.6974
11735SOL     OW36337   2.048   6.512   8.452 -0.4128  0.6256  0.0576
11735SOL    HW136338   2.006   6.579   8.506  1.4543  1.4574  0.5557
11735SOL    HW236339   1.978   6.450   8.431 -1.2330  0.2697  3.4115
11736SOL     OW36340   0.794   0.986   1.637  0.1194  0.2763 -0.3610
11736SOL    HW136341   0.879   0.975   1.681 -0.4971  0.0198  0.7907
11736SOL    HW236342   0.812   0.965   1.545  1.4629  0.9436 -0.2806
11737SOL     OW36343   7.616   2.617   2.101 -0.0861  0.3632  0.3487
11737SOL    HW136344   7.575   2.631   2.016 -1.6832 -0.8331  0.8673
11737SOL    HW236345   7.704   2.654   2.092 -0.8149  1.8574 -1.2409
11738SOL     OW36346   8.835   2.250   0.555  0.6263 -0.4545  0.4932
11738SOL    HW136347   8.924   2.219   0.537  0.2995 -0.4468 -1.3136
11738SOL    HW236348   8.805   2.286   0.472 -1.0380 -0.3600  1.0997
11739SOL     OW36349   3.544   5.920   3.875 -0.1158 -0.1274  0.1776
11739SOL    HW136350   3.458   5.956   3.852 -0.4252 -0.5429  0.6761
11739SOL    HW236351   3.525   5.846   3.932  0.3390 -2.6636 -2.6729
11740SOL     OW36352   8.929   0.591   1.840 -0.2117  0.1099 -0.2354
11740SOL    HW136353   8.847   0.635   1.817  0.3373  0.7558 -1.0150
11740SOL    HW236354   8.922   0.505   1.800 -0.5730  0.1047 -0.1646
11741SOL     OW36355   7.148   0.825   1.676 -0.0729 -0.0838  0.2970
11741SOL    HW136356   7.124   0.899   1.620  0.8204  0.3982  0.5397
11741SOL    HW236357   7.180   0.866   1.757 -1.5302 -0.7692  1.2558
11742SOL     OW36358   4.688   0.574   7.465  0.4220  0.8180 -0.3406
11742SOL    HW136359   4.598   0.592   7.438 -0.0835  0.2772  0.8790
11742SOL    HW236360   4.709   0.643   7.527  0.8014  0.8626 -0.5173
11743SOL     OW36361   3.930   0.747   7.473  0.3339  0.1898  0.1001
11743SOL    HW136362   3.873   0.794   7.412 -0.6099 -0.4539  0.4699
11743SOL    HW236363   4.006   0.805   7.484  0.4465  0.3953 -1.5449
11744SOL     OW36364   5.913   2.558   6.895 -0.7640 -0.2461  0.6126
11744SOL    HW136365   5.931   2.531   6.804 -3.1550  0.9906 -0.3308
11744SOL    HW236366   5.837   2.505   6.920 -0.9741  0.4052  1.3791
11745SOL     OW36367   3.504   4.679   5.430  0.1676 -0.2156  0.0692
11745SOL    HW136368   3.523   4.593   5.393  0.1080 -0.3073  0.2541
11745SOL    HW236369   3.567   4.689   5.501 -1.0700 -0.9273  1.3341
11746SOL     OW36370   5.883   7.907   4.693  0.0443  0.5174 -0.0232
11746SOL    HW136371   5.928   7.879   4.613 -0.0584  0.1509  0.0427
11746SOL    HW236372   5.796   7.933   4.663 -0.0820  0.1315  0.0015
11747SOL     OW36373   8.386   4.827   1.883  0.4736  0.0819  0.8678
11747SOL    HW136374   8.307   4.861   1.840  1.2675  2.7720  1.3119
11747SOL    HW236375   8.375   4.732   1.884 -1.7279  0.2425 -1.0262
11748SOL     OW36376   7.256   7.891   2.888  0.1121 -0.0726  0.1872
11748SOL    HW136377   7.258   7.816   2.829  1.1269  0.0955 -0.0166
11748SOL    HW236378   7.245   7.967   2.830 -1.0920 -0.0643  0.4061
11749SOL     OW36379   1.136   4.598   4.963  0.1010  0.2056 -0.2576
11749SOL    HW136380   1.101   4.687   4.967  1.8121  0.8910  0.3355
11749SOL    HW236381   1.206   4.597   5.029 -1.4201 -2.2996  1.5034
11750SOL     OW36382   0.135   8.557   6.592 -0.0791  0.4357 -0.3161
11750SOL    HW136383   0.116   8.651   6.590  2.5702  1.0783  0.7928
11750SOL    HW236384   0.112   8.530   6.681 -0.0746  0.2289 -0.3783
11751SOL     OW36385   0.494   2.411   4.757  0.5879  0.0209  0.1629
11751SOL    HW136386   0.460   2.367   4.835 -0.8495  1.4684  0.3995
11751SOL    HW236387   0.450   2.366   4.684 -0.0445  0.3445  0.3396
11752SOL     OW36388   7.028   1.362   7.925 -0.2783  0.1111  0.0306
11752SOL    HW136389   7.015   1.268   7.910 -1.0490  0.1872  0.2038
11752SOL    HW236390   7.114   1.368   7.966  0.6658 -0.3516 -1.7424
11753SOL     OW36391   7.113   3.246   1.410 -0.7371 -0.0696  0.3839
11753SOL    HW136392   7.200   3.239   1.449 -1.5810  0.0500  2.3841
11753SOL    HW236393   7.128   3.239   1.316  1.2582 -1.7298  0.7641
11754SOL     OW36394   5.194   6.206   4.361 -0.3539 -0.5090  0.1170
11754SOL    HW136395   5.104   6.216   4.394 -0.0178  0.8986  0.6651
11754SOL    HW236396   5.227   6.128   4.404 -0.2231  0.7848  2.5591
11755SOL     OW36397   8.250   3.765   5.979 -0.9672  0.3145  0.2228
11755SOL    HW136398   8.226   3.813   6.058 -1.6776  1.2032 -0.4999
11755SOL    HW236399   8.340   3.792   5.962 -1.0034  0.5675  0.4161
11756SOL     OW36400   4.527   6.839   8.416 -0.7936 -0.3565  0.1655
11756SOL    HW136401   4.591   6.806   8.479  0.1988  0.9936 -0.1082
11756SOL    HW236402   4.444   6.801   8.445  0.0632 -1.8651  0.7195
11757SOL     OW36403   6.221   4.483   5.924 -0.0644  0.4219 -0.1451
11757SOL    HW136404   6.247   4.414   5.985 -1.3224 -1.3754 -1.5319
11757SOL    HW236405   6.168   4.438   5.858  2.0558  2.0643 -3.1724
11758SOL     OW36406   0.606   1.143   6.453  0.3290  0.8384  0.1635
11758SOL    HW136407   0.603   1.228   6.498  1.2002  1.7716 -1.4394
11758SOL    HW236408   0.524   1.138   6.405  0.5193  1.0448 -0.1874
11759SOL     OW36409   0.674   8.506   8.773  0.3754 -0.6108  0.6165
11759SOL    HW136410   0.601   8.452   8.744 -0.2658  0.7456 -0.3888
11759SOL    HW236411   0.638   8.594   8.780  1.7417 -0.0335  0.7653
11760SOL     OW36412   4.861   0.821   2.196  0.8045  0.5782 -0.4325
11760SOL    HW136413   4.845   0.915   2.186  1.1640  0.6094 -0.7456
11760SOL    HW236414   4.934   0.815   2.257 -1.0179  0.3995  1.8428
11761SOL     OW36415   6.241   6.804   2.972  0.1972 -0.1293  0.1289
11761SOL    HW136416   6.312   6.865   2.991 -0.2518  1.0922 -1.9147
11761SOL    HW236417   6.192   6.799   3.054  2.3729 -0.7408  1.4895
11762SOL     OW36418   5.594   4.929   7.539  0.2340  0.0517  0.1638
11762SOL    HW136419   5.646   5.009   7.544  0.6855  0.0921 -2.8760
11762SOL    HW236420   5.543   4.938   7.458 -0.3170 -2.3775  0.1402
11763SOL     OW36421   4.725   0.054   0.518  0.1449  0.0533 -0.2736
11763SOL    HW136422   4.744  -0.028   0.562  0.7933 -0.7637 -1.9797
11763SOL    HW236423   4.805   0.075   0.470 -0.0866  1.5686 -0.0450
11764SOL     OW36424   1.114   4.992   1.264  0.3468 -0.1802 -0.7046
11764SOL    HW136425   1.105   4.956   1.352  1.9710  0.8894 -0.0531
11764SOL    HW236426   1.023   5.003   1.234 -0.3281  0.8619  1.4452
11765SOL     OW36427   5.650   6.319   4.989 -0.2298  0.9127 -0.0531
11765SOL    HW136428   5.743   6.299   4.998 -0.3982  0.6209  1.1753
11765SOL    HW236429   5.605   6.248   5.035 -1.1444  0.2318 -1.8772
11766SOL     OW36430   1.315   2.891   1.686 -0.3781  0.3693 -0.1601
11766SOL    HW136431   1.366   2.835   1.744 -0.1991 -0.7121 -1.3204
11766SOL    HW236432   1.346   2.869   1.598 -1.4552  1.1175 -0.7498
11767SOL     OW36433   4.193   1.622   6.363  0.6035  0.0143  0.2349
11767SOL    HW136434   4.195   1.716   6.381 -2.3036 -0.0589  1.6304
11767SOL    HW236435   4.213   1.581   6.447  0.9855 -0.5924 -0.1473
11768SOL     OW36436   1.171   0.813   6.027 -0.0735  0.1613 -0.0744
11768SOL    HW136437   1.136   0.895   6.061  1.0254  0.1706  1.1332
11768SOL    HW236438   1.225   0.779   6.098  1.4510 -0.3861 -1.4356
11769SOL     OW36439   5.472   3.507   6.807 -0.0376 -0.3965  0.5669
11769SOL    HW136440   5.537   3.564   6.847 -0.5650 -0.3399  1.3678
11769SOL    HW236441   5.398   3.508   6.868 -0.5666 -0.9024 -0.0483
11770SOL     OW36442   1.585   5.927   7.458 -0.3053  0.0627 -0.3228
11770SOL    HW136443   1.603   5.946   7.366  0.4526 -0.5154 -0.3084
11770SOL    HW236444   1.552   5.837   7.458  0.3267 -0.1726  0.0322
11771SOL     OW36445   7.438   0.386   6.089  0.1533  1.2576 -0.0642
11771SOL    HW136446   7.373   0.335   6.138 -2.6025  0.7478 -3.8296
11771SOL    HW236447   7.400   0.474   6.085  1.3607  1.8146  0.3826
11772SOL     OW36448   8.973   4.106   8.045  0.4382  0.2707 -0.0230
11772SOL    HW136449   8.922   4.053   7.983  0.8045 -2.2928  1.7014
11772SOL    HW236450   8.908   4.140   8.106  0.3694  0.3192 -0.1237
11773SOL     OW36451   4.435   0.335   2.434  0.5140  0.2578 -0.3249
11773SOL    HW136452   4.427   0.377   2.520 -0.8803 -1.8064  0.6169
11773SOL    HW236453   4.365   0.376   2.382  0.6361  0.7155 -0.1393
11774SOL     OW36454   8.216   7.829   5.390 -0.1385  0.6262  0.1361
11774SOL    HW136455   8.303   7.857   5.420 -0.2007  0.9998 -0.0283
11774SOL    HW236456   8.165   7.910   5.388 -0.7373  0.2785  1.0627
11775SOL     OW36457   3.691   7.715   3.998 -0.5484  0.3576 -0.1755
11775SOL    HW136458   3.781   7.712   4.028 -0.5989 -1.0705 -0.0996
11775SOL    HW236459   3.656   7.628   4.017 -1.5003  0.4073 -1.5396
11776SOL     OW36460   7.930   6.135   7.133 -0.1400 -0.0193  0.4817
11776SOL    HW136461   7.947   6.202   7.198 -1.1390  0.3699  0.3746
11776SOL    HW236462   7.927   6.183   7.050  2.1646 -0.6557 -0.0328
11777SOL     OW36463   5.782   6.733   6.978 -0.1805  0.0094 -0.4913
11777SOL    HW136464   5.813   6.789   7.049  0.1692  1.1059 -1.4990
11777SOL    HW236465   5.768   6.791   6.904  0.4925 -1.2683 -1.6725
11778SOL     OW36466   6.853   2.386   8.678 -0.3530  0.0905  0.6786
11778SOL    HW136467   6.925   2.325   8.695 -2.0365 -2.5287 -0.8234
11778SOL    HW236468   6.830   2.372   8.587 -1.5845  2.2318  0.5929
11779SOL     OW36469   1.875   0.378   6.787  0.0574 -0.3353 -0.7058
11779SOL    HW136470   1.959   0.398   6.827 -0.4874 -0.2185  0.4254
11779SOL    HW236471   1.848   0.460   6.745  0.5205 -0.3883 -1.1105
11780SOL     OW36472   3.976   3.980   3.715  0.2675 -0.0281  0.1006
11780SOL    HW136473   3.887   3.997   3.747  0.2595 -1.5321  0.9321
11780SOL    HW236474   3.986   3.885   3.722  2.1549  0.1823  0.5881
11781SOL     OW36475   7.014   8.850   2.468 -0.3018  0.1539  0.0938
11781SOL    HW136476   6.948   8.833   2.536 -1.8159  3.7819 -0.2199
11781SOL    HW236477   6.966   8.842   2.386  0.4114  0.0325 -0.3178
11782SOL     OW36478   4.343   2.179   3.488 -0.1929  0.0126 -0.2164
11782SOL    HW136479   4.263   2.139   3.454 -0.1045  0.0513 -0.4716
11782SOL    HW236480   4.404   2.178   3.414  0.0090  0.0758 -0.0520
11783SOL     OW36481   1.419   3.917   8.260 -0.3259  0.4596  0.2301
11783SOL    HW136482   1.486   3.961   8.312  0.3815 -1.3732  0.9649
11783SOL    HW236483   1.469   3.866   8.196 -1.1303  0.9322 -0.7994
11784SOL     OW36484   0.674   2.387   6.596 -0.0346 -0.0422 -0.2759
11784SOL    HW136485   0.600   2.369   6.654  0.5778 -2.4261 -0.1331
11784SOL    HW236486   0.691   2.304   6.552  1.9666  0.6887 -1.0014
11785SOL     OW36487   3.576   8.369   4.818 -0.1527 -0.5864  0.1310
11785SOL    HW136488   3.566   8.324   4.734  0.9515  0.9918 -0.9036
11785SOL    HW236489   3.556   8.460   4.798 -1.0723 -0.3716  1.8837
11786SOL     OW36490   3.529   4.735   9.097 -0.2766 -0.1204 -0.2978
11786SOL    HW136491   3.445   4.779   9.104 -0.3556 -0.4945  1.9591
11786SOL    HW236492   3.590   4.792   9.144  0.3817 -0.6318 -0.5107
11787SOL     OW36493   9.091   1.135   7.856  0.1333  0.0415 -0.4839
11787SOL    HW136494   9.137   1.116   7.774  0.6785  0.0203 -0.1804
11787SOL    HW236495   9.048   1.219   7.841 -0.1920 -0.2113 -0.9653
11788SOL     OW36496   1.935   2.021   7.484 -0.6671  0.1431 -0.2182
11788SOL    HW136497   1.998   2.042   7.415  0.2649  0.4934  0.7145
11788SOL    HW236498   1.976   2.052   7.564 -2.3170  0.9956  0.3465
11789SOL     OW36499   7.191   3.854   2.889  0.3586 -0.2497  0.0335
11789SOL    HW136500   7.100   3.877   2.905  0.2114 -0.6235 -0.2326
11789SOL    HW236501   7.230   3.847   2.976  0.7978  2.4247  0.1266
11790SOL     OW36502   5.092   1.111   5.332  0.1919 -0.2140 -0.0665
11790SOL    HW136503   5.058   1.160   5.407 -1.7631 -0.3094 -0.8173
11790SOL    HW236504   5.181   1.086   5.357  0.2863  1.4077  1.4170
11791SOL     OW36505   6.361   8.840   2.645  0.4204 -0.0646 -0.0404
11791SOL    HW136506   6.357   8.752   2.681 -0.1283 -1.2199 -2.6931
11791SOL    HW236507   6.447   8.873   2.674  0.4650 -1.2754  1.3325
11792SOL     OW36508   4.935   2.492   6.910  0.5091  0.2029 -0.8653
11792SOL    HW136509   4.875   2.451   6.973  1.3397  0.8323  0.3854
11792SOL    HW236510   4.878   2.531   6.844 -0.4290  0.1627 -0.0965
11793SOL     OW36511   5.634   6.890   8.079 -0.6939  0.2544 -0.0068
11793SOL    HW136512   5.726   6.892   8.051 -1.1894 -1.8633 -2.1078
11793SOL    HW236513   5.635   6.845   8.164  0.2470  0.7070  0.2298
11794SOL     OW36514   4.096   6.452   0.035 -0.3088 -0.0020 -1.0559
11794SOL    HW136515   4.171   6.510   0.022  0.4581 -0.9037 -0.7677
11794SOL    HW236516   4.019   6.509   0.026  0.4284  1.2906  0.3110
11795SOL     OW36517   2.125   2.847   1.326  0.2603  0.3583  0.3699
11795SOL    HW136518   2.158   2.905   1.394  0.4972  0.4333  0.1892
11795SOL    HW236519   2.169   2.764   1.342 -0.6954 -0.0276  1.1430
11796SOL     OW36520   1.064   6.936   6.672  0.2319 -0.5577 -0.1426
11796SOL    HW136521   1.023   6.851   6.652 -1.1006 -0.7883  2.9670
11796SOL    HW236522   1.041   6.991   6.598 -1.0296 -2.2392 -1.0924
11797SOL     OW36523   6.728   7.430   0.397 -0.4012  0.2342 -0.2939
11797SOL    HW136524   6.808   7.464   0.438  1.3215 -3.9287  0.2810
11797SOL    HW236525   6.659   7.449   0.460  0.4900  1.9254  0.2556
11798SOL     OW36526   5.134   4.380   3.650  0.9838 -0.0354 -0.2417
11798SOL    HW136527   5.194   4.307   3.641  1.4539  0.4340 -1.1209
11798SOL    HW236528   5.097   4.391   3.562  1.1839  0.9933 -0.2089
11799SOL     OW36529   1.793   2.132   8.074 -0.5551  0.2437  0.2984
11799SOL    HW136530   1.748   2.209   8.042 -0.3655  0.2002 -0.0726
11799SOL    HW236531   1.736   2.059   8.049  0.0733  0.1224 -0.8417
11800SOL     OW36532   1.855   0.767   8.041 -0.1658 -0.3205 -0.2227
11800SOL    HW136533   1.886   0.696   7.985  1.7196 -1.1371  1.7222
11800SOL    HW236534   1.824   0.723   8.120 -3.2768  0.7530 -0.6891
11801SOL     OW36535   2.694   4.697   1.864  0.7850  0.2473 -0.1473
11801SOL    HW136536   2.737   4.620   1.826  0.5710 -0.5357  1.1280
11801SOL    HW236537   2.621   4.661   1.914  0.8496  1.2564  0.7036
11802SOL     OW36538   6.028   1.310   1.623  0.3003  0.6339 -0.0389
11802SOL    HW136539   5.983   1.226   1.633  1.6380 -0.2118 -0.8013
11802SOL    HW236540   6.089   1.314   1.696  0.1291  1.0388  0.0889
11803SOL     OW36541   6.348   7.502   6.144  0.1757 -0.5761 -0.2033
11803SOL    HW136542   6.399   7.471   6.219  0.9364  1.8186  0.3702
11803SOL    HW236543   6.319   7.422   6.099  0.7596 -2.0607  1.9124
11804SOL     OW36544   1.262   7.459   7.842 -0.6361 -0.0439  0.3869
11804SOL    HW136545   1.267   7.368   7.813 -1.3249  0.3761 -1.1841
11804SOL    HW236546   1.279   7.456   7.936  1.1373 -1.5795  0.0763
11805SOL     OW36547   5.071   4.907   2.580 -0.3854 -0.0612 -0.3486
11805SOL    HW136548   5.149   4.896   2.634 -1.9308 -1.4633  1.8121
11805SOL    HW236549   5.027   4.984   2.617 -1.2735 -0.8214  0.2638
11806SOL     OW36550   3.377   6.127   0.567  0.3533 -0.0213 -0.1610
11806SOL    HW136551   3.372   6.145   0.661 -2.2309  0.1733 -0.2575
11806SOL    HW236552   3.289   6.096   0.544  1.0426 -0.4505 -2.4386
11807SOL     OW36553   3.570   8.089   1.495 -0.1950 -0.2456  0.6604
11807SOL    HW136554   3.563   8.098   1.590 -2.7574  4.0863  0.3210
11807SOL    HW236555   3.639   8.152   1.471 -0.9395  0.1724 -0.4428
11808SOL     OW36556   4.061   7.581   7.867  0.0546 -0.2123 -0.3137
11808SOL    HW136557   4.109   7.586   7.950  1.6288 -1.2467 -1.1101
11808SOL    HW236558   4.029   7.491   7.864  0.9388 -0.5151 -1.2870
11809SOL     OW36559   0.692   8.552   4.506  0.6238  0.0527  0.2573
11809SOL    HW136560   0.778   8.510   4.506  1.0092  0.5881 -2.8955
11809SOL    HW236561   0.638   8.496   4.451 -0.5500  0.6579  0.7605
11810SOL     OW36562   8.784   6.491   6.027  0.2491 -0.1417 -0.6675
11810SOL    HW136563   8.729   6.558   6.067  0.7359 -0.4315  0.5428
11810SOL    HW236564   8.747   6.477   5.940 -0.7144  0.6775 -0.3983
11811SOL     OW36565   3.101   5.758   0.013 -0.3551  0.0434 -0.6594
11811SOL    HW136566   3.090   5.735  -0.079  1.5378 -0.1069 -0.8939
11811SOL    HW236567   3.196   5.762   0.026 -0.5740  0.5465  1.1713
11812SOL     OW36568   8.456   8.304   0.923  0.2878 -0.0848 -0.3094
11812SOL    HW136569   8.451   8.218   0.879  0.4875  0.4123 -1.3429
11812SOL    HW236570   8.397   8.296   0.998 -0.5120 -0.8021 -0.9839
11813SOL     OW36571   0.270   7.002   5.485  0.6759 -0.3938  0.6805
11813SOL    HW136572   0.262   6.907   5.497 -1.0118 -0.5387 -1.0569
11813SOL    HW236573   0.184   7.036   5.511  0.6727  0.4417 -0.3663
11814SOL     OW36574   3.732   8.695   0.767  0.6423  0.5702  0.1976
11814SOL    HW136575   3.827   8.689   0.780  0.5818  1.5580  1.2785
11814SOL    HW236576   3.699   8.725   0.852 -0.4134  2.1827 -0.7499
11815SOL     OW36577   2.558   5.865   1.383 -0.1819  0.1501  0.1064
11815SOL    HW136578   2.480   5.841   1.432  0.4619 -1.1804  0.5361
11815SOL    HW236579   2.543   5.829   1.295  0.5253 -1.3864  0.5836
11816SOL     OW36580   7.500   1.598   2.230 -0.2298 -0.4420  0.6042
11816SOL    HW136581   7.454   1.545   2.165 -1.7503  2.0547 -0.5434
11816SOL    HW236582   7.455   1.580   2.313 -0.2278 -1.4318  0.4033
11817SOL     OW36583   5.140   6.075   8.337  0.3434 -0.7592 -0.7688
11817SOL    HW136584   5.168   5.993   8.297  1.9628 -1.4758  1.5981
11817SOL    HW236585   5.094   6.049   8.417  0.4508  0.5973 -0.2306
11818SOL     OW36586   8.765   2.612   3.159  0.1719  0.2777 -0.1751
11818SOL    HW136587   8.828   2.677   3.191 -0.2555  0.0424  1.2249
11818SOL    HW236588   8.681   2.657   3.161  0.0263  0.0117 -0.1935
11819SOL     OW36589   3.619   3.317   6.643  0.0488  0.1222 -0.5939
11819SOL    HW136590   3.676   3.247   6.674 -0.7261  1.0086  3.4679
11819SOL    HW236591   3.530   3.285   6.661 -0.4616  1.0517 -1.3532
11820SOL     OW36592   1.725   8.273   6.406 -0.3981  0.1828 -0.0578
11820SOL    HW136593   1.699   8.250   6.317 -0.7835 -0.5473  0.2302
11820SOL    HW236594   1.819   8.253   6.409 -0.3264  0.4613 -0.3732
11821SOL     OW36595   1.579   8.710   3.290 -0.1370 -0.0762 -0.0571
11821SOL    HW136596   1.606   8.707   3.198  1.0108 -0.4112  0.2781
11821SOL    HW236597   1.562   8.802   3.307  1.8572  0.3195 -0.0106
11822SOL     OW36598   7.930   2.872   5.623 -0.4355 -0.1422  0.1031
11822SOL    HW136599   8.021   2.899   5.610 -0.1082 -1.5217 -0.7362
11822SOL    HW236600   7.931   2.777   5.609 -1.6350 -0.5326  2.1849
11823SOL     OW36601   3.803   3.158   3.539 -0.0035 -0.0059  0.6421
11823SOL    HW136602   3.732   3.141   3.477  0.4410 -0.7490  0.3311
11823SOL    HW236603   3.759   3.160   3.625 -0.4396 -0.1750  0.4267
11824SOL     OW36604   6.075   8.681   4.532 -0.0008 -0.3023  0.1244
11824SOL    HW136605   6.141   8.706   4.468 -0.1677 -0.3125 -0.0542
11824SOL    HW236606   6.053   8.763   4.578  2.2639 -0.7455  2.2491
11825SOL     OW36607   7.592   6.459   7.310  0.2223 -0.1391  0.1082
11825SOL    HW136608   7.545   6.542   7.320  0.6427 -0.0462  1.5095
11825SOL    HW236609   7.662   6.478   7.247 -0.3350  0.2786 -0.3898
11826SOL     OW36610   4.936   6.330   9.113  0.4943  0.6872  0.2125
11826SOL    HW136611   5.002   6.283   9.163  0.9830  0.6236 -0.4764
11826SOL    HW236612   4.881   6.372   9.179  0.6954  0.0235  0.8115
11827SOL     OW36613   7.891   2.873   3.821 -0.1349 -0.0163  0.0782
11827SOL    HW136614   7.903   2.792   3.771  0.2238 -0.4336  0.8242
11827SOL    HW236615   7.812   2.912   3.785 -0.3197 -0.7137 -0.2812
11828SOL     OW36616   8.376   0.047   8.320 -0.4871 -0.6459 -0.3185
11828SOL    HW136617   8.401   0.045   8.412 -1.5120 -1.3781 -0.0333
11828SOL    HW236618   8.441   0.104   8.278 -0.2589  0.0318  0.9187
11829SOL     OW36619   0.743   8.068   0.695 -0.0013 -0.2046 -0.0041
11829SOL    HW136620   0.710   8.085   0.783 -2.4045  0.4681 -0.9474
11829SOL    HW236621   0.792   8.147   0.673  0.1037 -0.1191  0.5254
11830SOL     OW36622   0.306   7.743   2.194 -0.7512 -0.4357 -0.0763
11830SOL    HW136623   0.251   7.785   2.260  0.8301 -0.3478  1.2322
11830SOL    HW236624   0.266   7.658   2.179 -1.2625 -0.3552  0.8013
11831SOL     OW36625   3.306   4.954   2.893 -0.8287 -0.2832 -0.5314
11831SOL    HW136626   3.270   4.869   2.868 -1.8547 -0.3702  1.0621
11831SOL    HW236627   3.400   4.947   2.875 -0.7081 -2.1618  0.5488
11832SOL     OW36628   0.200   7.877   2.477 -0.3663 -0.5915  0.5088
11832SOL    HW136629   0.284   7.922   2.477 -0.1604 -0.9768  0.5550
11832SOL    HW236630   0.215   7.797   2.527 -0.5795 -0.9934 -0.0502
11833SOL     OW36631   7.998   0.233   5.653  0.1263 -0.3467 -0.3438
11833SOL    HW136632   7.929   0.170   5.672 -1.5233  0.5050 -2.9350
11833SOL    HW236633   7.961   0.318   5.678  1.1997 -0.0666  0.4076
11834SOL     OW36634   0.624   4.229   5.539 -0.0356 -0.2783 -0.3221
11834SOL    HW136635   0.579   4.208   5.457 -0.7562 -0.1977  0.0474
11834SOL    HW236636   0.677   4.305   5.517 -0.3621 -0.1438 -0.6718
11835SOL     OW36637   3.100   2.468   0.527 -0.4971 -0.1894 -0.3901
11835SOL    HW136638   3.167   2.427   0.473 -2.1364 -0.9194 -1.9639
11835SOL    HW236639   3.096   2.559   0.496  1.0021  0.4166  1.0093
11836SOL     OW36640   8.397   1.169   7.065  0.6834  0.0959  0.2069
11836SOL    HW136641   8.418   1.093   7.119  0.7933 -0.7422 -0.9738
11836SOL    HW236642   8.480   1.214   7.053  0.8137 -0.1933  0.0219
11837SOL     OW36643   0.152   6.288   4.782  0.2090  0.8200  0.1707
11837SOL    HW136644   0.080   6.342   4.813 -0.5862  0.4864 -1.0081
11837SOL    HW236645   0.204   6.269   4.860 -1.1577  0.8078  1.1151
11838SOL     OW36646   1.849   3.557   2.797  0.3050  0.0389 -0.0737
11838SOL    HW136647   1.920   3.514   2.750 -0.6444 -2.1485  0.3706
11838SOL    HW236648   1.843   3.510   2.880 -2.1100 -0.3527 -0.3978
11839SOL     OW36649   8.802   8.591   5.560  0.0888 -0.2162  0.2446
11839SOL    HW136650   8.740   8.534   5.515 -1.7281  0.5795  1.6295
11839SOL    HW236651   8.761   8.609   5.645  1.8664  0.9755  0.9006
11840SOL     OW36652   4.198   1.542   1.810  0.3528  0.6049 -0.1832
11840SOL    HW136653   4.222   1.506   1.896  1.2446  0.2967 -0.5497
11840SOL    HW236654   4.281   1.568   1.771 -0.2035  2.3616 -0.2589
11841SOL     OW36655   2.872   8.910   2.324  0.3630  0.3890  0.3388
11841SOL    HW136656   2.957   8.866   2.327  1.0211  1.6302  0.7258
11841SOL    HW236657   2.868   8.946   2.235 -0.2320 -0.5349 -0.0211
11842SOL     OW36658   8.528   7.356   7.518  0.0642 -0.2548 -0.3563
11842SOL    HW136659   8.560   7.301   7.446  0.4821 -1.0370  0.4134
11842SOL    HW236660   8.471   7.299   7.568 -1.9804  0.8863 -1.2388
11843SOL     OW36661   6.538   1.762   4.565 -0.2665 -0.2509 -0.3130
11843SOL    HW136662   6.588   1.777   4.645 -0.3134 -1.1039 -0.1161
11843SOL    HW236663   6.526   1.667   4.561 -1.6987 -0.0838 -0.4590
11844SOL     OW36664   7.732   5.971   7.863  0.2240 -0.2904 -0.1664
11844SOL    HW136665   7.745   5.947   7.771 -0.7539 -0.0994 -0.3604
11844SOL    HW236666   7.762   5.894   7.911  2.4512  0.2552 -0.5351
11845SOL     OW36667   8.140   7.230   5.151  0.3745  0.2653  0.0599
11845SOL    HW136668   8.232   7.219   5.128  0.5857  0.6199  0.7137
11845SOL    HW236669   8.117   7.317   5.117 -0.0943 -0.3303 -1.2544
11846SOL     OW36670   8.988   0.955   5.852 -0.1162 -0.0434 -0.1875
11846SOL    HW136671   8.941   0.993   5.926 -0.3722 -0.0192 -0.3615
11846SOL    HW236672   9.057   0.902   5.892  0.3728  0.7676  0.0542
11847SOL     OW36673   5.481   8.715   5.026  0.5119  0.4117  0.2665
11847SOL    HW136674   5.547   8.681   4.967 -0.3972 -0.9919 -0.0007
11847SOL    HW236675   5.470   8.806   5.001  2.3430  0.6958  0.3520
11848SOL     OW36676   3.010   0.056   2.453  0.8800 -0.0196  0.4061
11848SOL    HW136677   3.029   0.149   2.448  1.1218 -0.1145 -0.5796
11848SOL    HW236678   2.945   0.040   2.385 -0.9826 -0.1621  2.1102
11849SOL     OW36679   0.721   5.536   8.257 -0.2259 -0.0162  0.4921
11849SOL    HW136680   0.652   5.583   8.305  0.2943  0.4746  0.7862
11849SOL    HW236681   0.801   5.584   8.279  0.1184 -0.1977 -0.3449
11850SOL     OW36682   5.900   7.599   1.311 -0.4526 -0.6663 -0.0573
11850SOL    HW136683   5.907   7.612   1.405  0.4757  1.5909 -0.3830
11850SOL    HW236684   5.926   7.683   1.273  0.8413 -2.0084 -2.3722
11851SOL     OW36685   8.467   1.589   8.562  0.8563  0.0194  0.3532
11851SOL    HW136686   8.508   1.639   8.491 -2.0269 -0.2260 -1.6849
11851SOL    HW236687   8.411   1.652   8.607  0.4008 -0.4443  0.4531
11852SOL     OW36688   8.680   3.724   2.199  0.3172 -0.4930 -0.1259
11852SOL    HW136689   8.765   3.720   2.156 -0.0921 -1.6716 -0.9004
11852SOL    HW236690   8.692   3.785   2.272  1.3824  0.5851 -1.1558
11853SOL     OW36691   7.063   0.679   1.996  0.2221  0.2987 -0.7855
11853SOL    HW136692   7.120   0.718   2.063 -0.2962 -0.4909  0.1332
11853SOL    HW236693   7.124   0.648   1.928  0.7717  0.8169 -0.5397
11854SOL     OW36694   4.457   4.148   0.893 -0.4665 -0.0001  0.0282
11854SOL    HW136695   4.409   4.162   0.811  0.0493 -1.1147 -0.5000
11854SOL    HW236696   4.453   4.232   0.938  0.8805  1.2856 -2.0279
11855SOL     OW36697   1.665   1.335   4.954  0.2817 -0.0704  0.1353
11855SOL    HW136698   1.627   1.253   4.987 -1.0571  0.1726 -0.7038
11855SOL    HW236699   1.633   1.341   4.864  0.9056  1.0540 -0.0273
11856SOL     OW36700   7.480   2.857   8.292  0.1322  0.0806  0.1320
11856SOL    HW136701   7.410   2.794   8.309  1.0791 -1.3445 -0.9413
11856SOL    HW236702   7.480   2.915   8.368 -0.8047 -1.2092  1.1609
11857SOL     OW36703   0.082   5.290   1.024  0.5556  0.0394 -0.5775
11857SOL    HW136704   0.068   5.373   0.979  2.5174 -0.0516 -1.4558
11857SOL    HW236705  -0.003   5.271   1.065 -0.6844  1.2259 -2.3897
11858SOL     OW36706   8.779   5.278   3.520 -0.2682  0.3960  0.3819
11858SOL    HW136707   8.810   5.363   3.487 -1.2259 -0.0919 -1.9995
11858SOL    HW236708   8.685   5.289   3.528 -0.3432 -0.2991  0.4910
11859SOL     OW36709   1.876   6.829   1.567 -0.8393 -0.7796 -0.3156
11859SOL    HW136710   1.803   6.790   1.614 -1.6269  1.7337  0.7469
11859SOL    HW236711   1.836   6.873   1.493 -0.3401  0.0494 -0.1093
11860SOL     OW36712   9.083   4.080   5.007 -0.7618  0.4060 -0.0672
11860SOL    HW136713   9.044   3.992   5.006  1.3327 -0.5906 -1.4017
11860SOL    HW236714   9.055   4.120   4.925 -0.3615  0.3311 -0.2427
11861SOL     OW36715   2.673   8.836   6.095 -0.3999  0.2769 -0.0663
11861SOL    HW136716   2.747   8.897   6.090  0.5703 -0.7833  0.8721
11861SOL    HW236717   2.643   8.843   6.186 -0.2184 -0.7079  0.0750
11862SOL     OW36718   3.926   8.333   7.702  0.6871  0.3673  0.0687
11862SOL    HW136719   3.920   8.241   7.678 -0.4731 -0.0909  1.9359
11862SOL    HW236720   3.938   8.334   7.797 -1.3099  2.1185  0.3984
11863SOL     OW36721   6.733   1.224   8.395 -0.2987 -0.2598  0.1297
11863SOL    HW136722   6.794   1.259   8.330 -1.7840  0.5082 -0.9083
11863SOL    HW236723   6.668   1.175   8.345 -1.9280  0.9886  0.8853
11864SOL     OW36724   8.642   7.386   4.024 -0.4687  0.4278  0.0060
11864SOL    HW136725   8.594   7.469   4.026  2.0808  2.0474  3.1084
11864SOL    HW236726   8.598   7.331   4.088  1.2069  1.6922  2.3963
11865SOL     OW36727   1.129   4.521   2.733  0.0967  0.3611  0.7149
11865SOL    HW136728   1.036   4.497   2.741 -0.2892  1.8276  0.8591
11865SOL    HW236729   1.137   4.602   2.782  1.3206  0.6057  0.1387
11866SOL     OW36730   7.864   1.444   3.195 -1.0140  0.1964 -0.4112
11866SOL    HW136731   7.773   1.471   3.195 -0.9524  0.4277 -1.2318
11866SOL    HW236732   7.888   1.440   3.288 -1.8115  0.2583 -0.1944
11867SOL     OW36733   7.333   3.769   2.260  0.0919 -0.1036 -0.5778
11867SOL    HW136734   7.385   3.689   2.252 -2.5177 -1.8234 -1.7533
11867SOL    HW236735   7.326   3.802   2.171  0.8818  1.3119 -0.1381
11868SOL     OW36736   8.750   0.163   4.885 -0.0723  0.1775  0.2728
11868SOL    HW136737   8.674   0.142   4.830  0.4620 -0.9758 -0.0445
11868SOL    HW236738   8.725   0.245   4.929 -1.5214 -0.2054  0.2178
11869SOL     OW36739   2.265   7.560   3.875 -0.1615  0.1647 -0.9658
11869SOL    HW136740   2.241   7.514   3.795  0.8606 -2.8197  0.2857
11869SOL    HW236741   2.356   7.533   3.891 -0.4499  0.3963  1.3568
11870SOL     OW36742   8.718   2.421   9.009 -0.5349  0.0023 -0.2762
11870SOL    HW136743   8.812   2.433   8.996 -0.2299 -0.7809  0.9939
11870SOL    HW236744   8.677   2.463   8.933  0.7931  1.1732 -0.3769
11871SOL     OW36745   4.775   3.530   2.822  0.4473  0.1500 -0.3624
11871SOL    HW136746   4.688   3.560   2.848 -0.8406 -1.4212 -2.5427
11871SOL    HW236747   4.793   3.576   2.740  1.1386 -0.4250 -0.5470
11872SOL     OW36748   2.569   8.561   1.521 -0.1692  0.1960 -0.3537
11872SOL    HW136749   2.546   8.533   1.433 -0.6266 -0.0982 -0.1494
11872SOL    HW236750   2.485   8.577   1.564  0.0737  1.9386 -0.4649
11873SOL     OW36751   0.511   3.202   7.103  0.1977  0.2470  0.0510
11873SOL    HW136752   0.573   3.157   7.162  0.2396  1.3070  0.8492
11873SOL    HW236753   0.547   3.188   7.016 -0.2693 -2.0164  0.1657
11874SOL     OW36754   7.516   2.767   1.887  0.1414  0.4556  0.0047
11874SOL    HW136755   7.509   2.818   1.806  0.3844 -0.1892 -0.4261
11874SOL    HW236756   7.495   2.830   1.956  1.5155  1.4444 -0.4277
11875SOL     OW36757   0.483   6.226   7.569 -0.4074  0.2312  0.0045
11875SOL    HW136758   0.493   6.176   7.488  2.1655  0.2192  0.2577
11875SOL    HW236759   0.487   6.160   7.638 -0.0580  0.4842  0.2271
11876SOL     OW36760   5.955   5.197   4.830 -0.2885  0.0078 -0.2477
11876SOL    HW136761   6.044   5.170   4.853 -1.5209 -2.0498  2.7260
11876SOL    HW236762   5.950   5.289   4.855  0.8455  0.0172 -0.0060
11877SOL     OW36763   8.713   3.971   3.470  0.2142  0.5615  0.2532
11877SOL    HW136764   8.696   3.968   3.376  1.1670  2.3514 -0.0247
11877SOL    HW236765   8.729   3.880   3.495  0.4703  0.1186 -1.4023
11878SOL     OW36766   5.009   5.182   5.436 -0.3152 -0.0731  0.3060
11878SOL    HW136767   4.995   5.230   5.354  2.2272 -1.3212 -1.0014
11878SOL    HW236768   4.985   5.243   5.505 -1.6872  1.3410 -1.3428
11879SOL     OW36769   3.842   5.475   5.059 -0.2431 -0.5894  0.6240
11879SOL    HW136770   3.883   5.482   5.145  2.2240  0.3012 -0.5247
11879SOL    HW236771   3.880   5.396   5.021 -1.0944 -0.8174  0.2155
11880SOL     OW36772   8.024   4.210   0.066 -0.0039 -0.0814 -0.0173
11880SOL    HW136773   7.971   4.208  -0.014  0.8596 -1.1228 -0.5921
11880SOL    HW236774   8.009   4.125   0.107  0.5534 -0.0515  0.2597
11881SOL     OW36775   5.945   1.802   5.613  0.4514 -0.6188  0.2386
11881SOL    HW136776   6.001   1.740   5.566  0.5899 -0.6501  0.4422
11881SOL    HW236777   5.873   1.820   5.553  2.0892  1.5963 -1.2404
11882SOL     OW36778   7.286   2.686   1.035 -0.2357 -0.6944 -0.1521
11882SOL    HW136779   7.304   2.670   1.127 -0.8338  0.6390  0.2097
11882SOL    HW236780   7.342   2.623   0.989  1.2433 -0.3418  1.0666
11883SOL     OW36781   2.998   0.723   0.722  0.5985  0.1863  0.0071
11883SOL    HW136782   2.938   0.655   0.691 -0.9348  1.1863  0.6511
11883SOL    HW236783   3.006   0.707   0.816 -0.7364  1.5412  0.3994
11884SOL     OW36784   6.006   8.059   7.546 -0.1296  0.6823 -0.0913
11884SOL    HW136785   6.058   8.036   7.469 -0.8063  1.0701 -0.6742
11884SOL    HW236786   6.071   8.081   7.613  0.4827 -0.6436 -0.2238
11885SOL     OW36787   3.546   2.736   1.484  0.4756  0.4310  0.3968
11885SOL    HW136788   3.618   2.707   1.427 -0.9856  0.4453 -1.5582
11885SOL    HW236789   3.576   2.821   1.518  0.6101  1.4870 -2.0935
11886SOL     OW36790   1.877   4.528   3.697 -0.1282  0.1748 -0.1063
11886SOL    HW136791   1.813   4.478   3.748  0.5429  0.4884  1.0900
11886SOL    HW236792   1.918   4.587   3.761  3.2103 -1.8143 -0.1740
11887SOL     OW36793   6.888   1.961   8.773 -0.0804  0.2036 -0.5176
11887SOL    HW136794   6.978   1.948   8.804  0.0628  1.1408 -0.5021
11887SOL    HW236795   6.855   2.033   8.827 -0.7624  0.0199 -0.6901
11888SOL     OW36796   2.262   1.538   1.905  0.2568  0.4409  0.2884
11888SOL    HW136797   2.193   1.533   1.839  0.7527  2.7645 -0.4995
11888SOL    HW236798   2.231   1.483   1.977 -0.8468 -1.2004 -1.3658
11889SOL     OW36799   6.597   8.339   5.343 -0.1037 -0.1983  0.7100
11889SOL    HW136800   6.686   8.356   5.312  0.3123 -0.3871  1.7589
11889SOL    HW236801   6.609   8.290   5.424 -1.1083  1.4938  1.9464
11890SOL     OW36802   5.831   8.868   2.145  0.3936 -0.2504  0.1637
11890SOL    HW136803   5.839   8.845   2.238 -2.4808 -1.3515  0.2440
11890SOL    HW236804   5.832   8.783   2.100 -0.7831  0.0624 -0.5033
11891SOL     OW36805   0.469   4.794   8.313 -0.0407 -0.1893 -0.3081
11891SOL    HW136806   0.495   4.883   8.334 -0.7982  0.5657 -2.3121
11891SOL    HW236807   0.391   4.778   8.366  0.7150 -0.0787  0.8635
11892SOL     OW36808   2.108   6.432   2.852 -0.1612  0.8216  0.4094
11892SOL    HW136809   2.072   6.474   2.774  1.4557 -0.4582 -1.1114
11892SOL    HW236810   2.176   6.491   2.882  0.4471  0.4691 -0.2578
11893SOL     OW36811   2.490   4.000   1.217 -0.4656  0.1100 -0.0590
11893SOL    HW136812   2.514   3.993   1.309  0.7529  0.4780 -0.3382
11893SOL    HW236813   2.503   4.093   1.195  1.4963 -0.3572 -1.1695
11894SOL     OW36814   6.064   0.237   5.487 -0.2377 -0.2047 -0.2102
11894SOL    HW136815   6.113   0.213   5.409 -0.7112  0.3700 -0.6949
11894SOL    HW236816   6.120   0.212   5.560  0.4705 -0.1832 -0.7419
11895SOL     OW36817   7.743   4.972   3.037 -0.0603 -0.7307  0.0674
11895SOL    HW136818   7.829   4.989   3.074 -0.0278 -0.8386  0.0430
11895SOL    HW236819   7.695   4.929   3.108  0.0027 -0.9395 -0.0166
11896SOL     OW36820   2.775   5.541   4.007 -0.1085 -0.2526  0.0759
11896SOL    HW136821   2.827   5.567   3.931 -0.3702 -0.8048 -0.3003
11896SOL    HW236822   2.699   5.600   4.005 -0.3925 -0.6304 -0.4140
11897SOL     OW36823   6.617   7.691   7.032  0.3711 -0.0488  0.5336
11897SOL    HW136824   6.563   7.748   6.978  1.0835  1.9314  1.7857
11897SOL    HW236825   6.703   7.694   6.991  0.6416  0.5579  1.1392
11898SOL     OW36826   7.970   4.220   7.184  0.5689 -0.1681  0.1151
11898SOL    HW136827   8.063   4.223   7.161  1.1172  1.7684  2.2076
11898SOL    HW236828   7.964   4.272   7.264 -2.0169 -1.8970  1.1757
11899SOL     OW36829   5.405   0.120   4.402  0.8061  0.2785 -0.3055
11899SOL    HW136830   5.423   0.106   4.308 -0.4054  0.6938 -0.6201
11899SOL    HW236831   5.316   0.085   4.414  0.9473  0.2413  0.6967
11900SOL     OW36832   3.778   2.998   8.817  0.1112  0.7927 -0.3126
11900SOL    HW136833   3.722   3.011   8.893  1.5451  1.9237  0.6045
11900SOL    HW236834   3.824   3.081   8.806  0.4040  0.4408 -2.0385
11901SOL     OW36835   5.048   6.642   0.287  0.4537  0.5129  0.1969
11901SOL    HW136836   5.080   6.562   0.246  0.2903 -0.2024  1.4258
11901SOL    HW236837   4.972   6.614   0.338 -0.7544  1.7796 -0.8281
11902SOL     OW36838   6.385   7.282   6.490 -0.0497 -0.1492 -0.2486
11902SOL    HW136839   6.342   7.311   6.571 -1.5904  0.7149 -1.3151
11902SOL    HW236840   6.430   7.201   6.514  1.9444  1.5138  2.1582
11903SOL     OW36841   2.575   7.961   4.206  0.3572  0.6900 -0.4796
11903SOL    HW136842   2.505   8.009   4.162 -0.4618  0.9352  1.0370
11903SOL    HW236843   2.597   7.890   4.145 -1.4874  0.3710 -0.8374
11904SOL     OW36844   1.394   4.532   9.071 -0.5522 -0.2225  0.0994
11904SOL    HW136845   1.486   4.534   9.098 -0.3666 -1.6660 -0.3088
11904SOL    HW236846   1.382   4.445   9.032 -1.9531  0.1415 -0.3689
11905SOL     OW36847   8.344   1.285   2.460 -0.5638 -0.8934 -0.0272
11905SOL    HW136848   8.325   1.214   2.398 -0.2805 -0.7243 -0.3146
11905SOL    HW236849   8.438   1.278   2.475 -0.8598 -1.9111  1.6059
11906SOL     OW36850   1.700   1.326   2.321  0.2614  0.1298 -0.3315
11906SOL    HW136851   1.740   1.347   2.236  0.6533 -0.9323 -0.4201
11906SOL    HW236852   1.667   1.237   2.310  0.0038  0.1190  0.5246
11907SOL     OW36853   7.385   3.472   3.386  0.0292 -0.7986  0.1529
11907SOL    HW136854   7.419   3.394   3.429  0.0623 -0.8329  0.0665
11907SOL    HW236855   7.416   3.464   3.295 -0.7503 -1.1506 -0.0933
11908SOL     OW36856   5.237   0.407   7.693 -0.2918 -0.2961  0.3506
11908SOL    HW136857   5.150   0.448   7.694 -0.9640 -1.4668 -2.1036
11908SOL    HW236858   5.295   0.476   7.660 -0.3453  0.3461  1.5533
11909SOL     OW36859   0.434   5.592   3.781 -0.5644 -0.1264  0.0222
11909SOL    HW136860   0.417   5.581   3.874  0.4823 -1.4370  0.0780
11909SOL    HW236861   0.428   5.687   3.767 -1.0494  0.0606  1.3411
11910SOL     OW36862   5.402   3.126   3.102 -0.3942 -0.4904  0.4705
11910SOL    HW136863   5.426   3.127   3.010 -2.1745 -3.4457 -0.1650
11910SOL    HW236864   5.416   3.216   3.132 -0.6408  0.8124 -2.9038
11911SOL     OW36865   3.049   5.375   2.680  0.0655 -0.0942 -0.3890
11911SOL    HW136866   3.021   5.323   2.605 -0.9630 -1.2519  0.7477
11911SOL    HW236867   3.074   5.460   2.642 -1.4818 -0.2589 -1.9135
11912SOL     OW36868   7.287   5.685   9.013  0.2029 -0.3508 -0.5849
11912SOL    HW136869   7.287   5.695   9.108  1.2673 -1.3286 -0.4657
11912SOL    HW236870   7.338   5.760   8.981  0.4489 -0.4083 -0.3319
11913SOL     OW36871   8.194   0.527   0.413  0.3065 -0.3757 -0.5698
11913SOL    HW136872   8.175   0.473   0.336  1.3014 -0.4515 -0.7721
11913SOL    HW236873   8.170   0.616   0.385 -0.3533 -0.5573 -0.5926
11914SOL     OW36874   6.657   0.975   8.971 -0.1784  0.2756  0.0476
11914SOL    HW136875   6.718   0.957   9.042 -0.0864 -1.3158 -0.3988
11914SOL    HW236876   6.698   0.937   8.893 -0.3290  1.8846 -0.8578
11915SOL     OW36877   5.356   9.090   0.850 -0.1068 -0.4348 -0.1570
11915SOL    HW136878   5.380   9.165   0.905 -1.2399 -1.4725  1.8619
11915SOL    HW236879   5.427   9.083   0.787  1.2571  0.8544  1.1509
11916SOL     OW36880   1.586   0.413   8.353 -0.4725  0.7171 -0.1987
11916SOL    HW136881   1.570   0.332   8.305 -0.1661  0.1002  0.7243
11916SOL    HW236882   1.515   0.419   8.416 -0.8243  1.4833 -0.6533
11917SOL     OW36883   3.780   1.546   4.607  0.4639  0.1873  0.3527
11917SOL    HW136884   3.872   1.569   4.606  0.6998 -0.6167  1.2835
11917SOL    HW236885   3.741   1.596   4.535  1.4120  1.3622  0.6373
11918SOL     OW36886   1.457   3.316   7.221 -0.8893 -0.4742  0.2432
11918SOL    HW136887   1.510   3.237   7.223 -1.3116 -0.7643 -0.0162
11918SOL    HW236888   1.489   3.364   7.145 -0.5796 -0.3504  0.4457
11919SOL     OW36889   5.813   6.263   7.181  0.4381  0.8319 -0.7770
11919SOL    HW136890   5.849   6.286   7.095  1.6033  1.5007 -0.1352
11919SOL    HW236891   5.845   6.331   7.239 -0.3420  0.3877  0.1991
11920SOL     OW36892   1.537   5.411   4.243 -0.7070 -0.0620 -0.1931
11920SOL    HW136893   1.521   5.355   4.167  0.8824 -0.3996 -0.3146
11920SOL    HW236894   1.500   5.362   4.317 -1.2678 -0.2463 -0.5845
11921SOL     OW36895   8.490   0.383   8.348 -0.3629  0.0149 -0.1038
11921SOL    HW136896   8.414   0.388   8.406 -0.4243 -1.2781 -0.0280
11921SOL    HW236897   8.565   0.386   8.408 -0.4276 -1.4788  0.1079
11922SOL     OW36898   6.269   7.495   7.488 -1.0874 -0.0086 -0.2929
11922SOL    HW136899   6.323   7.476   7.411 -1.0743  0.1278 -0.3167
11922SOL    HW236900   6.333   7.514   7.557 -1.0946  2.1831 -0.8119
11923SOL     OW36901   4.397   4.323   1.112 -0.1461  0.7004  0.4985
11923SOL    HW136902   4.471   4.319   1.172  0.3497  0.5077 -0.1119
11923SOL    HW236903   4.363   4.234   1.110 -0.0007  0.6483  0.2989
11924SOL     OW36904   5.971   5.104   8.162  0.2966  0.3502 -0.5327
11924SOL    HW136905   6.057   5.108   8.121 -0.6789 -2.1159 -3.1058
11924SOL    HW236906   5.979   5.035   8.228  0.7393  1.4459  0.6013
11925SOL     OW36907   2.726   7.132   2.119 -0.6043 -0.7810  0.5705
11925SOL    HW136908   2.817   7.148   2.143 -0.1057 -0.8934 -1.0824
11925SOL    HW236909   2.679   7.211   2.148  0.1804 -0.3344  0.6438
11926SOL     OW36910   9.009   1.862   4.325  0.3481  0.0107 -0.0526
11926SOL    HW136911   8.981   1.871   4.233  0.8236 -0.4997 -0.2475
11926SOL    HW236912   8.964   1.784   4.356  0.3476  0.0684  0.0912
11927SOL     OW36913   5.761   1.589   1.254 -0.0482 -0.6943  0.3466
11927SOL    HW136914   5.819   1.559   1.324  0.2681 -1.2589 -0.1469
11927SOL    HW236915   5.729   1.509   1.213 -0.8156 -0.3785  0.3145
11928SOL     OW36916   3.017   7.721   7.350  0.4215  0.1240  0.4801
11928SOL    HW136917   3.075   7.646   7.337 -0.6158 -0.6582  0.2152
11928SOL    HW236918   2.936   7.696   7.305  0.4218  1.8795 -0.5843
11929SOL     OW36919   4.185   8.682   3.467 -0.7570  0.7968 -0.3360
11929SOL    HW136920   4.173   8.674   3.372  0.4541  1.6271 -0.5877
11929SOL    HW236921   4.274   8.716   3.477 -0.0232 -1.3371  1.1885
11930SOL     OW36922   6.860   6.870   2.507 -0.4197  0.5228  0.3853
11930SOL    HW136923   6.797   6.875   2.434 -0.7919  0.4207  0.6975
11930SOL    HW236924   6.839   6.946   2.562 -0.8914 -0.0331  0.9834
11931SOL     OW36925   9.026   0.769   1.258 -0.6216  0.1627  0.1505
11931SOL    HW136926   8.982   0.686   1.237 -2.0536  1.0645 -0.5703
11931SOL    HW236927   9.090   0.781   1.188  0.0140 -0.6050  0.5831
11932SOL     OW36928   1.428   8.298   4.941 -0.8962 -0.7248  0.4203
11932SOL    HW136929   1.422   8.289   5.036  0.2863 -1.5864  0.4399
11932SOL    HW236930   1.436   8.208   4.909 -1.0590 -0.4279 -0.4792
11933SOL     OW36931   8.790   8.440   2.826  0.5481  0.0270  0.0732
11933SOL    HW136932   8.812   8.456   2.734 -0.3980  0.5249 -0.0728
11933SOL    HW236933   8.786   8.528   2.865  0.4590 -0.1577  0.4830
11934SOL     OW36934   8.609   3.737   0.977 -0.1452  0.2229  0.3601
11934SOL    HW136935   8.584   3.827   0.999  0.8412  0.6237 -0.1298
11934SOL    HW236936   8.528   3.697   0.944 -0.1540  1.5241 -1.2838
11935SOL     OW36937   4.868   3.856   2.365  0.0152 -0.7261 -0.0504
11935SOL    HW136938   4.910   3.771   2.356 -2.2830 -1.8233 -1.2916
11935SOL    HW236939   4.836   3.877   2.277  1.8490  2.2331 -0.1572
11936SOL     OW36940   6.647   4.834   2.592  0.3034  0.5126  0.2962
11936SOL    HW136941   6.628   4.864   2.504  0.1978  1.1242  0.5283
11936SOL    HW236942   6.651   4.913   2.645 -0.9372  0.0610  1.1017
11937SOL     OW36943   0.491   1.749   6.183 -0.0104  0.1109 -0.1518
11937SOL    HW136944   0.560   1.758   6.117  1.0679  0.0777  0.9427
11937SOL    HW236945   0.439   1.675   6.152  1.1915 -0.6763 -0.3720
11938SOL     OW36946   8.455   1.424   0.982 -0.5362 -0.4993  0.1082
11938SOL    HW136947   8.482   1.336   1.008  1.7224 -0.0289 -0.4396
11938SOL    HW236948   8.530   1.479   1.003 -0.9658  0.8874 -1.7372
11939SOL     OW36949   7.024   4.676   0.822  0.1187  0.8228 -0.2133
11939SOL    HW136950   7.106   4.668   0.773  0.2971  0.3260  0.1583
11939SOL    HW236951   7.018   4.770   0.844  1.5293  0.6006  1.3327
11940SOL     OW36952   7.346   0.350   5.782  0.0845  0.2531  0.7416
11940SOL    HW136953   7.251   0.349   5.769  0.2576 -0.3891 -0.6981
11940SOL    HW236954   7.358   0.329   5.874 -1.2035  1.6574  1.2881
11941SOL     OW36955   1.295   0.592   0.219  0.2642 -0.4588  0.1762
11941SOL    HW136956   1.323   0.582   0.127 -1.0019 -0.4987 -0.2255
11941SOL    HW236957   1.209   0.549   0.222  0.3947 -0.6475  1.4417
11942SOL     OW36958   6.634   6.714   6.042 -0.5226  0.1911 -0.3540
11942SOL    HW136959   6.604   6.630   6.006  1.6637 -1.6098  1.7249
11942SOL    HW236960   6.695   6.748   5.975 -1.7839  0.4458 -1.4244
11943SOL     OW36961   7.288   3.530   5.910  0.2954 -0.6138  0.5356
11943SOL    HW136962   7.317   3.549   5.999  2.1259 -0.5660 -0.0249
11943SOL    HW236963   7.329   3.598   5.857 -1.8444  0.1614 -0.2322
11944SOL     OW36964   6.420   4.444   6.915 -0.1596  0.1237  0.2570
11944SOL    HW136965   6.351   4.484   6.967  0.3713  1.6025 -0.1271
11944SOL    HW236966   6.382   4.363   6.881 -1.2328  0.2437  1.1428
11945SOL     OW36967   5.324   6.696   5.434 -0.6174  0.1145  0.4413
11945SOL    HW136968   5.261   6.669   5.502 -0.1361  1.8502  1.6443
11945SOL    HW236969   5.364   6.775   5.469  0.6819  0.2701 -1.2842
11946SOL     OW36970   4.666   6.618   5.332  0.6698  0.1731 -0.6419
11946SOL    HW136971   4.590   6.599   5.386  0.5069  1.2470 -0.4645
11946SOL    HW236972   4.630   6.661   5.254  1.1493  1.7097 -0.0600
11947SOL     OW36973   2.898   5.424   7.693 -0.1996 -0.3381 -0.2616
11947SOL    HW136974   2.826   5.370   7.725 -2.0464  1.4773 -1.0926
11947SOL    HW236975   2.943   5.370   7.629 -2.4958 -0.6924 -1.7012
11948SOL     OW36976   7.350   2.737   7.983  0.6446  0.0085 -0.2349
11948SOL    HW136977   7.311   2.744   8.070  1.1571  0.1906 -0.0197
11948SOL    HW236978   7.436   2.778   7.991  0.6343  0.1629 -0.8660
11949SOL     OW36979   8.931   0.237   6.921 -0.2362  0.0842 -0.2410
11949SOL    HW136980   8.881   0.253   7.001  0.0066 -0.8316  0.1000
11949SOL    HW236981   8.977   0.155   6.937 -0.7082 -0.4778 -1.5680
11950SOL     OW36982   0.088   2.930   7.933  0.1142 -0.5909 -0.1971
11950SOL    HW136983   0.029   2.855   7.942  0.7246 -0.8683  2.1474
11950SOL    HW236984   0.040   3.002   7.974  0.8556 -0.5170  0.5565
11951SOL     OW36985   0.837   7.391   6.544  0.0449 -0.3629  0.2622
11951SOL    HW136986   0.774   7.318   6.549  0.0891 -0.4479 -0.3442
11951SOL    HW236987   0.918   7.355   6.581 -0.6888  0.2609  2.6527
11952SOL     OW36988   2.913   6.055   1.251 -0.0115 -0.3449 -0.2801
11952SOL    HW136989   2.939   6.136   1.206 -1.2564  0.7837  0.9176
11952SOL    HW236990   2.934   5.985   1.190 -0.8928  1.0553 -2.2866
11953SOL     OW36991   2.846   0.303   8.089 -0.0885 -0.3665 -0.7188
11953SOL    HW136992   2.942   0.295   8.083 -0.0011 -1.2729  1.1714
11953SOL    HW236993   2.830   0.396   8.098  0.7097 -0.2790 -0.0576
11954SOL     OW36994   4.703   8.177   6.098  0.0333 -0.6851  0.3882
11954SOL    HW136995   4.621   8.181   6.148 -1.1788 -0.8491 -1.4869
11954SOL    HW236996   4.764   8.232   6.147 -1.3388 -0.1656  1.5765
11955SOL     OW36997   3.910   6.955   2.600  0.5327 -0.0180 -0.6586
11955SOL    HW136998   3.944   6.887   2.659  3.0314  0.8611 -0.9629
11955SOL    HW236999   3.885   7.027   2.658  0.9012  0.0116 -0.5357
11956SOL     OW37000   5.093   0.840   5.823  0.2053 -0.4170  0.2747
11956SOL    HW137001   5.084   0.745   5.820 -0.6331 -0.3564  0.5672
11956SOL    HW237002   5.184   0.857   5.799  0.5295 -1.3258  0.8318
11957SOL     OW37003   6.592   0.094   1.090  0.3033 -0.1188 -0.6312
11957SOL    HW137004   6.647   0.023   1.058  2.3448  0.6501  0.9323
11957SOL    HW237005   6.592   0.083   1.185 -1.6738  0.3782 -0.5276
11958SOL     OW37006   5.864   6.162   6.706  0.3686 -0.3123  0.5471
11958SOL    HW137007   5.774   6.174   6.674  0.8377  1.3123 -0.3110
11958SOL    HW237008   5.917   6.157   6.626  1.2688  1.0197  1.0199
11959SOL     OW37009   4.272   1.762   4.499  0.1804 -0.4892 -0.0077
11959SOL    HW137010   4.231   1.828   4.442  0.0088  0.2587  0.9598
11959SOL    HW237011   4.361   1.753   4.464  0.0699 -0.0581 -0.4167
11960SOL     OW37012   1.902   5.046   5.763  0.1914 -0.0156 -0.0063
11960SOL    HW137013   1.993   5.074   5.753  0.4269 -0.9285 -0.5273
11960SOL    HW237014   1.886   5.050   5.857  0.3386  1.4327 -0.0134
11961SOL     OW37015   4.373   5.271   0.168  0.3215 -0.3041  0.3809
11961SOL    HW137016   4.324   5.288   0.248  0.4357 -2.1961  0.9062
11961SOL    HW237017   4.309   5.283   0.098 -2.0388 -5.5310  1.1551
11962SOL     OW37018   4.631   1.920   5.017 -0.2562  0.2440  0.5635
11962SOL    HW137019   4.539   1.911   5.039 -0.2402 -0.1825  0.4572
11962SOL    HW237020   4.634   1.918   4.922 -0.0423 -0.7900  0.5762
11963SOL     OW37021   9.093   9.042   7.244 -0.4448 -0.0588 -0.0723
11963SOL    HW137022   9.050   8.972   7.193  0.8572 -0.1314 -1.1386
11963SOL    HW237023   9.186   9.022   7.237 -0.1857  0.3998  1.7235
11964SOL     OW37024   8.917   6.557   8.557 -0.0547 -0.3389  0.2241
11964SOL    HW137025   8.930   6.614   8.482  0.0258  0.7840  1.0724
11964SOL    HW237026   8.923   6.468   8.521  2.6180  0.1159 -0.6754
11965SOL     OW37027   5.483   8.754   4.115  0.0420  0.1759 -0.0179
11965SOL    HW137028   5.402   8.741   4.066 -1.0102  1.7305  1.1914
11965SOL    HW237029   5.456   8.752   4.207  1.5248 -0.0839  0.4498
11966SOL     OW37030   7.261   7.675   0.214 -0.5249  0.5413 -0.8147
11966SOL    HW137031   7.250   7.733   0.139  0.3053  1.3615 -0.3206
11966SOL    HW237032   7.306   7.728   0.279 -0.3482 -0.4613 -0.0928
11967SOL     OW37033   6.537   0.780   1.992 -0.1205 -0.4103 -0.1884
11967SOL    HW137034   6.508   0.789   1.901 -1.7568  2.1456  0.4892
11967SOL    HW237035   6.627   0.814   1.991  0.0371 -0.8100 -0.9076
11968SOL     OW37036   9.026   3.390   1.716  0.3110  0.5789 -0.5244
11968SOL    HW137037   8.991   3.397   1.627  0.3805  0.4569 -0.5608
11968SOL    HW237038   9.101   3.450   1.717  0.1501  0.7796 -0.4703
11969SOL     OW37039   4.793   5.187   1.874  0.3468 -0.5260 -0.6061
11969SOL    HW137040   4.780   5.121   1.941 -0.4093  0.3000  0.0912
11969SOL    HW237041   4.888   5.193   1.864  0.5537  0.1963  1.3147
11970SOL     OW37042   8.068   2.239   1.845  0.0401 -0.2361 -0.1429
11970SOL    HW137043   8.143   2.232   1.786  0.0476 -0.8345 -0.0723
11970SOL    HW237044   8.023   2.154   1.838 -0.0757 -0.2432  0.5447
11971SOL     OW37045   3.053   2.866   7.230  0.0483 -0.3158 -0.0485
11971SOL    HW137046   2.974   2.816   7.252 -0.8712  1.3012  0.5207
11971SOL    HW237047   3.035   2.902   7.143  0.8755 -1.2756 -0.6319
11972SOL     OW37048   5.818   7.443   6.991  0.8156  0.5993  0.1791
11972SOL    HW137049   5.786   7.357   6.963  2.5364  0.6895 -2.4094
11972SOL    HW237050   5.752   7.505   6.960  1.6719  0.5086 -1.9972
11973SOL     OW37051   3.576   4.913   2.886  0.3725 -0.1402 -0.2718
11973SOL    HW137052   3.606   4.836   2.838 -1.6546  0.2217 -2.2973
11973SOL    HW237053   3.592   4.892   2.978  0.2038 -2.8431 -0.7797
11974SOL     OW37054   7.744   6.168   2.602 -0.5104  0.0613 -0.0952
11974SOL    HW137055   7.749   6.165   2.507  0.7943 -1.2963 -0.0308
11974SOL    HW237056   7.703   6.084   2.626 -0.4164  0.1956  0.5492
11975SOL     OW37057   7.411   5.057   7.766  0.3913  0.4193 -0.2585
11975SOL    HW137058   7.431   4.963   7.762  0.7291  0.5247 -1.4446
11975SOL    HW237059   7.458   5.094   7.691 -1.6671  1.1702 -1.2575
11976SOL     OW37060   7.002   5.594   8.975  0.0818  0.0650  0.0248
11976SOL    HW137061   6.919   5.640   8.987  0.5548  0.9778 -0.1166
11976SOL    HW237062   7.068   5.657   9.002  0.7979 -0.2507 -0.9497
11977SOL     OW37063   3.221   9.076   6.897 -0.5046  0.0042 -0.0748
11977SOL    HW137064   3.293   9.013   6.889  0.3954  1.1027 -1.0420
11977SOL    HW237065   3.143   9.027   6.874 -0.0730 -1.1870  0.8600
11978SOL     OW37066   4.493   0.960   0.301  0.4915  0.0124 -0.2540
11978SOL    HW137067   4.407   0.935   0.266 -0.5425  1.7508  0.9056
11978SOL    HW237068   4.548   0.970   0.224 -0.6873  0.0414 -1.1205
11979SOL     OW37069   2.803   7.618   9.086 -0.0757  0.3064 -0.4954
11979SOL    HW137070   2.833   7.682   9.021  0.1791  0.7116  0.0171
11979SOL    HW237071   2.872   7.552   9.088 -0.1697  0.1959 -0.7631
11980SOL     OW37072   3.811   1.848   6.872  0.4719 -0.0333 -0.1333
11980SOL    HW137073   3.887   1.906   6.870 -0.2727  0.9678 -1.0266
11980SOL    HW237074   3.737   1.907   6.857 -0.3288 -1.1967 -0.8702
11981SOL     OW37075   3.114   1.876   2.662 -0.1040  0.1613  0.3586
11981SOL    HW137076   3.018   1.875   2.655 -0.0458 -1.9878 -0.9742
11981SOL    HW237077   3.135   1.967   2.681 -2.3650  0.8712 -0.1965
11982SOL     OW37078   6.273   5.659   7.994 -0.2315  0.9686  0.8064
11982SOL    HW137079   6.309   5.697   8.074  0.9916 -0.8658  1.2031
11982SOL    HW237080   6.183   5.634   8.017 -0.3603  1.7450  1.1497
11983SOL     OW37081   0.989   7.291   8.158 -0.1481 -0.2099 -0.3829
11983SOL    HW137082   1.062   7.231   8.144 -0.2624 -0.3674 -0.3188
11983SOL    HW237083   0.981   7.297   8.253  0.0817  0.1781 -0.3896
11984SOL     OW37084   4.091   5.750   8.146 -0.7900 -0.0797 -0.3716
11984SOL    HW137085   4.042   5.814   8.094 -0.8329  0.4998  0.3752
11984SOL    HW237086   4.165   5.800   8.181 -0.7055 -0.4925  0.0362
11985SOL     OW37087   3.743   3.784   8.322 -0.3744 -0.3018 -0.4397
11985SOL    HW137088   3.817   3.832   8.282 -0.0231 -0.5617 -0.1063
11985SOL    HW237089   3.764   3.692   8.307  0.1736 -0.4390  1.0456
11986SOL     OW37090   7.526   3.926   3.994  0.7727  0.2937 -0.5651
11986SOL    HW137091   7.526   3.901   3.902 -0.4993  0.8435 -0.7275
11986SOL    HW237092   7.505   4.020   3.994 -0.5994  0.0192  0.3262
11987SOL     OW37093   8.274   3.386   1.927  0.2700 -0.7685  0.6565
11987SOL    HW137094   8.208   3.326   1.890 -0.5106  0.5348 -0.1591
11987SOL    HW237095   8.230   3.426   2.002  0.3249 -0.3230  0.4559
11988SOL     OW37096   7.159   7.522   7.569  0.0999  0.0184  0.2100
11988SOL    HW137097   7.180   7.514   7.476 -0.4510 -1.2223  0.1695
11988SOL    HW237098   7.151   7.616   7.584  3.2263  0.4861 -0.3015
11989SOL     OW37099   8.150   1.943   7.424  0.2671 -0.0558  0.0808
11989SOL    HW137100   8.088   1.947   7.351 -1.5666 -1.7856  1.4279
11989SOL    HW237101   8.183   1.853   7.421 -1.1993 -0.7451  2.3564
11990SOL     OW37102   0.880   1.353   0.563  0.8722  0.1477 -0.7541
11990SOL    HW137103   0.881   1.363   0.658  0.4763  0.4109 -0.7741
11990SOL    HW237104   0.838   1.433   0.531  0.6538 -0.1118 -1.1277
11991SOL     OW37105   4.953   3.835   3.840  0.1568 -0.2432  0.4555
11991SOL    HW137106   5.009   3.778   3.892  1.8491 -1.2174 -2.2156
11991SOL    HW237107   4.918   3.777   3.772  0.8046  1.5506 -1.4998
11992SOL     OW37108   8.746   5.029   0.228 -0.4026 -0.3556 -0.2887
11992SOL    HW137109   8.784   5.115   0.246  0.9330 -0.7792 -0.9500
11992SOL    HW237110   8.652   5.040   0.245 -0.3284  1.3544 -0.7932
11993SOL     OW37111   4.980   7.531   1.902  0.1344 -0.1334  0.7350
11993SOL    HW137112   5.061   7.561   1.860 -0.0969  3.6404  2.5508
11993SOL    HW237113   4.922   7.507   1.830  1.2825  1.6917 -0.9002
11994SOL     OW37114   8.599   6.616   1.312 -0.6072 -0.2112 -0.1687
11994SOL    HW137115   8.546   6.687   1.348  1.0117 -0.0760  2.1402
11994SOL    HW237116   8.689   6.647   1.320  0.1529 -2.4751  0.9314
11995SOL     OW37117   7.596   1.964   6.229  0.3619 -0.3032  0.4917
11995SOL    HW137118   7.536   1.936   6.297 -0.6568 -0.1297 -0.3061
11995SOL    HW237119   7.576   1.907   6.154 -0.1500  0.9840 -0.4019
11996SOL     OW37120   6.057   0.510   0.339 -0.2665  0.1323  0.1705
11996SOL    HW137121   6.119   0.576   0.307  0.0819 -0.3980 -0.2611
11996SOL    HW237122   5.984   0.561   0.372  0.8478  0.8205  1.6988
11997SOL     OW37123   7.287   8.396   2.668  0.3001 -0.3039 -0.0421
11997SOL    HW137124   7.325   8.461   2.609  1.2603 -0.8769 -0.0676
11997SOL    HW237125   7.279   8.441   2.752 -0.5982  0.3545 -0.4646
11998SOL     OW37126   6.771   4.204   0.132 -0.2831 -0.1939 -0.5010
11998SOL    HW137127   6.845   4.159   0.173 -1.0762 -0.8762  0.2019
11998SOL    HW237128   6.793   4.205   0.038  0.2102 -1.1531 -0.4084
11999SOL     OW37129   1.195   0.641   8.113 -0.3465 -0.2670  0.0956
11999SOL    HW137130   1.187   0.574   8.181 -0.8593  0.1015  0.4078
11999SOL    HW237131   1.220   0.721   8.161  0.7870 -0.3440 -0.3337
12000SOL     OW37132   6.384   6.398   5.461 -0.2352 -0.1653  0.3980
12000SOL    HW137133   6.385   6.410   5.366  2.3779 -0.4358  0.3233
12000SOL    HW237134   6.332   6.318   5.474  0.4194 -0.8348 -0.9149
12001SOL     OW37135   0.593   2.646   7.854 -0.1794 -0.4267 -0.0953
12001SOL    HW137136   0.568   2.738   7.845 -0.6996 -0.5917 -0.3435
12001SOL    HW237137   0.649   2.645   7.932 -0.0433  0.1201 -0.1757
12002SOL     OW37138   8.672   3.162   0.552  0.0701 -0.5443  0.5183
12002SOL    HW137139   8.647   3.132   0.639  0.4654 -1.1557  0.4283
12002SOL    HW237140   8.725   3.090   0.516  1.9789  0.6752  0.7330
12003SOL     OW37141   8.758   3.226   5.674 -0.6793  0.1026  0.1416
12003SOL    HW137142   8.750   3.142   5.720  0.5115  0.2475  0.6617
12003SOL    HW237143   8.741   3.205   5.583 -1.0353 -0.5871  0.3563
12004SOL     OW37144   2.297   5.540   8.375  0.0599 -0.3405 -0.4692
12004SOL    HW137145   2.327   5.592   8.450  1.1150 -0.7218 -0.6138
12004SOL    HW237146   2.249   5.602   8.320  0.1884  0.1810 -0.0033
12005SOL     OW37147   6.628   8.035   4.827  0.1106 -0.3136 -0.2046
12005SOL    HW137148   6.549   7.988   4.852  0.0615 -0.7331 -1.0878
12005SOL    HW237149   6.699   7.972   4.840  0.1158 -0.4451 -0.8173
12006SOL     OW37150   7.662   8.491   8.100  0.5127  0.1052  0.2150
12006SOL    HW137151   7.662   8.413   8.156  1.4554  0.5671  0.8759
12006SOL    HW237152   7.736   8.478   8.040  0.1540  0.1076 -0.2370
12007SOL     OW37153   4.477   7.746   9.091 -0.1173  0.1977 -0.2772
12007SOL    HW137154   4.492   7.839   9.074 -0.4104  0.1925 -0.5804
12007SOL    HW237155   4.543   7.701   9.038  0.5268  0.2497  0.4628
12008SOL     OW37156   8.922   4.983   0.595 -0.3596  0.0626 -0.4013
12008SOL    HW137157   8.877   4.943   0.670 -0.6806 -0.4155 -0.8381
12008SOL    HW237158   8.974   5.054   0.633 -2.3213  1.3751  0.0151
12009SOL     OW37159   4.412   6.375   1.022 -0.1072  0.1226 -0.2598
12009SOL    HW137160   4.363   6.389   1.103  1.6434  1.8351  0.5986
12009SOL    HW237161   4.430   6.464   0.990  1.7977 -0.4507 -0.9029
12010SOL     OW37162   1.753   5.105   7.616 -0.0507  0.1998  0.3718
12010SOL    HW137163   1.680   5.090   7.556  0.0071 -0.0507  0.3641
12010SOL    HW237164   1.828   5.063   7.574  0.3375  1.3873 -0.1430
12011SOL     OW37165   3.546   2.958   4.137 -0.1836 -0.2326  0.3962
12011SOL    HW137166   3.604   3.035   4.137  1.9073 -1.7069  0.1705
12011SOL    HW237167   3.562   2.916   4.221  0.3830 -1.5605 -0.3456
12012SOL     OW37168   8.370   6.971   2.133 -0.1342 -0.2308  0.3838
12012SOL    HW137169   8.344   7.000   2.045 -2.4018  0.6412  1.2543
12012SOL    HW237170   8.408   7.049   2.174 -2.2763  0.4201  1.2766
12013SOL     OW37171   7.909   2.899   6.161  0.3278 -0.2543  0.4492
12013SOL    HW137172   7.889   2.905   6.068  1.4041 -0.4150  0.1848
12013SOL    HW237173   7.907   2.806   6.180  1.3658 -0.3360  0.2615
12014SOL     OW37174   3.324   6.738   6.301  0.5181 -0.3071  0.2377
12014SOL    HW137175   3.294   6.761   6.213  0.5143 -2.8406 -0.4986
12014SOL    HW237176   3.254   6.770   6.359 -0.0666  0.3101 -0.7750
12015SOL     OW37177   3.277   4.388   1.892 -0.0428  0.0481  0.1148
12015SOL    HW137178   3.232   4.327   1.950 -1.4069  1.4368  0.5902
12015SOL    HW237179   3.358   4.342   1.866 -1.2971 -2.1857 -0.0785
12016SOL     OW37180   7.952   3.725   5.566 -0.5408  0.3834  0.1625
12016SOL    HW137181   7.861   3.745   5.588 -2.0220 -2.4181 -2.6512
12016SOL    HW237182   7.964   3.760   5.478  0.8048 -0.0355  0.1570
12017SOL     OW37183   1.225   4.470   5.978 -0.2354 -0.0023 -0.0779
12017SOL    HW137184   1.193   4.513   5.899  0.6840  0.8577 -0.0039
12017SOL    HW237185   1.291   4.530   6.013  0.2436 -0.9355  0.6729
12018SOL     OW37186   5.650   7.047   6.007 -0.2597  0.0592  0.1192
12018SOL    HW137187   5.729   7.085   6.045  0.0754 -1.7073  1.3087
12018SOL    HW237188   5.631   6.970   6.061 -3.0975  0.6842  0.2041
12019SOL     OW37189   3.593   5.766   3.075 -0.0357 -0.4940  0.0439
12019SOL    HW137190   3.642   5.757   3.157  0.4651 -0.4549 -0.2419
12019SOL    HW237191   3.647   5.824   3.022 -0.4650 -0.3459 -0.2334
12020SOL     OW37192   6.149   2.563   0.714 -0.0859  0.1230 -0.1142
12020SOL    HW137193   6.139   2.623   0.640 -0.1202  0.3401  0.0680
12020SOL    HW237194   6.222   2.506   0.688 -1.4041 -1.1618 -1.2386
12021SOL     OW37195   4.483   5.643   5.588  0.0210  0.0993 -0.2902
12021SOL    HW137196   4.392   5.616   5.603 -0.2943  0.3005 -1.6677
12021SOL    HW237197   4.536   5.571   5.621 -0.6693 -0.3343 -0.1161
12022SOL     OW37198   4.483   4.845   4.695  0.2097 -0.1870  0.3276
12022SOL    HW137199   4.480   4.789   4.617 -1.1313 -1.4621  1.2258
12022SOL    HW237200   4.571   4.833   4.729 -0.1183 -2.0541  0.6470
12023SOL     OW37201   2.704   1.910   7.010  0.2481  0.0699  0.6846
12023SOL    HW137202   2.721   1.817   7.004  0.8458  0.2557 -0.7669
12023SOL    HW237203   2.699   1.940   6.919  2.1740  1.8266  1.0968
12024SOL     OW37204   1.209   1.546   0.367  0.1838  0.3550 -0.3071
12024SOL    HW137205   1.282   1.585   0.319  0.1448  0.8302  0.0173
12024SOL    HW237206   1.132   1.594   0.337  0.2499  1.1900  0.7852
12025SOL     OW37207   5.307   1.329   3.663  0.1687 -0.1640  0.1912
12025SOL    HW137208   5.212   1.339   3.661  0.0900 -0.6571  1.1574
12025SOL    HW237209   5.338   1.400   3.719  0.2856 -0.5430  0.6133
12026SOL     OW37210   6.180   3.579   0.235 -0.1054  0.5057 -0.2796
12026SOL    HW137211   6.211   3.521   0.304 -0.8855  0.3741 -0.0304
12026SOL    HW237212   6.260   3.612   0.194  0.3758  0.7212  0.7889
12027SOL     OW37213   1.804   4.277   1.080  0.6623  0.3280  0.0034
12027SOL    HW137214   1.747   4.330   1.024  1.0772  0.0439 -0.7072
12027SOL    HW237215   1.844   4.340   1.140  0.6092  0.7235 -0.3674
12028SOL     OW37216   6.669   6.351   2.580  0.2178 -0.1678  0.2028
12028SOL    HW137217   6.741   6.411   2.599 -0.7854  0.5292  2.0063
12028SOL    HW237218   6.711   6.274   2.541  1.6150  1.3338 -1.4058
12029SOL     OW37219   2.401   0.070   7.715 -0.1849  0.3836 -0.3640
12029SOL    HW137220   2.429   0.122   7.790  0.4679  0.0793 -0.3899
12029SOL    HW237221   2.461  -0.004   7.713 -2.0165 -1.2318  0.6021
12030SOL     OW37222   4.275   0.156   7.003 -0.0102 -0.2465  0.0930
12030SOL    HW137223   4.322   0.218   7.059 -0.6931  0.3707  0.0044
12030SOL    HW237224   4.343   0.100   6.966  0.4868 -0.4358  1.2528
12031SOL     OW37225   6.228   0.718   6.792 -0.4630  0.3647  0.6445
12031SOL    HW137226   6.255   0.808   6.813 -1.7856  0.6804  1.1077
12031SOL    HW237227   6.262   0.665   6.864  1.5758  0.2253 -0.3466
12032SOL     OW37228   8.087   0.744   1.541  0.0804  0.3036 -0.1347
12032SOL    HW137229   8.050   0.667   1.497  0.4002 -0.1511  0.3696
12032SOL    HW237230   8.111   0.712   1.628 -0.0536  1.0557  0.1867
12033SOL     OW37231   1.209   2.572   3.508  0.1253  0.3821 -0.0111
12033SOL    HW137232   1.191   2.619   3.589  0.5667 -3.4358  2.5905
12033SOL    HW237233   1.300   2.594   3.487 -0.0794  1.6417  0.3649
12034SOL     OW37234   5.829   4.115   7.009 -0.1933 -0.5170 -0.0166
12034SOL    HW137235   5.826   4.094   7.102  0.5786 -1.7759 -0.2459
12034SOL    HW237236   5.921   4.134   6.991 -0.1719 -1.1678 -0.6796
12035SOL     OW37237   2.659   2.983   0.670  0.4303  0.3411  0.3624
12035SOL    HW137238   2.708   3.025   0.741 -0.3257 -0.7994  1.6194
12035SOL    HW237239   2.723   2.926   0.627  0.5171 -0.2191  1.2153
12036SOL     OW37240   8.634   3.858   1.316  0.7146  0.0365 -0.4487
12036SOL    HW137241   8.672   3.937   1.278  1.4253 -0.5201 -0.9488
12036SOL    HW237242   8.694   3.788   1.289  0.3728 -0.6002  0.4000
12037SOL     OW37243   8.359   8.416   8.026  0.0405  0.6538 -0.0636
12037SOL    HW137244   8.430   8.480   8.016  0.7844 -0.3146 -1.2497
12037SOL    HW237245   8.326   8.432   8.114  1.1792  1.6906  0.2182
12038SOL     OW37246   1.286   5.789   0.312 -0.0104  0.4292  0.0138
12038SOL    HW137247   1.364   5.768   0.364  0.5350 -0.4228 -1.0785
12038SOL    HW237248   1.320   5.839   0.238 -0.3006 -0.9154 -1.0749
12039SOL     OW37249   5.015   7.408   0.178  0.0033 -0.2399 -0.0084
12039SOL    HW137250   4.998   7.399   0.084  0.2049  0.2377 -0.0927
12039SOL    HW237251   5.068   7.331   0.200 -0.9556 -0.9279 -0.0564
12040SOL     OW37252   7.199   2.446   6.053  0.0144  0.3181 -0.0459
12040SOL    HW137253   7.258   2.476   5.984  0.1068 -0.2361 -0.2121
12040SOL    HW237254   7.178   2.355   6.030 -0.4134  0.3101  0.3435
12041SOL     OW37255   8.504   6.609   5.668 -0.1229 -0.5865 -0.0362
12041SOL    HW137256   8.464   6.676   5.723 -0.4539  0.2170 -1.2203
12041SOL    HW237257   8.586   6.588   5.712 -0.6476 -0.3898  1.0653
12042SOL     OW37258   4.430   0.699   4.652  0.4096 -0.0518  0.3269
12042SOL    HW137259   4.400   0.780   4.611  2.4651  0.8329  0.4162
12042SOL    HW237260   4.494   0.663   4.589  0.6133 -0.8123  0.9557
12043SOL     OW37261   3.260   2.663   2.425  0.5483  0.7543 -0.0271
12043SOL    HW137262   3.220   2.620   2.349  0.1947  0.8540  0.1013
12043SOL    HW237263   3.223   2.619   2.501 -0.3017  1.6767  0.1247
12044SOL     OW37264   1.183   5.435   7.341 -0.3973  0.7957 -0.4260
12044SOL    HW137265   1.215   5.372   7.277  0.1536 -1.1489  1.6040
12044SOL    HW237266   1.177   5.518   7.294  0.9188 -0.3138 -2.6763
12045SOL     OW37267   0.847   8.351   7.580 -0.0250 -0.3358  0.0005
12045SOL    HW137268   0.751   8.360   7.580 -0.1453 -1.4691 -0.4308
12045SOL    HW237269   0.872   8.358   7.488  0.4957  1.4665  0.2308
12046SOL     OW37270   7.623   5.267   8.108 -0.3108  0.0243 -0.2717
12046SOL    HW137271   7.658   5.252   8.020 -0.6675 -4.1117  0.0912
12046SOL    HW237272   7.690   5.232   8.167 -2.0322 -1.7092  0.7762
12047SOL     OW37273   5.078   7.255   2.998  0.0002 -0.1764  0.1695
12047SOL    HW137274   5.079   7.160   2.990 -0.9431 -0.1461 -0.5072
12047SOL    HW237275   5.079   7.287   2.908 -0.1230  0.4425  0.3806
12048SOL     OW37276   7.419   0.942   3.792  0.3486  0.1973  0.1733
12048SOL    HW137277   7.504   0.980   3.810 -0.0799  1.2401  0.0441
12048SOL    HW237278   7.369   0.955   3.873 -0.3185  1.3920 -0.4034
12049SOL     OW37279   5.774   4.765   2.017 -0.3100 -0.6476 -0.2541
12049SOL    HW137280   5.698   4.798   2.065  0.1842  0.1952 -0.0367
12049SOL    HW237281   5.849   4.810   2.056  0.2426 -1.0203 -0.8636
12050SOL     OW37282   8.011   7.123   7.438 -0.2318  0.1575 -0.1855
12050SOL    HW137283   7.929   7.099   7.395 -0.9378  0.3854  0.9898
12050SOL    HW237284   7.985   7.186   7.505  1.1216  1.5340 -0.8831
12051SOL     OW37285   7.194   3.737   6.877 -0.2037 -0.5160  0.5968
12051SOL    HW137286   7.219   3.774   6.961  0.2509 -0.0526  0.2609
12051SOL    HW237287   7.239   3.792   6.812 -0.9685 -0.5338  0.0362
12052SOL     OW37288   1.980   2.987   6.753 -0.3472  0.0107  0.1924
12052SOL    HW137289   1.901   3.035   6.727 -1.9734 -1.7079  1.5634
12052SOL    HW237290   2.035   3.052   6.797 -1.3898  1.0946 -0.0513
12053SOL     OW37291   7.097   4.683   3.681  0.0200  0.1794  0.2739
12053SOL    HW137292   7.100   4.619   3.610  0.6274  0.4373  0.0572
12053SOL    HW237293   7.009   4.675   3.717  0.1153 -0.8167  0.2965
12054SOL     OW37294   5.690   3.721   1.174  0.3797  0.0747  0.7710
12054SOL    HW137295   5.749   3.763   1.237 -0.2840 -1.3683  2.4649
12054SOL    HW237296   5.609   3.771   1.180  0.7383  0.7660  0.0212
12055SOL     OW37297   8.072   5.202   6.626  0.7792 -0.1297 -0.3045
12055SOL    HW137298   8.013   5.268   6.590  0.1575 -1.1251 -1.1453
12055SOL    HW237299   8.020   5.158   6.694 -0.1096 -2.1001 -2.1270
12056SOL     OW37300   4.326   4.962   6.091  0.4430  0.5082  0.0287
12056SOL    HW137301   4.418   4.940   6.074 -0.1300 -0.1429 -2.7303
12056SOL    HW237302   4.310   5.039   6.038 -0.7310  0.3153  0.0884
12057SOL     OW37303   5.250   8.165   5.580  0.2511  0.0434  0.3748
12057SOL    HW137304   5.321   8.217   5.545  0.9368 -1.1849 -0.1070
12057SOL    HW237305   5.291   8.083   5.607 -0.8955 -0.4961  0.5517
12058SOL     OW37306   8.803   5.637   5.889 -0.2253 -0.5460  0.1336
12058SOL    HW137307   8.806   5.572   5.958 -2.3516 -1.5365 -0.6297
12058SOL    HW237308   8.848   5.596   5.815 -0.4210 -0.6164  0.0539
12059SOL     OW37309   6.093   0.932   4.058  0.2043 -0.1309 -0.4513
12059SOL    HW137310   6.179   0.898   4.032 -0.1281 -2.0994  0.7595
12059SOL    HW237311   6.098   0.940   4.153 -0.0537  2.5384 -0.6093
12060SOL     OW37312   0.511   6.360   7.960 -0.0555  0.0970 -0.5852
12060SOL    HW137313   0.571   6.370   8.033 -3.3924 -1.9803  2.8143
12060SOL    HW237314   0.530   6.272   7.925  1.5784  1.1101 -2.4433
12061SOL     OW37315   1.293   1.386   1.836  0.0017 -0.1874 -0.0771
12061SOL    HW137316   1.347   1.461   1.863 -0.3694  0.3842 -0.8707
12061SOL    HW237317   1.281   1.398   1.741  1.1123 -2.0251 -0.4886
12062SOL     OW37318   4.994   1.338   2.704 -0.1786 -0.5002 -0.2797
12062SOL    HW137319   4.989   1.309   2.795  2.2182  0.6115  0.2920
12062SOL    HW237320   4.984   1.258   2.653  3.2851 -2.0510  1.1520
12063SOL     OW37321   4.835   5.058   6.318 -0.0416  0.9447 -0.0427
12063SOL    HW137322   4.771   5.056   6.247  0.5792  1.3583 -0.6352
12063SOL    HW237323   4.817   5.140   6.364 -2.5419 -0.7733  2.3265
12064SOL     OW37324   5.445   8.158   3.819  0.2231 -0.5133 -0.1217
12064SOL    HW137325   5.469   8.071   3.849 -1.7089 -1.6379 -1.6252
12064SOL    HW237326   5.406   8.200   3.896 -1.8194 -2.2066 -0.1610
12065SOL     OW37327   6.329   0.546   5.275  0.9010 -0.0256 -0.6859
12065SOL    HW137328   6.236   0.531   5.257  0.9506  0.5368 -1.4372
12065SOL    HW237329   6.345   0.636   5.246  1.0183  0.9402  2.0961
12066SOL     OW37330   0.218   0.080   7.732 -0.1193  0.1596  0.2063
12066SOL    HW137331   0.127   0.069   7.703 -0.3085 -1.5205  1.3074
12066SOL    HW237332   0.266   0.011   7.687 -0.0618 -1.2205  2.2457
12067SOL     OW37333   2.553   4.286   9.055  0.0878  0.2138 -0.2945
12067SOL    HW137334   2.562   4.279   8.960 -0.4277 -0.6140 -0.2945
12067SOL    HW237335   2.628   4.239   9.090  0.6073  1.0352 -0.2827
12068SOL     OW37336   2.712   6.921   7.273 -0.4658 -0.0757  0.2751
12068SOL    HW137337   2.665   6.841   7.298 -0.4788  0.2088  1.1973
12068SOL    HW237338   2.683   6.939   7.183  0.2407 -1.6136 -0.3066
12069SOL     OW37339   3.466   7.579   3.718 -0.1343 -0.3374  0.3610
12069SOL    HW137340   3.528   7.646   3.688 -1.2429 -0.3666 -2.2684
12069SOL    HW237341   3.409   7.625   3.779 -1.4347  1.5074 -2.0452
12070SOL     OW37342   3.067   2.127   2.318  0.1892  0.1590 -0.5308
12070SOL    HW137343   3.145   2.082   2.351 -1.3343 -1.3616  1.2393
12070SOL    HW237344   3.022   2.061   2.264 -0.5380  0.5751 -0.4489
12071SOL     OW37345   5.258   0.942   4.824  0.0953  0.3359  0.0690
12071SOL    HW137346   5.329   0.998   4.854 -0.5834  0.8625  0.7262
12071SOL    HW237347   5.263   0.865   4.880 -1.0185  1.2125  1.4436
12072SOL     OW37348   8.640   2.758   5.369 -0.1445 -0.0027 -0.6910
12072SOL    HW137349   8.700   2.683   5.360 -1.2036 -1.2090  1.5169
12072SOL    HW237350   8.659   2.812   5.292  0.9193 -2.3353 -2.2219
12073SOL     OW37351   0.721   1.364   1.903  0.3420  0.1848  0.4570
12073SOL    HW137352   0.735   1.409   1.820 -2.2144  0.2513 -0.0280
12073SOL    HW237353   0.787   1.400   1.962  1.6385  0.7731 -1.2987
12074SOL     OW37354   1.218   4.061   0.022  0.0806 -0.4609 -0.6473
12074SOL    HW137355   1.221   4.102  -0.065 -0.2476 -0.4609 -0.6598
12074SOL    HW237356   1.132   4.020   0.026  0.1897 -0.6665 -0.4137
12075SOL     OW37357   0.165   2.553   4.633  0.1858  0.4984  0.2612
12075SOL    HW137358   0.252   2.576   4.600  0.7873  1.1780  2.2106
12075SOL    HW237359   0.182   2.501   4.711 -1.1947 -0.1658  0.1495
12076SOL     OW37360   4.308   8.243   7.479  0.5511 -0.4589  0.5093
12076SOL    HW137361   4.338   8.320   7.430  0.8201 -2.3750 -2.6654
12076SOL    HW237362   4.222   8.223   7.441 -0.7912 -0.2081  3.2251
12077SOL     OW37363   6.083   1.285   2.763  0.1482  0.6374  0.1468
12077SOL    HW137364   6.133   1.239   2.830  0.4717  0.4422 -0.2213
12077SOL    HW237365   6.092   1.231   2.685  0.0298  1.0166 -0.1329
12078SOL     OW37366   8.035   1.355   2.775  0.0668 -0.6368  0.5538
12078SOL    HW137367   7.962   1.342   2.836 -1.9713 -0.3943 -1.6751
12078SOL    HW237368   8.035   1.276   2.721  1.0461 -0.3146  0.0628
12079SOL     OW37369   1.570   7.003   3.255  0.1367 -0.3999 -0.1737
12079SOL    HW137370   1.553   6.962   3.170  2.1429 -1.1612 -0.2667
12079SOL    HW237371   1.518   6.953   3.317 -1.2417  0.0675 -0.8967
12080SOL     OW37372   8.673   5.092   3.288  0.0746 -0.1305  1.1310
12080SOL    HW137373   8.628   5.067   3.368 -1.4623 -2.1575 -0.2418
12080SOL    HW237374   8.605   5.091   3.221  1.8320 -1.6293 -0.7680
12081SOL     OW37375   7.515   7.531   3.827 -0.0602 -0.2950 -0.2251
12081SOL    HW137376   7.531   7.487   3.910 -0.3798 -1.6358 -0.8486
12081SOL    HW237377   7.425   7.509   3.806 -0.0077  0.1093 -0.8800
12082SOL     OW37378   5.318   1.241   6.265 -0.3922 -0.0549  0.2760
12082SOL    HW137379   5.317   1.277   6.176  0.4729 -1.4079 -0.3077
12082SOL    HW237380   5.399   1.276   6.303 -0.4524  0.0335  0.3234
12083SOL     OW37381   0.150   3.850   5.697  0.0543  0.2345  0.7941
12083SOL    HW137382   0.132   3.924   5.754 -1.5330  0.3418  0.2147
12083SOL    HW237383   0.223   3.879   5.642  1.2018  0.3477  2.3112
12084SOL     OW37384   7.844   7.738   8.567 -0.2081  0.5485 -0.6857
12084SOL    HW137385   7.889   7.655   8.551 -0.7364  0.0637  0.2562
12084SOL    HW237386   7.910   7.805   8.550  0.2350 -0.0643 -1.4288
12085SOL     OW37387   0.553   0.875   7.077  0.3771 -0.0980 -0.0308
12085SOL    HW137388   0.547   0.799   7.134  0.1727 -0.7371 -0.8855
12085SOL    HW237389   0.619   0.931   7.118  0.3045 -0.5917  0.7679
12086SOL     OW37390   8.188   6.616   3.573  0.7143  0.0108  0.5503
12086SOL    HW137391   8.185   6.665   3.655 -1.8725  1.0143 -0.0430
12086SOL    HW237392   8.257   6.659   3.522  0.0459  1.6005  0.9314
12087SOL     OW37393   0.734   3.091   7.671  0.0387  0.1258  0.2073
12087SOL    HW137394   0.676   3.134   7.607  0.0250 -1.1070 -0.6381
12087SOL    HW237395   0.821   3.099   7.633  0.2257  0.6036  0.7243
12088SOL     OW37396   4.935   6.370   8.575  0.1473  0.4763  0.4613
12088SOL    HW137397   4.870   6.318   8.528 -0.1378  1.2055  0.0172
12088SOL    HW237398   4.889   6.402   8.653  0.9212 -1.5877  1.8615
12089SOL     OW37399   3.102   5.412   8.957  0.5502  0.4041 -0.0622
12089SOL    HW137400   3.029   5.426   9.018  0.3411 -0.9923  0.0475
12089SOL    HW237401   3.089   5.477   8.889  0.9858  2.2580  1.5186
12090SOL     OW37402   9.045   2.646   3.777 -0.3662  0.2095  0.2864
12090SOL    HW137403   9.062   2.670   3.686 -0.6328 -0.0475  0.1680
12090SOL    HW237404   8.961   2.685   3.798  0.1853  1.1744  0.7628
12091SOL     OW37405   0.693   9.026   5.500 -0.5693  0.0312 -0.4364
12091SOL    HW137406   0.779   9.040   5.540 -0.1793 -0.2132 -1.1678
12091SOL    HW237407   0.633   9.079   5.553 -0.2319 -0.9994  1.0231
12092SOL     OW37408   7.722   3.673   5.084  0.0507 -0.1426  0.1389
12092SOL    HW137409   7.730   3.585   5.045 -0.1342 -0.5489  1.0000
12092SOL    HW237410   7.642   3.669   5.135 -0.6553  0.9466 -0.8368
12093SOL     OW37411   7.893   7.431   0.786 -0.6037 -1.1580 -0.2291
12093SOL    HW137412   7.980   7.469   0.793 -1.4412  0.4698  3.2211
12093SOL    HW237413   7.853   7.476   0.711  0.4106  0.5262  0.1897
12094SOL     OW37414   5.728   0.161   5.998 -0.2117  0.0476 -0.3022
12094SOL    HW137415   5.695   0.225   5.936  0.7583 -0.1900 -1.0747
12094SOL    HW237416   5.791   0.109   5.949 -0.1999 -0.8289  0.5950
12095SOL     OW37417   4.358   4.850   6.376 -0.4030  0.2983  0.5689
12095SOL    HW137418   4.378   4.846   6.283  0.8471 -3.1665  0.8365
12095SOL    HW237419   4.271   4.809   6.384  0.2805 -1.1353  1.0215
12096SOL     OW37420   4.353   3.492   2.044  0.3241  0.7879 -0.1474
12096SOL    HW137421   4.311   3.430   2.104  0.4516  1.8152  1.0440
12096SOL    HW237422   4.282   3.521   1.987  0.3838 -0.8735 -1.1113
12097SOL     OW37423   7.864   7.804   1.695  0.4403 -0.6574  0.0947
12097SOL    HW137424   7.783   7.770   1.659 -0.7021 -0.9103  2.6494
12097SOL    HW237425   7.927   7.733   1.684 -0.3260 -1.3607  0.1568
12098SOL     OW37426   5.276   2.047   3.182 -0.4458 -0.5773 -0.0197
12098SOL    HW137427   5.259   1.957   3.156 -0.7392 -0.6044  0.2709
12098SOL    HW237428   5.371   2.050   3.195 -0.7779 -2.0691  4.3729
12099SOL     OW37429   5.777   8.743   5.638 -0.3971 -0.7232 -0.0224
12099SOL    HW137430   5.830   8.807   5.590  1.0261 -1.5707  0.3502
12099SOL    HW237431   5.689   8.780   5.638  0.7164  2.2407  1.8831
12100SOL     OW37432   4.405   8.426   6.236 -0.1248 -0.0565 -0.1213
12100SOL    HW137433   4.485   8.478   6.244 -0.7557  0.8569  0.4018
12100SOL    HW237434   4.340   8.488   6.204 -0.6923 -0.7234 -0.2633
12101SOL     OW37435   8.472   8.570   2.137 -0.0679 -0.2444 -0.2721
12101SOL    HW137436   8.505   8.504   2.075 -1.7257 -1.0585 -0.3601
12101SOL    HW237437   8.536   8.571   2.207  0.3602 -1.4746 -0.6133
12102SOL     OW37438   2.528   7.911   0.899  0.8080 -0.3349  0.3867
12102SOL    HW137439   2.603   7.854   0.884  0.4636 -0.5232 -0.7404
12102SOL    HW237440   2.460   7.854   0.935 -1.0555 -1.8392 -4.6338
12103SOL     OW37441   3.832   4.858   8.325  0.2300 -0.2145 -0.3396
12103SOL    HW137442   3.870   4.852   8.412 -0.4821 -1.1263 -0.0846
12103SOL    HW237443   3.806   4.950   8.317  1.8295  0.2774 -0.2647
12104SOL     OW37444   7.024   4.492   6.631 -0.2094 -0.2466  0.0522
12104SOL    HW137445   6.954   4.429   6.647  0.0699 -1.1434 -1.9677
12104SOL    HW237446   7.095   4.441   6.592 -0.3393  1.4146 -2.6108
12105SOL     OW37447   0.850   4.302   7.334  0.2550  1.0678  0.2441
12105SOL    HW137448   0.776   4.290   7.276  0.2353  1.2976  0.2208
12105SOL    HW237449   0.815   4.288   7.422 -0.3151  3.2079  0.4322
12106SOL     OW37450   4.757   6.218   8.431  0.2174 -0.0481  0.5742
12106SOL    HW137451   4.755   6.123   8.420 -0.1752 -0.1712  1.6067
12106SOL    HW237452   4.697   6.251   8.365 -1.5408 -0.6996  1.7667
12107SOL     OW37453   4.941   3.106   8.864 -0.0044 -0.5576 -0.2953
12107SOL    HW137454   4.871   3.042   8.877 -0.0224 -0.6411 -0.7553
12107SOL    HW237455   4.905   3.168   8.800 -0.5253  0.7450  1.1918
12108SOL     OW37456   5.804   7.255   6.705  0.1407 -0.0845 -0.0539
12108SOL    HW137457   5.740   7.275   6.637 -0.5640 -1.0434  0.3039
12108SOL    HW237458   5.886   7.292   6.672 -0.2686 -0.1719 -1.2336
12109SOL     OW37459   3.949   5.607   0.274  0.3700 -0.1033 -0.2093
12109SOL    HW137460   4.044   5.604   0.281  0.3734 -0.9332 -0.4451
12109SOL    HW237461   3.918   5.616   0.364  0.7024  1.8788 -0.2601
12110SOL     OW37462   5.877   6.232   6.137 -0.0056 -0.1056  0.2038
12110SOL    HW137463   5.944   6.178   6.179 -0.7419 -0.5185  0.8851
12110SOL    HW237464   5.841   6.284   6.209 -2.6371 -2.1951  0.5639
12111SOL     OW37465   5.947   4.266   5.063 -0.0702 -0.3669  1.0107
12111SOL    HW137466   5.927   4.237   4.974 -0.3207 -0.0293  0.9572
12111SOL    HW237467   5.921   4.358   5.065  1.4906  0.1038  0.9258
12112SOL     OW37468   2.039   7.650   1.571  0.1501  0.5203  0.1928
12112SOL    HW137469   2.018   7.724   1.514 -1.3640  1.5766  1.9855
12112SOL    HW237470   1.972   7.585   1.552 -0.3470  0.8670  0.7271
12113SOL     OW37471   5.469   4.067   7.396 -0.3493  0.1704 -0.1347
12113SOL    HW137472   5.478   3.983   7.351 -0.2697  0.3366 -0.4348
12113SOL    HW237473   5.420   4.047   7.476 -0.0315 -0.2197 -0.0357
12114SOL     OW37474   3.961   4.401   3.186 -0.4604  0.0388 -0.3248
12114SOL    HW137475   3.976   4.422   3.094 -0.6070  0.2226 -0.3063
12114SOL    HW237476   3.983   4.308   3.193  1.0716  0.3795 -0.2228
12115SOL     OW37477   7.284   3.181   1.890  0.1220 -0.4752 -0.5749
12115SOL    HW137478   7.192   3.157   1.900  0.2575 -0.1541  2.1448
12115SOL    HW237479   7.281   3.270   1.855 -0.5887 -0.5336 -0.6877
12116SOL     OW37480   1.458   1.503   5.903  0.0443  0.3822 -0.0987
12116SOL    HW137481   1.516   1.516   5.828 -0.0206 -2.0733 -0.6357
12116SOL    HW237482   1.371   1.529   5.870  0.1544  0.1057 -0.6302
12117SOL     OW37483   2.094   2.824   2.182 -0.5574 -0.1361 -1.0057
12117SOL    HW137484   2.012   2.862   2.214 -0.1776 -2.0166  2.7711
12117SOL    HW237485   2.069   2.737   2.150 -0.1108 -0.6795  0.0755
12118SOL     OW37486   0.649   6.660   6.517 -0.2070  0.0162  0.4776
12118SOL    HW137487   0.623   6.712   6.593 -0.4176  0.1679  0.3033
12118SOL    HW237488   0.571   6.658   6.462  0.0267  0.1250  0.1444
12119SOL     OW37489   3.018   1.834   6.748 -0.7415 -0.0259 -0.0145
12119SOL    HW137490   2.984   1.745   6.740 -1.2222  0.0653  0.8931
12119SOL    HW237491   2.946   1.890   6.721 -0.7495  0.1159  0.3008
12120SOL     OW37492   7.689   7.070   2.646 -0.0166  0.1053  0.0745
12120SOL    HW137493   7.753   7.094   2.713 -0.4725  0.0270  0.5476
12120SOL    HW237494   7.623   7.139   2.651 -0.1491 -0.0027 -0.1667
12121SOL     OW37495   0.530   1.365   0.448  0.2746 -0.0517  0.5893
12121SOL    HW137496   0.602   1.303   0.440 -0.7375 -1.0159 -1.7624
12121SOL    HW237497   0.527   1.385   0.542  2.5864 -1.1537  0.9721
12122SOL     OW37498   1.772   9.093   5.180 -0.0599 -0.1000 -0.2544
12122SOL    HW137499   1.697   9.153   5.185 -0.0484 -0.1591  0.8178
12122SOL    HW237500   1.762   9.036   5.256  0.9600 -0.2369 -0.2128
12123SOL     OW37501   2.315   8.127   6.402  0.1760  0.4823  0.3690
12123SOL    HW137502   2.263   8.082   6.335 -1.5050  2.8350 -0.0300
12123SOL    HW237503   2.402   8.138   6.361  0.1092 -0.8523 -0.1666
12124SOL     OW37504   0.638   6.637   2.299  0.1736 -0.8764  0.1137
12124SOL    HW137505   0.586   6.556   2.292  0.4280 -0.9841 -0.6264
12124SOL    HW237506   0.703   6.629   2.229  1.4919 -0.9599  1.3157
12125SOL     OW37507   4.473   6.747   3.833  0.2999  0.2919 -0.0012
12125SOL    HW137508   4.458   6.840   3.815 -1.8926 -0.0785 -0.3691
12125SOL    HW237509   4.499   6.744   3.925  0.3425  1.2593  0.0286
12126SOL     OW37510   5.843   7.288   8.944 -0.9985 -0.0519  0.3986
12126SOL    HW137511   5.829   7.232   8.867 -0.4577 -0.1096  0.3366
12126SOL    HW237512   5.904   7.355   8.913 -0.5213 -0.2691  0.8689
12127SOL     OW37513   7.815   1.247   8.899  0.5830  0.3665 -0.1280
12127SOL    HW137514   7.799   1.328   8.948  0.8029  0.4983 -0.2716
12127SOL    HW237515   7.866   1.275   8.823 -0.5767  0.3030 -0.9510
12128SOL     OW37516   3.317   5.178   7.183  0.3699 -0.2852 -0.7090
12128SOL    HW137517   3.340   5.243   7.250  0.6418  0.2396 -1.3010
12128SOL    HW237518   3.385   5.112   7.189 -0.0705 -0.6855  0.1016
12129SOL     OW37519   8.308   7.543   6.883  0.2223  0.0547 -0.1037
12129SOL    HW137520   8.319   7.582   6.970  0.5644 -0.0734 -0.0884
12129SOL    HW237521   8.388   7.492   6.869  0.2182  0.1606 -0.5389
12130SOL     OW37522   6.564   0.157   8.699 -0.1846  0.6345 -0.8972
12130SOL    HW137523   6.539   0.242   8.734 -0.8636  0.3721 -0.7246
12130SOL    HW237524   6.482   0.118   8.669 -0.4160 -1.1183  1.5965
12131SOL     OW37525   4.827   0.799   5.736  0.7353  0.7618 -0.2919
12131SOL    HW137526   4.883   0.876   5.722  2.0640  0.1373  1.2264
12131SOL    HW237527   4.845   0.742   5.662 -0.1755  1.8422 -1.3750
12132SOL     OW37528   7.177   4.383   5.878  0.3716 -0.1285 -0.4249
12132SOL    HW137529   7.185   4.452   5.813  0.3070 -0.0420 -0.3398
12132SOL    HW237530   7.087   4.353   5.872  0.2265  0.2186 -0.0302
12133SOL     OW37531   0.219   7.703   0.538 -0.0231 -0.1974  0.1206
12133SOL    HW137532   0.241   7.638   0.604 -0.3234 -0.1944  0.2285
12133SOL    HW237533   0.288   7.697   0.472  0.9829  0.6744  1.0664
12134SOL     OW37534   1.078   8.290   8.911  0.5916 -0.1993  0.0543
12134SOL    HW137535   1.024   8.342   8.851 -0.5037  0.1927  1.3159
12134SOL    HW237536   1.120   8.225   8.856 -0.4892  0.0517 -1.1136
12135SOL     OW37537   2.082   7.717   2.982  0.0354 -0.1670  0.2295
12135SOL    HW137538   2.038   7.801   2.970 -1.4875 -1.0826 -0.9406
12135SOL    HW237539   2.174   7.735   2.965 -0.0006  1.5553  1.5322
12136SOL     OW37540   8.571   5.955   2.850 -0.1501  0.1611  0.9448
12136SOL    HW137541   8.652   5.912   2.823  0.5941  2.2567 -0.4666
12136SOL    HW237542   8.503   5.916   2.796  0.4599  0.5155 -0.1095
12137SOL     OW37543   8.784   7.235   4.295  0.3100 -0.0203  0.2996
12137SOL    HW137544   8.777   7.174   4.368  0.7851 -0.6951 -0.1998
12137SOL    HW237545   8.694   7.246   4.264  0.2683 -0.8641  0.0860
12138SOL     OW37546   2.594   0.216   5.114  0.0195 -0.0883  0.7010
12138SOL    HW137547   2.686   0.241   5.126  0.4204 -0.3745 -1.3609
12138SOL    HW237548   2.549   0.252   5.190  1.6283  1.1770  1.1067
12139SOL     OW37549   6.462   8.687   9.013  0.0163 -0.4924  0.1201
12139SOL    HW137550   6.511   8.710   8.934 -1.5764  2.6856 -0.1087
12139SOL    HW237551   6.501   8.740   9.082 -0.5008 -1.0076  0.8310
12140SOL     OW37552   2.550   2.498   8.605 -0.0319  0.6118 -0.0686
12140SOL    HW137553   2.474   2.470   8.554 -0.5843  1.0783  0.4809
12140SOL    HW237554   2.527   2.585   8.636  0.7699  0.7936  0.0270
12141SOL     OW37555   2.218   2.089   6.632 -0.0721 -0.0351 -0.1288
12141SOL    HW137556   2.149   2.038   6.589 -0.6763  0.5866  0.0791
12141SOL    HW237557   2.291   2.089   6.570 -1.0111  1.0679 -1.3019
12142SOL     OW37558   7.296   8.059   4.474  0.1267 -0.0177 -0.8271
12142SOL    HW137559   7.375   8.011   4.449  0.0629 -0.8788  0.5026
12142SOL    HW237560   7.283   8.037   4.567 -1.5073  0.3258 -0.9431
12143SOL     OW37561   8.956   4.492   8.143  0.2828 -0.7860 -0.1429
12143SOL    HW137562   8.907   4.427   8.194  1.4548 -1.6086 -0.0032
12143SOL    HW237563   9.043   4.452   8.132  0.6905  0.2957 -1.0013
12144SOL     OW37564   1.643   1.724   7.887  0.1679  0.0879  0.3439
12144SOL    HW137565   1.582   1.664   7.930  0.0081  0.1191  0.1608
12144SOL    HW237566   1.621   1.718   7.794  0.3172  0.2432  0.2990
12145SOL     OW37567   3.837   0.626   0.995 -0.0896  0.2180 -0.1393
12145SOL    HW137568   3.778   0.571   0.943  0.6064 -0.3632 -0.3257
12145SOL    HW237569   3.804   0.620   1.084 -0.8635  0.6451 -0.3835
12146SOL     OW37570   4.355   0.602   1.778 -0.3328 -0.1989  1.0373
12146SOL    HW137571   4.418   0.669   1.750  0.4513 -0.6196  1.7524
12146SOL    HW237572   4.397   0.559   1.853 -0.6605 -1.7359  0.3799
12147SOL     OW37573   3.006   5.749   6.339 -0.5374 -0.0798 -0.0855
12147SOL    HW137574   3.087   5.762   6.388  0.3039  2.9650 -2.0092
12147SOL    HW237575   2.940   5.798   6.389 -0.6621 -0.5268  0.1958
12148SOL     OW37576   8.610   0.741   2.291 -0.3202 -0.7252  0.1347
12148SOL    HW137577   8.634   0.653   2.319 -0.1350 -0.3800  1.0731
12148SOL    HW237578   8.525   0.757   2.332 -0.0279 -0.2029  0.5379
12149SOL     OW37579   5.284   1.021   2.723  0.4406  0.1411  0.0592
12149SOL    HW137580   5.377   1.036   2.735 -0.0779  1.8274  2.7689
12149SOL    HW237581   5.245   1.108   2.725 -1.2233 -0.5384 -0.8325
12150SOL     OW37582   6.850   1.170   7.759  0.0294 -0.0341  0.1141
12150SOL    HW137583   6.815   1.086   7.729 -1.1362  0.4844 -0.0441
12150SOL    HW237584   6.776   1.213   7.801  0.9118  0.4447  1.2363
12151SOL     OW37585   6.884   8.224   1.066  0.2054 -0.4022 -0.4813
12151SOL    HW137586   6.904   8.179   1.148  0.0161 -1.0222 -0.7674
12151SOL    HW237587   6.960   8.281   1.051  0.0907 -0.0331  0.2883
12152SOL     OW37588   4.635   4.372   5.593 -0.0136 -0.2466 -0.4466
12152SOL    HW137589   4.716   4.400   5.551  0.4572  1.7783  1.6272
12152SOL    HW237590   4.577   4.448   5.587 -1.6168 -1.4646 -1.3776
12153SOL     OW37591   6.951   8.410   7.768  0.3824 -1.1473 -0.4881
12153SOL    HW137592   6.926   8.491   7.811 -0.3575 -2.1835  1.1511
12153SOL    HW237593   6.893   8.405   7.691  1.5805  0.6301 -1.5508
12154SOL     OW37594   1.126   0.936   2.911 -0.6434  0.6502  0.8070
12154SOL    HW137595   1.144   0.847   2.942  0.9448 -0.0170 -1.6914
12154SOL    HW237596   1.039   0.930   2.871  0.3817 -0.5280 -1.4701
12155SOL     OW37597   8.101   0.080   2.981  0.3976 -0.3162  0.1388
12155SOL    HW137598   8.022   0.041   3.019  0.3249 -1.5715 -1.2123
12155SOL    HW237599   8.162   0.007   2.971  1.6312  0.5815  0.8467
12156SOL     OW37600   0.607   1.070   3.216 -0.2856  0.0739  0.0022
12156SOL    HW137601   0.675   1.134   3.199  0.4298 -0.2742  1.3946
12156SOL    HW237602   0.560   1.062   3.133  0.5212  1.3042 -0.6005
12157SOL     OW37603   0.243   3.002   8.439 -0.4643  0.1490  0.1264
12157SOL    HW137604   0.259   3.015   8.346  2.1678 -1.4927  0.2507
12157SOL    HW237605   0.203   3.084   8.468  1.9568  2.1865 -1.7778
12158SOL     OW37606   3.085   8.412   5.281 -0.1907 -0.3955  0.3971
12158SOL    HW137607   3.069   8.417   5.376 -0.5802 -0.0992  0.3203
12158SOL    HW237608   3.074   8.502   5.251 -0.2904 -0.5300  0.0350
12159SOL     OW37609   5.222   6.614   1.429 -0.3017  0.0994 -0.1416
12159SOL    HW137610   5.215   6.698   1.385 -1.3860  0.6656  1.0694
12159SOL    HW237611   5.294   6.625   1.490 -1.1987  0.5650  0.8587
12160SOL     OW37612   5.610   6.402   3.306 -0.2032  0.2014  0.2828
12160SOL    HW137613   5.618   6.353   3.388 -0.0247 -0.5243 -0.1593
12160SOL    HW237614   5.698   6.400   3.269 -0.5546 -0.5877 -0.5476
12161SOL     OW37615   7.597   7.332   6.521  0.2647 -0.1497  0.7476
12161SOL    HW137616   7.631   7.273   6.589 -0.9878 -1.1951  0.5133
12161SOL    HW237617   7.570   7.273   6.450  3.6056  0.9822 -1.7412
12162SOL     OW37618   1.603   3.269   1.605 -0.3760 -0.1468 -0.2201
12162SOL    HW137619   1.629   3.360   1.616  0.0749 -0.0132 -1.9637
12162SOL    HW237620   1.507   3.270   1.611 -0.3400  0.3223  0.3999
12163SOL     OW37621   3.579   1.787   1.031  0.6026 -0.1220 -0.5841
12163SOL    HW137622   3.519   1.713   1.018  1.5887 -0.8414 -1.2023
12163SOL    HW237623   3.548   1.854   0.971 -0.1454 -0.1230 -0.2131
12164SOL     OW37624   1.253   4.421   3.993 -0.6705  0.0356 -0.1516
12164SOL    HW137625   1.176   4.460   4.034  0.5319  0.1884  2.0945
12164SOL    HW237626   1.254   4.330   4.023 -0.7319 -0.3658 -1.3206
12165SOL     OW37627   1.097   3.810   1.959  0.0340  0.0085  0.3444
12165SOL    HW137628   1.132   3.886   2.006  1.9296 -1.1431  0.9198
12165SOL    HW237629   1.003   3.813   1.976  0.2183  1.5504  1.3484
12166SOL     OW37630   0.380   3.120   7.721 -0.1380  0.0456  0.5103
12166SOL    HW137631   0.391   3.124   7.626  0.5836  0.3487  0.5917
12166SOL    HW237632   0.298   3.165   7.737 -0.4511 -0.3332 -0.0004
12167SOL     OW37633   2.130   6.597   2.126  0.5397 -0.0991  0.0249
12167SOL    HW137634   2.178   6.526   2.169  1.7504  0.6399 -0.0578
12167SOL    HW237635   2.066   6.626   2.192 -1.3003 -2.4418 -0.5624
12168SOL     OW37636   2.388   6.723   0.650  0.0437  0.2684 -0.5772
12168SOL    HW137637   2.451   6.794   0.662  0.3300 -0.1305  0.4506
12168SOL    HW237638   2.346   6.741   0.566  0.8067  1.1025 -0.7915
12169SOL     OW37639   7.846   5.461   2.084 -0.1050 -0.4139  0.6351
12169SOL    HW137640   7.882   5.374   2.070  0.9460  0.1146 -0.1129
12169SOL    HW237641   7.814   5.488   1.998 -0.3871 -0.0359  0.8550
12170SOL     OW37642   7.255   5.416   7.169 -0.7327  0.3602  0.7639
12170SOL    HW137643   7.226   5.498   7.128  0.4215  0.7509  0.6960
12170SOL    HW237644   7.298   5.444   7.249 -1.0061 -0.2474  1.1245
12171SOL     OW37645   5.123   2.474   1.219  0.2390 -0.5815  0.1218
12171SOL    HW137646   5.041   2.522   1.205  1.1156  0.8437 -0.3389
12171SOL    HW237647   5.098   2.399   1.273 -1.8608 -1.7677 -2.2902
12172SOL     OW37648   1.303   1.617   1.162 -0.2273 -0.3824 -0.1810
12172SOL    HW137649   1.323   1.682   1.229 -0.1525 -2.0498  1.5083
12172SOL    HW237650   1.208   1.613   1.161 -0.2428  0.0296 -0.5806
12173SOL     OW37651   6.311   0.134   5.597  0.2664 -0.0698 -0.2040
12173SOL    HW137652   6.313   0.114   5.504 -0.1776  0.6843 -0.3859
12173SOL    HW237653   6.402   0.129   5.625  0.1766 -2.6839 -0.1280
12174SOL     OW37654   1.714   1.948   4.561 -0.0594  0.0867 -0.2195
12174SOL    HW137655   1.665   2.030   4.560 -3.5040 -1.6028  3.0441
12174SOL    HW237656   1.799   1.971   4.597 -0.5687  2.3749 -0.3458
12175SOL     OW37657   6.943   8.520   0.576 -0.5829 -0.0230 -0.1183
12175SOL    HW137658   6.978   8.431   0.564  0.7841  0.6334 -1.3647
12175SOL    HW237659   6.904   8.541   0.491  3.3567  2.2667 -1.6707
12176SOL     OW37660   1.047   1.456   8.817 -0.6224 -0.2859  0.5478
12176SOL    HW137661   1.015   1.366   8.807  0.5693 -0.8705  1.8252
12176SOL    HW237662   1.135   1.455   8.779 -0.4296  0.2390  0.9658
12177SOL     OW37663   2.153   3.462   1.180  0.0684  0.2511 -0.2545
12177SOL    HW137664   2.130   3.442   1.271 -0.4294 -1.2373 -0.6893
12177SOL    HW237665   2.084   3.422   1.128 -0.6586  2.6330 -1.2594
12178SOL     OW37666   3.398   7.351   3.614  0.2974  0.3199 -0.1000
12178SOL    HW137667   3.324   7.377   3.559 -0.6648  0.8068  1.3836
12178SOL    HW237668   3.430   7.432   3.653  0.1865 -0.1541  1.0090
12179SOL     OW37669   7.426   3.350   8.713 -0.0945  0.3499  0.0465
12179SOL    HW137670   7.362   3.334   8.643  0.1208 -1.5029  0.2227
12179SOL    HW237671   7.500   3.294   8.692  0.0958 -0.0451  1.5944
12180SOL     OW37672   0.825   2.401   6.836  0.0234  0.1429  0.2298
12180SOL    HW137673   0.787   2.404   6.924 -1.3072 -0.3143 -0.3071
12180SOL    HW237674   0.753   2.371   6.780  1.2807 -1.0709 -0.7839
12181SOL     OW37675   2.101   8.574   1.192 -0.6266  0.1495  0.1807
12181SOL    HW137676   2.059   8.505   1.140  0.3128 -1.2765  1.2612
12181SOL    HW237677   2.162   8.616   1.131 -1.1259 -0.0262 -0.4562
12182SOL     OW37678   0.026   2.742   7.007 -0.2256  0.4963 -0.0485
12182SOL    HW137679   0.017   2.779   6.920  1.2945  0.7967 -0.1139
12182SOL    HW237680   0.098   2.679   6.999  0.6023  1.2354  1.1746
12183SOL     OW37681   4.410   2.119   1.869  0.3294  0.2450  0.2524
12183SOL    HW137682   4.362   2.188   1.823 -0.7835 -0.4307  0.3601
12183SOL    HW237683   4.394   2.040   1.818  0.3916 -0.2087  0.9154
12184SOL     OW37684   8.567   6.888   5.864 -0.4755  0.2407  0.3591
12184SOL    HW137685   8.545   6.853   5.950 -1.6371 -0.7054 -0.2852
12184SOL    HW237686   8.484   6.921   5.829 -0.0780  0.3629 -0.5073
12185SOL     OW37687   7.788   1.455   5.259 -0.2155  0.0344 -0.1894
12185SOL    HW137688   7.699   1.424   5.244 -0.3991  1.0343 -1.3092
12185SOL    HW237689   7.807   1.431   5.350 -1.3766 -0.7751 -0.1402
12186SOL     OW37690   8.515   3.397   0.534  0.0150 -0.4696 -0.1186
12186SOL    HW137691   8.580   3.327   0.537  1.5561  0.9068  0.4133
12186SOL    HW237692   8.488   3.409   0.625  0.1529 -0.0541 -0.1271
12187SOL     OW37693   4.074   6.123   1.764 -0.1248  0.3146 -0.1232
12187SOL    HW137694   4.110   6.037   1.741  0.1080  0.4147 -0.1270
12187SOL    HW237695   3.980   6.115   1.745 -0.2938 -0.2917  0.8760
12188SOL     OW37696   0.838   4.569   2.807 -0.6064 -0.1253  0.3173
12188SOL    HW137697   0.839   4.586   2.901 -1.6255 -0.1694  0.3438
12188SOL    HW237698   0.806   4.650   2.769 -0.6961 -0.2863  0.0500
12189SOL     OW37699   2.892   4.852   7.319 -0.1944  0.3750 -0.7018
12189SOL    HW137700   2.983   4.850   7.348 -0.3076  3.2130  0.2259
12189SOL    HW237701   2.896   4.877   7.227  0.0014  1.9265 -0.3043
12190SOL     OW37702   5.986   4.293   7.380  0.9945 -0.2473 -0.5125
12190SOL    HW137703   5.987   4.335   7.466  2.9630 -1.0219 -0.1118
12190SOL    HW237704   5.976   4.365   7.318  0.3322  0.3924  0.3056
12191SOL     OW37705   1.372   3.805   0.118  0.4311  0.1469  0.0096
12191SOL    HW137706   1.421   3.886   0.124  3.1993 -1.2845 -1.4824
12191SOL    HW237707   1.319   3.815   0.039  0.5583  0.6058 -0.0189
12192SOL     OW37708   0.069   6.423   3.278  0.0613 -0.0430 -0.3149
12192SOL    HW137709  -0.013   6.470   3.291 -0.6088 -0.8746 -1.3568
12192SOL    HW237710   0.049   6.333   3.304  0.9246 -0.0520  0.3383
12193SOL     OW37711   5.250   3.726   3.012  0.9710  0.6220  0.2592
12193SOL    HW137712   5.291   3.640   3.026  1.9171  1.0650  0.2828
12193SOL    HW237713   5.223   3.755   3.099  1.0732  0.5550  0.3134
12194SOL     OW37714   6.914   6.638   8.675  0.2344  0.1206 -0.5313
12194SOL    HW137715   6.913   6.602   8.586  0.7692 -2.0146  0.2677
12194SOL    HW237716   6.955   6.724   8.665  2.5954 -1.0548 -2.0601
12195SOL     OW37717   2.293   8.353   8.541 -0.4005  0.2809 -0.1525
12195SOL    HW137718   2.324   8.406   8.468  0.8537 -0.3027 -0.0741
12195SOL    HW237719   2.253   8.276   8.501  1.9725 -0.9776 -0.2784
12196SOL     OW37720   3.114   6.432   8.114  0.8958  0.4039  0.0133
12196SOL    HW137721   3.152   6.485   8.184  0.0686  0.9767  0.0400
12196SOL    HW237722   3.056   6.492   8.068  1.0399 -0.1063 -0.8524
12197SOL     OW37723   4.905   3.045   0.344 -0.1248 -0.3345 -0.4062
12197SOL    HW137724   4.893   3.108   0.415 -0.0361 -0.3542 -0.3737
12197SOL    HW237725   4.999   3.027   0.343  0.2163  1.2192 -1.8462
12198SOL     OW37726   7.565   6.605   1.804  0.2163 -0.1314  0.5030
12198SOL    HW137727   7.609   6.681   1.843 -0.8869  0.5521  0.4709
12198SOL    HW237728   7.571   6.620   1.710  0.1251 -0.1494  0.4938
12199SOL     OW37729   6.318   4.507   7.971 -0.3611 -0.4357  0.2467
12199SOL    HW137730   6.390   4.570   7.972 -0.7097  0.0189 -1.0891
12199SOL    HW237731   6.241   4.559   7.947 -1.3805 -0.7153  2.6195
12200SOL     OW37732   2.098   3.665   2.173 -0.4348  0.5028  0.1939
12200SOL    HW137733   2.134   3.596   2.227  1.1491  0.8599 -0.3483
12200SOL    HW237734   2.089   3.740   2.232 -0.8135  0.2622  0.4492
12201SOL     OW37735   2.813   1.096   7.053 -0.1323  0.5257 -0.4485
12201SOL    HW137736   2.878   1.138   7.110 -0.3263  1.2596 -0.7598
12201SOL    HW237737   2.777   1.168   7.001 -1.1707  0.1205 -0.3058
12202SOL     OW37738   2.433   1.211   6.305 -0.5225  0.3657  0.1268
12202SOL    HW137739   2.383   1.219   6.386 -2.0811  2.0736 -0.9194
12202SOL    HW237740   2.421   1.120   6.278  0.3436 -0.3465  1.9491
12203SOL     OW37741   5.824   4.965   7.255 -0.1211  0.3365  0.4760
12203SOL    HW137742   5.806   5.050   7.295 -1.1304  0.0876  0.5756
12203SOL    HW237743   5.874   4.985   7.176 -0.2636  1.0138  0.5565
12204SOL     OW37744   2.542   2.565   4.932 -0.4217  0.4548 -0.1875
12204SOL    HW137745   2.500   2.647   4.958  0.6056  0.4719  1.5749
12204SOL    HW237746   2.635   2.587   4.923 -0.1446 -0.4865  0.2040
12205SOL     OW37747   6.857   2.098   5.744 -0.0078 -0.3816 -0.0466
12205SOL    HW137748   6.835   2.009   5.771  1.8861 -0.4903  1.3706
12205SOL    HW237749   6.907   2.133   5.818  1.3263  1.0241 -1.5542
12206SOL     OW37750   1.163   7.991   0.141 -0.1595 -0.4935  1.1218
12206SOL    HW137751   1.226   8.058   0.114 -0.5471 -0.7196 -0.4575
12206SOL    HW237752   1.114   8.032   0.213 -1.5414  1.6681 -0.8711
12207SOL     OW37753   3.178   7.835   4.643 -0.1105 -0.0913 -0.4992
12207SOL    HW137754   3.267   7.805   4.661 -0.3955 -1.0357 -0.5844
12207SOL    HW237755   3.125   7.755   4.646 -0.7668  0.2838 -1.6381
12208SOL     OW37756   1.641   0.453   2.750  0.6744  0.2388  0.0272
12208SOL    HW137757   1.602   0.534   2.718  0.9694  0.7573  0.9581
12208SOL    HW237758   1.733   0.459   2.723  0.2722 -0.8013 -1.8144
12209SOL     OW37759   3.351   6.940   0.919  0.3597 -0.6738  0.0090
12209SOL    HW137760   3.264   6.929   0.880  0.5510 -0.5506 -0.4489
12209SOL    HW237761   3.410   6.891   0.862  0.8843  0.7917 -0.7516
12210SOL     OW37762   1.274   8.336   2.102  0.3530 -0.2756  0.2043
12210SOL    HW137763   1.333   8.391   2.154  0.0793 -0.6291  0.8919
12210SOL    HW237764   1.223   8.398   2.050 -0.3653  0.1678  1.4011
12211SOL     OW37765   8.200   3.189   7.281  0.7698 -0.1387 -0.4626
12211SOL    HW137766   8.243   3.109   7.310 -1.0272 -1.0949 -0.2794
12211SOL    HW237767   8.184   3.176   7.188 -0.2882 -0.3847 -0.2590
12212SOL     OW37768   1.761   3.820   3.051  0.3571  0.3636  0.3758
12212SOL    HW137769   1.796   3.869   2.977 -1.4432 -0.6673 -1.2667
12212SOL    HW237770   1.717   3.885   3.105  1.9835  1.1794  0.7862
12213SOL     OW37771   7.912   2.763   7.921 -0.5139 -0.3833  0.1710
12213SOL    HW137772   7.902   2.850   7.882  1.4247 -0.5207 -0.7126
12213SOL    HW237773   7.876   2.773   8.010 -1.0803  1.0703 -0.1912
12214SOL     OW37774   2.444   0.928   0.659  0.7723 -0.0627  0.1813
12214SOL    HW137775   2.439   0.913   0.564  1.3261  0.4018  0.0741
12214SOL    HW237776   2.449   1.023   0.668  2.3287 -0.1627  0.5914
12215SOL     OW37777   5.758   2.745   5.636  0.7457  0.4681 -0.4394
12215SOL    HW137778   5.693   2.816   5.643 -0.2118 -0.4719  0.7217
12215SOL    HW237779   5.710   2.672   5.597  1.4961  0.1885 -0.8555
12216SOL     OW37780   3.892   4.649   6.296 -0.0634 -0.2858 -0.5441
12216SOL    HW137781   3.871   4.619   6.384  0.8057  2.1988  0.6027
12216SOL    HW237782   3.813   4.694   6.266  0.6594  1.6502  0.3206
12217SOL     OW37783   6.438   4.223   1.408 -0.4298  0.2063  0.4624
12217SOL    HW137784   6.381   4.274   1.466  1.9081 -0.1577  3.3703
12217SOL    HW237785   6.416   4.132   1.426 -2.2828  0.0281 -2.2110
12218SOL     OW37786   7.885   6.684   6.615  0.6837 -0.0404 -0.4561
12218SOL    HW137787   7.804   6.695   6.565  0.2514 -2.4538 -0.4263
12218SOL    HW237788   7.949   6.738   6.570 -0.6813  1.0974 -1.1134
12219SOL     OW37789   2.776   7.130   9.066  0.4524  1.0286 -0.3058
12219SOL    HW137790   2.718   7.098   9.134  0.2158  0.8569 -0.5876
12219SOL    HW237791   2.858   7.149   9.111  0.2424  1.0778  0.0552
12220SOL     OW37792   1.433   2.409   1.317 -0.1128 -0.4325 -0.0106
12220SOL    HW137793   1.452   2.421   1.224 -0.2008 -1.1174 -0.1175
12220SOL    HW237794   1.518   2.417   1.360  0.0919 -1.2159 -0.2618
12221SOL     OW37795   1.747   3.021   1.099 -0.0722 -0.4997  0.2245
12221SOL    HW137796   1.736   3.090   1.164 -1.5055 -0.4635 -0.0229
12221SOL    HW237797   1.837   2.991   1.111  1.0516  2.2636 -0.5552
12222SOL     OW37798   5.380   1.438   0.213 -0.0453 -0.3777 -0.0149
12222SOL    HW137799   5.434   1.501   0.164  0.2305  0.2636  1.0759
12222SOL    HW237800   5.422   1.432   0.299 -2.9176  1.9019  1.7256
12223SOL     OW37801   6.301   4.899   8.576 -0.0785 -0.3465  0.0120
12223SOL    HW137802   6.223   4.912   8.630 -0.8574  0.1810 -1.2213
12223SOL    HW237803   6.271   4.909   8.486  1.3882 -0.2807 -0.5008
12224SOL     OW37804   0.557   0.657   8.297 -0.1016 -0.0992 -0.0516
12224SOL    HW137805   0.636   0.690   8.341 -0.6910  0.1110  0.8779
12224SOL    HW237806   0.505   0.618   8.368 -0.7940 -0.3026 -0.6676
12225SOL     OW37807   7.695   2.556   7.397 -0.0565 -0.4556 -0.6571
12225SOL    HW137808   7.730   2.618   7.462 -0.2717 -1.3786  0.3658
12225SOL    HW237809   7.765   2.493   7.383 -0.7497 -1.4651  0.2875
12226SOL     OW37810   2.462   3.225   1.844 -0.2722  0.2975 -0.2439
12226SOL    HW137811   2.550   3.257   1.823  0.2756 -1.5597 -0.9859
12226SOL    HW237812   2.417   3.300   1.881  1.9051  1.0729  0.9601
12227SOL     OW37813   5.305   8.303   6.331  0.1393  0.3909 -0.7417
12227SOL    HW137814   5.381   8.247   6.345 -0.1749 -0.0940 -0.9585
12227SOL    HW237815   5.342   8.391   6.319  0.5990  0.3263  0.1319
12228SOL     OW37816   6.650   1.857   5.824  0.1545 -0.0076 -0.4577
12228SOL    HW137817   6.632   1.948   5.850 -0.8081  0.0240 -1.2115
12228SOL    HW237818   6.632   1.854   5.731  2.4054 -0.4355 -0.9439
12229SOL     OW37819   3.842   1.516   3.725  0.3471 -0.0275  0.5304
12229SOL    HW137820   3.806   1.592   3.771  0.9863 -0.2041  1.3411
12229SOL    HW237821   3.923   1.497   3.771 -0.3606 -1.9214  1.0871
12230SOL     OW37822   5.154   7.757   4.825 -0.4210  0.3808 -0.2049
12230SOL    HW137823   5.068   7.795   4.841 -0.7750 -0.5189  0.0849
12230SOL    HW237824   5.187   7.734   4.911 -0.7605 -1.1201 -0.4529
12231SOL     OW37825   0.898   2.483   5.861 -0.2717  0.8273  0.0409
12231SOL    HW137826   0.805   2.508   5.864 -1.3974 -2.8244  1.3131
12231SOL    HW237827   0.926   2.484   5.953  0.1229 -0.6503 -0.0497
12232SOL     OW37828   6.003   8.495   5.845 -0.7790 -0.2914  0.2188
12232SOL    HW137829   6.000   8.590   5.832  1.9521 -0.0729  0.4968
12232SOL    HW237830   5.950   8.480   5.923 -0.0928  1.2561  1.0471
12233SOL     OW37831   7.321   1.568   5.401  0.2929  0.1383  0.5300
12233SOL    HW137832   7.337   1.478   5.373 -0.7155  0.0223  0.2795
12233SOL    HW237833   7.363   1.622   5.334 -1.2853 -0.1472 -0.7537
12234SOL     OW37834   3.974   3.090   1.918 -0.7423 -0.1958 -0.0626
12234SOL    HW137835   3.933   3.021   1.970 -2.1711  1.2099  0.7587
12234SOL    HW237836   3.945   3.073   1.829  0.8325 -1.9804 -0.2954
12235SOL     OW37837   7.769   7.477   6.344 -0.4716  0.0618  0.1077
12235SOL    HW137838   7.704   7.413   6.371 -0.3109  0.0258  0.4146
12235SOL    HW237839   7.840   7.468   6.408 -0.1453  0.0681 -0.2486
12236SOL     OW37840   2.733   0.458   2.031  0.1957  0.6560 -0.0886
12236SOL    HW137841   2.711   0.430   1.942  0.8831 -1.9738  0.4976
12236SOL    HW237842   2.650   0.455   2.078  0.3221 -0.9337  0.0674
12237SOL     OW37843   4.737   2.930   8.605 -0.8971  0.4406  0.0932
12237SOL    HW137844   4.715   2.858   8.664  0.3865 -0.5126 -0.5433
12237SOL    HW237845   4.760   2.888   8.522 -0.0411  1.5678 -0.2789
12238SOL     OW37846   1.010   4.841   0.983 -0.0273 -0.5609  0.2810
12238SOL    HW137847   1.035   4.921   1.031  0.4167  0.8167 -2.0710
12238SOL    HW237848   0.915   4.842   0.983 -0.0498  0.6410 -0.6501
12239SOL     OW37849   6.515   3.783   1.717  0.2522 -0.3055 -0.1738
12239SOL    HW137850   6.541   3.691   1.711  1.2779  0.0033 -0.6782
12239SOL    HW237851   6.525   3.805   1.810 -0.6072 -0.8616  0.0637
12240SOL     OW37852   3.641   1.205   3.544  0.0750  0.4677  0.0523
12240SOL    HW137853   3.731   1.236   3.543 -0.3538  1.7663 -0.4358
12240SOL    HW237854   3.648   1.110   3.529  1.2421  0.8872 -2.4760
12241SOL     OW37855   7.048   8.188   9.039 -0.8067  0.4557 -0.9922
12241SOL    HW137856   7.062   8.137   9.120 -3.8581  1.0216  0.0305
12241SOL    HW237857   7.108   8.262   9.047 -0.5001  0.0973  0.3973
12242SOL     OW37858   3.424   6.322   6.986  0.5007  0.1103 -0.2871
12242SOL    HW137859   3.508   6.359   6.959  1.0042 -0.8261 -0.0504
12242SOL    HW237860   3.446   6.262   7.058 -0.5125  0.7533  0.5983
12243SOL     OW37861   3.212   3.238   7.572  0.3632  0.6756 -0.0864
12243SOL    HW137862   3.167   3.304   7.624 -1.7767 -0.4447 -0.3975
12243SOL    HW237863   3.198   3.264   7.481  0.6809  0.5229 -0.1816
12244SOL     OW37864   6.816   4.324   4.837  0.2497 -0.1312 -0.1102
12244SOL    HW137865   6.830   4.231   4.819  0.2745  0.0843 -1.3037
12244SOL    HW237866   6.814   4.331   4.932  3.3382 -0.9104  0.1178
12245SOL     OW37867   8.326   8.212   2.713 -0.0092 -0.3262  0.4651
12245SOL    HW137868   8.307   8.286   2.655  0.2162  0.7986  1.7647
12245SOL    HW237869   8.242   8.193   2.755 -0.4599 -1.9386 -1.0559
12246SOL     OW37870   8.108   9.062   1.543  0.2811 -0.0233 -0.1499
12246SOL    HW137871   8.016   9.058   1.570 -0.0406  0.4402 -1.1151
12246SOL    HW237872   8.117   8.993   1.478  1.0079 -1.0288  0.9772
12247SOL     OW37873   8.344   0.788   3.382  0.4701  0.4675  0.1854
12247SOL    HW137874   8.314   0.796   3.292 -2.2137  1.9436  1.0910
12247SOL    HW237875   8.422   0.732   3.377 -0.5015 -0.8022 -2.8269
12248SOL     OW37876   6.162   0.421   7.606  0.1424 -0.2657  0.0350
12248SOL    HW137877   6.160   0.327   7.589 -1.9807 -0.1232 -0.7804
12248SOL    HW237878   6.103   0.433   7.681 -0.2898  0.5059 -0.4143
12249SOL     OW37879   6.317   3.931   3.185  0.3378  0.0550 -0.2709
12249SOL    HW137880   6.401   3.902   3.222 -0.1279 -1.3270 -0.2258
12249SOL    HW237881   6.284   3.996   3.247  0.7706 -0.3443  0.3880
12250SOL     OW37882   6.721   7.999   8.746  0.2851 -0.3443  0.8019
12250SOL    HW137883   6.802   7.962   8.710 -1.1803 -1.8733 -1.1513
12250SOL    HW237884   6.729   7.988   8.840  0.8687 -3.9009  0.4844
12251SOL     OW37885   1.828   6.815   8.223  0.0747 -0.0769  0.2454
12251SOL    HW137886   1.815   6.753   8.294 -3.0775 -3.1320 -2.5920
12251SOL    HW237887   1.852   6.760   8.148  1.6795  2.7529 -1.5095
12252SOL     OW37888   8.368   8.057   2.461 -0.0411  0.1428 -0.1644
12252SOL    HW137889   8.420   8.080   2.538  0.3834 -0.6821 -0.1912
12252SOL    HW237890   8.279   8.083   2.483  0.6423  3.7179 -0.9788
12253SOL     OW37891   1.018   2.642   0.653  0.1950 -0.0483 -0.0750
12253SOL    HW137892   1.084   2.669   0.589  1.0394  0.1658  0.8675
12253SOL    HW237893   0.974   2.567   0.612 -0.2062  0.9165 -1.4775
12254SOL     OW37894   6.188   0.128   5.222  0.5102 -0.2005 -0.1399
12254SOL    HW137895   6.178   0.207   5.170  1.9584  1.0466  1.3630
12254SOL    HW237896   6.277   0.133   5.256 -0.5941 -0.4500  3.1259
12255SOL     OW37897   3.166   2.489   2.623  0.6182 -0.1015  0.0319
12255SOL    HW137898   3.230   2.474   2.693  1.6390  1.5020 -0.4885
12255SOL    HW237899   3.086   2.516   2.669  0.1673 -2.3788  0.7055
12256SOL     OW37900   6.172   1.394   0.807  0.5702  0.4270 -0.4831
12256SOL    HW137901   6.176   1.425   0.716  1.0175  0.3281 -0.5031
12256SOL    HW237902   6.158   1.473   0.859 -1.1883  0.3145 -0.7417
12257SOL     OW37903   7.056   2.148   9.057 -0.2927 -0.7114  0.4928
12257SOL    HW137904   6.981   2.174   9.003  0.5475 -0.3925 -0.5522
12257SOL    HW237905   7.029   2.065   9.097 -0.9736 -0.9142 -0.3565
12258SOL     OW37906   6.211   6.930   4.806  0.6240 -0.6047  0.2801
12258SOL    HW137907   6.184   7.018   4.831  1.2765 -0.7116  1.4267
12258SOL    HW237908   6.130   6.885   4.781  0.2343  0.1670  0.1358
12259SOL     OW37909   1.970   7.254   4.007 -0.0165  0.2894  0.2342
12259SOL    HW137910   1.950   7.249   3.914  1.1240 -0.6247  0.0263
12259SOL    HW237911   2.021   7.335   4.017  1.9403 -0.8185 -0.3645
12260SOL     OW37912   6.722   3.583   7.632  0.3300 -0.5469 -0.6469
12260SOL    HW137913   6.690   3.537   7.555  0.6044  0.4456 -1.3638
12260SOL    HW237914   6.709   3.675   7.612 -1.4380 -0.2926  1.2993
12261SOL     OW37915   1.075   8.622   6.031 -0.1343 -0.2323  0.3796
12261SOL    HW137916   0.999   8.632   5.975  0.4817 -0.9091 -0.6121
12261SOL    HW237917   1.079   8.704   6.081 -2.4658 -0.8611  1.7148
12262SOL     OW37918   1.795   4.571   6.273  0.1534 -0.8862  0.4233
12262SOL    HW137919   1.786   4.551   6.366  1.8019 -2.6123  0.2928
12262SOL    HW237920   1.861   4.640   6.270 -1.6806  0.9439  0.6113
12263SOL     OW37921   5.172   4.417   6.033 -0.7556 -0.4565 -0.0308
12263SOL    HW137922   5.099   4.410   6.094 -1.4233  0.1440 -0.7442
12263SOL    HW237923   5.143   4.371   5.954 -0.2004 -0.5701 -0.1770
12264SOL     OW37924   4.048   0.416   3.825  0.3747  0.0461 -0.5668
12264SOL    HW137925   4.040   0.486   3.890  0.5554 -1.8542  1.6251
12264SOL    HW237926   4.132   0.375   3.844 -0.3452 -1.6439 -0.8090
12265SOL     OW37927   1.638   7.927   7.530  0.3964 -0.4551  0.5744
12265SOL    HW137928   1.651   7.976   7.449 -0.5949  1.4608  1.4758
12265SOL    HW237929   1.552   7.887   7.521  0.4585 -0.5744  0.5157
12266SOL     OW37930   4.688   9.005   4.409  0.4228  0.0165  0.5314
12266SOL    HW137931   4.636   9.080   4.439  1.0039  0.5053  0.3216
12266SOL    HW237932   4.761   9.000   4.471  1.3595  0.7230 -0.4862
12267SOL     OW37933   4.394   6.600   7.589 -0.3140 -0.0597 -0.2557
12267SOL    HW137934   4.473   6.654   7.595 -1.4102  1.5191  0.8742
12267SOL    HW237935   4.426   6.512   7.570  1.8766  0.1651  1.8920
12268SOL     OW37936   4.343   5.085   4.770 -1.2810  0.1752  0.3812
12268SOL    HW137937   4.395   5.160   4.742 -0.1161 -0.7028  0.1241
12268SOL    HW237938   4.392   5.008   4.741 -2.6055 -0.7054  0.3373
12269SOL     OW37939   8.814   4.702   3.799  0.5974  0.6900  0.4035
12269SOL    HW137940   8.887   4.763   3.789  0.0439  2.1444  3.8092
12269SOL    HW237941   8.736   4.758   3.802 -0.1542 -0.3475  1.5060
12270SOL     OW37942   4.419   2.158   8.297 -0.0982  0.0630  0.2644
12270SOL    HW137943   4.377   2.155   8.211  0.9081  1.4562 -0.3126
12270SOL    HW237944   4.459   2.245   8.301 -1.0030  0.4411  2.5773
12271SOL     OW37945   8.412   1.298   1.938 -0.1325 -0.6543 -0.0845
12271SOL    HW137946   8.492   1.319   1.987  0.1390 -0.8760 -0.4326
12271SOL    HW237947   8.403   1.203   1.946 -0.9719 -0.5201  0.8850
12272SOL     OW37948   2.446   7.876   7.646  0.4048 -0.5821 -0.2308
12272SOL    HW137949   2.373   7.881   7.584 -1.7046 -0.3837  2.1280
12272SOL    HW237950   2.464   7.782   7.654 -0.5187 -0.7416  0.1386
12273SOL     OW37951   2.305   5.319   4.933  0.4529 -0.1761  0.1927
12273SOL    HW137952   2.264   5.262   4.998 -1.0830 -0.3656 -0.8984
12273SOL    HW237953   2.362   5.261   4.882  0.8109 -0.2306  0.6424
12274SOL     OW37954   1.936   5.043   3.612 -0.0621 -0.4441  0.3585
12274SOL    HW137955   1.888   4.981   3.667 -0.9105  1.1190  1.4581
12274SOL    HW237956   1.938   5.124   3.662  3.9460 -0.4033  0.4740
12275SOL     OW37957   7.626   7.310   2.909 -0.5212 -0.3281  0.8598
12275SOL    HW137958   7.639   7.400   2.939 -0.5518 -0.3856  1.0480
12275SOL    HW237959   7.710   7.267   2.922  0.3861  0.4138 -1.9043
12276SOL     OW37960   7.494   4.047   2.950 -0.3739  0.2791  0.7291
12276SOL    HW137961   7.519   3.955   2.955  0.5025  0.5473  1.3646
12276SOL    HW237962   7.521   4.075   2.862  0.9014  0.3719  1.1424
12277SOL     OW37963   2.669   6.534   3.636 -0.5946 -0.2073  0.2353
12277SOL    HW137964   2.595   6.565   3.584 -0.1835 -1.1279 -0.9564
12277SOL    HW237965   2.637   6.532   3.726 -1.2699  1.6383  0.0758
12278SOL     OW37966   6.196   7.704   0.305 -0.2560  0.0368 -0.2325
12278SOL    HW137967   6.281   7.690   0.263 -0.4916 -2.8726  0.0599
12278SOL    HW237968   6.132   7.673   0.240 -0.9425  0.1877  0.3590
12279SOL     OW37969   2.999   2.144   0.042  0.1359  0.0998 -0.1191
12279SOL    HW137970   2.954   2.218   0.082  0.0804 -0.1226  0.2398
12279SOL    HW237971   3.002   2.078   0.112 -0.0447 -0.3285 -0.5130
12280SOL     OW37972   1.925   2.162   2.066 -0.6501 -0.2570  0.2532
12280SOL    HW137973   1.851   2.195   2.116 -0.5342 -1.1636  1.0271
12280SOL    HW237974   1.946   2.077   2.104  2.3815  1.0027  1.7607
12281SOL     OW37975   4.502   0.150   5.359 -0.0291  0.0850 -0.2157
12281SOL    HW137976   4.456   0.119   5.437 -1.3806  1.3423 -0.4562
12281SOL    HW237977   4.582   0.190   5.393  1.2335 -2.5900  0.1746
12282SOL     OW37978   0.813   3.388   2.518  0.1662  0.2996  0.3364
12282SOL    HW137979   0.768   3.395   2.603 -1.6452 -0.0920 -0.5472
12282SOL    HW237980   0.757   3.436   2.457 -0.1160 -1.8191 -1.1988
12283SOL     OW37981   5.302   2.760   6.366 -0.0796 -0.3704 -0.1022
12283SOL    HW137982   5.291   2.681   6.418  0.3193 -0.9269 -0.8427
12283SOL    HW237983   5.263   2.739   6.281 -0.2255  0.3265 -0.2155
12284SOL     OW37984   1.512   6.492   1.538 -0.0640  0.2425  0.2184
12284SOL    HW137985   1.605   6.474   1.525 -0.1562  0.7829 -1.4258
12284SOL    HW237986   1.509   6.565   1.600  0.6318  0.5624 -0.1195
12285SOL     OW37987   5.762   6.475   2.783  0.2456 -0.3634 -0.2671
12285SOL    HW137988   5.707   6.419   2.728 -0.2852 -0.1629  0.0454
12285SOL    HW237989   5.835   6.419   2.810  1.2958 -0.0696 -2.3196
12286SOL     OW37990   6.290   4.233   4.942  0.0574  0.2205  0.5319
12286SOL    HW137991   6.324   4.309   4.990  1.1719  0.0203  0.0979
12286SOL    HW237992   6.289   4.163   5.006  1.8381 -0.1264  0.2455
12287SOL     OW37993   0.789   0.449   7.744 -0.2415  0.2647  0.1498
12287SOL    HW137994   0.735   0.371   7.732 -2.1927  1.6202 -0.3256
12287SOL    HW237995   0.729   0.522   7.730  1.1041  1.8978  2.2699
12288SOL     OW37996   8.984   3.335   8.433  0.0532  0.2206  0.3666
12288SOL    HW137997   8.917   3.383   8.484  0.3554  1.5475 -0.4385
12288SOL    HW237998   8.999   3.390   8.356  1.0229 -0.7965 -0.1887
12289SOL     OW37999   3.250   2.025   7.785 -0.4532 -0.0223 -0.5029
12289SOL    HW138000   3.179   2.079   7.751  1.1519  1.4667 -1.6755
12289SOL    HW238001   3.296   1.994   7.706  0.0135 -1.2442  0.2202
12290SOL     OW38002   4.142   2.689   0.580  0.4324 -0.1679  0.3041
12290SOL    HW138003   4.099   2.708   0.664  0.5278  1.0098  0.0983
12290SOL    HW238004   4.135   2.770   0.530  3.3821  0.2886  0.4503
12291SOL     OW38005   5.353   3.208   1.985  0.2340  0.3928 -0.2989
12291SOL    HW138006   5.430   3.170   1.942 -0.2593  1.1125 -1.9170
12291SOL    HW238007   5.312   3.261   1.917 -0.9842  1.0638  0.9088
12292SOL     OW38008   6.226   8.377   3.252  0.5124 -0.1366 -0.0850
12292SOL    HW138009   6.161   8.321   3.294  1.2110 -0.8765  0.0273
12292SOL    HW238010   6.226   8.457   3.306  0.2152 -0.4122  0.3365
12293SOL     OW38011   9.016   3.947   2.756 -0.3731 -0.1618 -0.6357
12293SOL    HW138012   9.028   3.987   2.842 -2.6737 -0.4532 -0.1398
12293SOL    HW238013   9.009   4.021   2.696  0.2673  0.0516 -0.4612
12294SOL     OW38014   7.493   8.825   2.667  0.3471  0.0949  0.1665
12294SOL    HW138015   7.575   8.778   2.661  0.1125 -0.2724 -0.1804
12294SOL    HW238016   7.429   8.768   2.625  0.1654  0.9624 -0.7628
12295SOL     OW38017   7.159   0.914   7.924 -0.3786 -0.4974  0.4407
12295SOL    HW138018   7.076   0.954   7.949  0.2299  0.7751  0.5539
12295SOL    HW238019   7.182   0.857   7.997  0.4645  1.7352  2.0494
12296SOL     OW38020   3.598   1.985   4.694 -0.3956 -0.6390  0.2112
12296SOL    HW138021   3.681   1.971   4.648 -0.3939  1.3278 -0.4719
12296SOL    HW238022   3.624   2.000   4.785 -0.1148 -1.1900  0.2264
12297SOL     OW38023   5.963   1.723   7.444 -0.2947  0.5918  0.0988
12297SOL    HW138024   5.974   1.731   7.539 -2.1195  1.7610  0.2472
12297SOL    HW238025   5.990   1.633   7.424 -2.2941 -0.5464  2.1132
12298SOL     OW38026   6.078   0.484   5.235 -0.0102 -0.3937  0.2488
12298SOL    HW138027   6.014   0.412   5.241 -1.1730  0.5214 -0.5994
12298SOL    HW238028   6.035   0.558   5.278  0.7315  0.0680  0.2004
12299SOL     OW38029   5.938   6.764   5.343 -0.0889 -0.1164  0.0181
12299SOL    HW138030   5.849   6.796   5.328 -0.5482 -0.9525  0.8498
12299SOL    HW238031   5.971   6.819   5.414 -0.6916 -1.0992  1.0931
12300SOL     OW38032   0.374   0.178   1.776  0.0916 -0.2207  0.4202
12300SOL    HW138033   0.431   0.158   1.702 -0.3618 -2.0023  0.5043
12300SOL    HW238034   0.286   0.156   1.745 -0.6753  2.6695  0.2157
12301SOL     OW38035   3.756   0.892   8.917 -0.1254  0.1411 -0.1743
12301SOL    HW138036   3.666   0.915   8.936 -0.1588  1.6132 -1.8899
12301SOL    HW238037   3.808   0.937   8.983 -0.6165 -0.9125  0.9694
12302SOL     OW38038   4.272   4.575   0.461 -0.6780  0.2197  0.2790
12302SOL    HW138039   4.321   4.629   0.523 -2.1209  1.4422  0.4175
12302SOL    HW238040   4.180   4.589   0.484 -1.2781  0.8409 -2.1880
12303SOL     OW38041   2.492   7.461   5.198  0.0148  0.5247  0.1824
12303SOL    HW138042   2.416   7.460   5.256  1.0985 -0.7502  1.6371
12303SOL    HW238043   2.555   7.518   5.241  1.0629 -0.9058  0.6077
12304SOL     OW38044   7.931   4.551   2.373 -0.4017 -0.1566  0.1660
12304SOL    HW138045   7.848   4.575   2.413  0.1103  0.1201  1.0981
12304SOL    HW238046   7.976   4.499   2.441 -0.3382 -1.4023 -0.7922
12305SOL     OW38047   3.094   7.141   3.017 -0.5505 -0.4256  0.2573
12305SOL    HW138048   3.156   7.068   3.010 -0.3111 -0.3766  1.5685
12305SOL    HW238049   3.145   7.212   3.056 -0.6112  0.6778 -1.5682
12306SOL     OW38050   3.892   6.478   5.917 -0.3547  0.3235 -0.0050
12306SOL    HW138051   3.951   6.436   5.979 -0.6544 -0.6867 -0.3757
12306SOL    HW238052   3.879   6.566   5.951  0.6100  0.2490  0.5875
12307SOL     OW38053   7.127   2.342   7.961  0.2317  0.0774 -0.4513
12307SOL    HW138054   7.222   2.344   7.949  0.2596 -0.6584 -0.4444
12307SOL    HW238055   7.113   2.369   8.052  0.5775 -1.4301  0.0864
12308SOL     OW38056   8.571   3.258   6.572  0.1215  0.3995 -0.1923
12308SOL    HW138057   8.642   3.320   6.589  1.2862 -0.3028 -2.1226
12308SOL    HW238058   8.551   3.269   6.478 -1.0397 -0.7327 -0.1121
12309SOL     OW38059   7.730   3.952   0.026  0.2116 -0.7658  0.0229
12309SOL    HW138060   7.811   3.935   0.075  0.5922  1.7055  0.4316
12309SOL    HW238061   7.747   4.035  -0.019 -2.3111  0.2193  0.6829
12310SOL     OW38062   5.994   6.817   3.185  0.4380  0.3031  0.0687
12310SOL    HW138063   5.958   6.853   3.104  0.4502  0.5704  0.1810
12310SOL    HW238064   5.928   6.836   3.251 -0.2126 -1.1491 -0.1332
12311SOL     OW38065   1.307   5.827   0.028 -0.0593 -0.0477  0.1009
12311SOL    HW138066   1.263   5.744   0.015  0.5154 -0.1286 -1.5151
12311SOL    HW238067   1.243   5.893   0.003 -0.1085 -0.0589  0.1987
12312SOL     OW38068   5.373   8.746   8.829 -0.7633 -0.5345  0.0890
12312SOL    HW138069   5.370   8.653   8.808  2.8046  0.0383 -4.7290
12312SOL    HW238070   5.299   8.784   8.781 -0.2543 -0.6034 -0.7718
12313SOL     OW38071   2.758   5.244   2.912 -0.1747  0.0544  0.1289
12313SOL    HW138072   2.752   5.243   2.817  1.6304  1.0558 -0.0470
12313SOL    HW238073   2.680   5.290   2.941  0.1998  1.4716 -1.0068
12314SOL     OW38074   7.478   6.800   3.528 -0.1922 -0.3120 -0.2356
12314SOL    HW138075   7.400   6.804   3.473  0.6071  0.8069 -1.3335
12314SOL    HW238076   7.550   6.823   3.470  0.9899 -1.3916  0.7390
12315SOL     OW38077   4.097   8.825   0.704  0.6469 -0.0453  0.5672
12315SOL    HW138078   4.074   8.736   0.730  0.0225  0.1193  0.5834
12315SOL    HW238079   4.155   8.814   0.628  1.9868 -0.5083  1.6155
12316SOL     OW38080   4.717   5.931   7.983 -0.1351 -0.8564  0.4599
12316SOL    HW138081   4.643   5.895   7.934  1.2100 -1.0434 -1.5299
12316SOL    HW238082   4.793   5.887   7.947  1.2445  1.3677  0.4911
12317SOL     OW38083   7.083   6.524   4.964 -0.6714  0.2547  0.3079
12317SOL    HW138084   7.115   6.544   4.876  0.2582 -1.0774  0.3055
12317SOL    HW238085   7.113   6.597   5.018  0.4111  0.1613 -0.1382
12318SOL     OW38086   5.311   0.150   4.715  0.3926 -0.0823  0.7187
12318SOL    HW138087   5.221   0.178   4.705  0.2137  0.3728  3.1157
12318SOL    HW238088   5.361   0.231   4.728  1.3877 -0.2211 -1.6535
12319SOL     OW38089   7.897   6.961   8.269  0.2003 -0.0482 -0.3062
12319SOL    HW138090   7.921   6.874   8.301  0.8278 -0.1149 -0.9437
12319SOL    HW238091   7.980   7.005   8.255 -0.1194  0.8189  0.4248
12320SOL     OW38092   8.458   6.923   4.213  0.5066  0.2399 -0.5311
12320SOL    HW138093   8.387   6.916   4.149  0.1076  0.6478 -0.1444
12320SOL    HW238094   8.538   6.922   4.161  0.1606  1.4727 -1.1151
12321SOL     OW38095   5.875   1.459   6.919  0.2447 -0.1916  0.2906
12321SOL    HW138096   5.787   1.464   6.956 -0.0664  0.0341 -0.4649
12321SOL    HW238097   5.904   1.550   6.913  0.1601 -0.1994 -0.3186
12322SOL     OW38098   5.860   9.010   3.613 -0.2949  0.2743 -0.1025
12322SOL    HW138099   5.857   8.950   3.538 -0.6153  0.0112  0.1207
12322SOL    HW238100   5.864   9.097   3.573 -0.7407  0.1486 -0.4255
12323SOL     OW38101   7.637   1.569   0.438  0.3098 -0.2292 -0.1439
12323SOL    HW138102   7.658   1.475   0.433 -1.5049 -0.6255 -1.3225
12323SOL    HW238103   7.616   1.585   0.530 -1.5729 -1.5438 -0.2910
12324SOL     OW38104   8.098   1.436   2.387  0.0597 -0.3654 -0.0866
12324SOL    HW138105   8.034   1.386   2.436  0.1545  1.7841  2.4596
12324SOL    HW238106   8.177   1.382   2.387 -0.0715 -0.5976  1.8609
12325SOL     OW38107   3.401   6.968   1.738  0.1215  0.1523 -0.4475
12325SOL    HW138108   3.477   6.916   1.710 -1.1748 -0.8270 -2.3879
12325SOL    HW238109   3.359   6.915   1.805  1.0562  0.6542  0.5675
12326SOL     OW38110   7.959   3.472   6.982  0.4004  0.0378  0.1934
12326SOL    HW138111   7.946   3.457   7.076  1.4569  0.7579  0.4715
12326SOL    HW238112   7.981   3.565   6.975  0.0466  0.0639 -0.8119
12327SOL     OW38113   6.993   0.070   7.512 -0.2101  0.2902 -0.0908
12327SOL    HW138114   7.079   0.088   7.474 -0.2583 -0.3667 -0.5382
12327SOL    HW238115   6.930   0.104   7.448 -0.2903 -0.7666 -0.6030
12328SOL     OW38116   2.640   7.869   5.554  0.3148 -0.7472 -0.0822
12328SOL    HW138117   2.669   7.846   5.643 -2.3661 -0.4687  0.9500
12328SOL    HW238118   2.664   7.961   5.545 -2.1072  0.1757  1.6868
12329SOL     OW38119   0.348   1.860   8.373  0.0116 -0.0486 -0.1569
12329SOL    HW138120   0.390   1.774   8.377  0.0478 -0.1118 -1.5301
12329SOL    HW238121   0.418   1.919   8.345  0.0951  0.5195  1.1961
12330SOL     OW38122   2.756   4.322   3.715 -0.4548 -0.1941  0.1123
12330SOL    HW138123   2.681   4.375   3.692 -1.2937 -1.5293 -0.3540
12330SOL    HW238124   2.726   4.232   3.706  1.0947 -0.7697  0.2582
12331SOL     OW38125   8.429   6.802   1.412  0.3169  0.1073 -0.7587
12331SOL    HW138126   8.421   6.797   1.507  0.7149  0.1029 -0.7250
12331SOL    HW238127   8.386   6.884   1.389  0.4288  0.2276 -0.5490
12332SOL     OW38128   7.750   3.041   1.109 -0.1193 -0.6041 -0.4108
12332SOL    HW138129   7.717   3.130   1.117 -0.7519 -0.7517 -1.2158
12332SOL    HW238130   7.726   2.998   1.191 -0.8586 -0.3641 -0.4967
12333SOL     OW38131   7.989   2.005   2.095 -0.1919 -0.3262 -0.5552
12333SOL    HW138132   7.935   1.938   2.053 -0.6526  0.3940 -1.1251
12333SOL    HW238133   8.001   1.973   2.185 -1.9678 -0.2745 -0.2675
12334SOL     OW38134   2.800   6.013   4.188 -0.2710  0.7826  0.6822
12334SOL    HW138135   2.820   5.919   4.190 -1.1705  0.5339 -0.6046
12334SOL    HW238136   2.884   6.055   4.174 -0.2876 -0.1768 -3.7150
12335SOL     OW38137   3.533   2.501   3.643 -0.2409 -0.1370 -0.6914
12335SOL    HW138138   3.554   2.526   3.553  0.9419  1.2851 -0.0676
12335SOL    HW238139   3.448   2.541   3.660 -0.5431 -0.5442 -1.2206
12336SOL     OW38140   0.101   3.235   8.473 -0.5657 -0.4159  0.0834
12336SOL    HW138141   0.009   3.259   8.460  0.0222  1.6724 -0.7684
12336SOL    HW238142   0.149   3.318   8.460  1.4118 -1.3954  0.7488
12337SOL     OW38143   3.592   1.985   7.393 -0.0167  0.4990  0.9343
12337SOL    HW138144   3.502   2.006   7.416 -0.1308  0.5343  0.4563
12337SOL    HW238145   3.607   1.898   7.431  0.2939  1.1869  2.4889
12338SOL     OW38146   5.616   6.544   1.102 -0.2656 -0.6368 -0.4106
12338SOL    HW138147   5.593   6.453   1.085  2.3307 -1.8760  1.8757
12338SOL    HW238148   5.680   6.567   1.035 -1.4244 -0.2078 -1.4012
12339SOL     OW38149   2.547   5.481   6.587 -0.7375 -0.3799  0.9172
12339SOL    HW138150   2.629   5.446   6.551 -0.5561  0.1892  0.7628
12339SOL    HW238151   2.539   5.568   6.549 -0.3113  0.4348  2.5766
12340SOL     OW38152   8.025   6.841   2.369 -0.0734 -0.6873 -0.1890
12340SOL    HW138153   8.005   6.760   2.416 -1.8949  0.5750  1.3623
12340SOL    HW238154   8.109   6.870   2.406  0.0903 -1.3523 -0.0260
12341SOL     OW38155   5.520   6.234   5.407 -0.0097  0.4067 -0.1246
12341SOL    HW138156   5.501   6.318   5.450  1.5645  0.9579 -0.4365
12341SOL    HW238157   5.517   6.169   5.477  1.1616  1.0912  0.5900
12342SOL     OW38158   3.471   7.179   5.092 -0.5291  0.2551  0.4539
12342SOL    HW138159   3.481   7.253   5.151 -0.8485  0.9044 -0.2856
12342SOL    HW238160   3.390   7.136   5.121 -0.4255  0.2871  0.7888
12343SOL     OW38161   3.341   5.086   8.224 -0.9160  0.4506  0.5795
12343SOL    HW138162   3.312   4.998   8.201  0.3438 -0.3483  1.9075
12343SOL    HW238163   3.414   5.103   8.165 -0.7177  0.3225  0.7873
12344SOL     OW38164   8.981   2.933   4.679  0.1965 -0.0914 -0.0411
12344SOL    HW138165   9.025   2.865   4.731  2.8316 -1.2795 -3.4519
12344SOL    HW238166   8.895   2.895   4.659  0.1769 -0.7440  1.1731
12345SOL     OW38167   5.935   6.311   8.582  0.5720 -0.1787  0.3306
12345SOL    HW138168   5.925   6.253   8.657  0.1059  0.5911  0.8825
12345SOL    HW238169   6.005   6.372   8.608 -0.7234  1.1377  0.8422
12346SOL     OW38170   6.383   8.989   5.952 -0.2524  0.2710 -0.9072
12346SOL    HW138171   6.375   9.057   6.019  0.6207  1.2119 -1.7135
12346SOL    HW238172   6.377   8.906   6.000  2.8583  0.8525  0.7859
12347SOL     OW38173   0.177   8.871   1.981  0.9245  0.2009  0.1981
12347SOL    HW138174   0.089   8.895   1.952  0.6039 -0.7410  0.3575
12347SOL    HW238175   0.173   8.876   2.077  1.4268  1.4040  0.1789
12348SOL     OW38176   5.944   4.491   6.932 -0.6257 -0.3030 -0.2336
12348SOL    HW138177   5.974   4.577   6.906 -1.2590 -0.7167 -2.5426
12348SOL    HW238178   5.851   4.489   6.907 -1.0198 -1.1312  1.1853
12349SOL     OW38179   1.503   2.047   7.291 -0.5723  0.4052 -0.0265
12349SOL    HW138180   1.471   2.122   7.342 -2.1937 -0.8420  0.9002
12349SOL    HW238181   1.474   2.065   7.202 -1.7725  0.4992  0.3535
12350SOL     OW38182   3.005   8.804   3.681 -0.2159  0.1477 -0.1789
12350SOL    HW138183   2.911   8.808   3.668 -0.4511 -0.7954  0.9990
12350SOL    HW238184   3.037   8.745   3.613 -0.3818  0.8904 -0.9190
12351SOL     OW38185   8.610   2.785   1.457 -0.3471  0.0779 -0.3862
12351SOL    HW138186   8.700   2.815   1.472 -0.8910  1.8592 -0.4834
12351SOL    HW238187   8.571   2.781   1.544 -0.5733  0.6613 -0.4578
12352SOL     OW38188   6.067   4.556   5.363 -0.2945 -0.0313  0.0409
12352SOL    HW138189   6.090   4.466   5.343  0.0970  0.1046 -0.1140
12352SOL    HW238190   5.991   4.549   5.422  0.5432 -0.4869  1.0891
12353SOL     OW38191   1.241   3.149   1.722 -0.6248 -0.1739  0.0483
12353SOL    HW138192   1.307   3.157   1.791 -0.0147 -0.6696 -0.4622
12353SOL    HW238193   1.240   3.056   1.700 -0.2164  0.0861 -1.1652
12354SOL     OW38194   6.748   6.839   2.073 -0.2305  0.0472 -0.2558
12354SOL    HW138195   6.701   6.810   2.151 -1.6795 -1.1830 -1.5209
12354SOL    HW238196   6.728   6.933   2.066 -0.3546  0.0930  0.6594
12355SOL     OW38197   2.952   5.819   0.792  0.1317  0.7110  0.6685
12355SOL    HW138198   2.989   5.819   0.703 -0.8729  0.9215  0.2328
12355SOL    HW238199   3.011   5.763   0.842  2.1586  2.5345  0.5022
12356SOL     OW38200   6.608   4.054   7.865 -0.0476 -0.4851  0.4912
12356SOL    HW138201   6.655   4.043   7.948  0.1473 -0.9401  0.3279
12356SOL    HW238202   6.566   4.140   7.872 -3.2012 -1.9589  2.6712
12357SOL     OW38203   7.587   2.259   8.456  0.3340  0.3438 -0.2683
12357SOL    HW138204   7.583   2.180   8.403 -1.6326  0.8195 -0.9238
12357SOL    HW238205   7.524   2.243   8.527 -0.2751  1.3944 -0.5546
12358SOL     OW38206   8.912   3.135   1.796 -0.0647  0.0180 -0.5504
12358SOL    HW138207   8.834   3.172   1.836  0.0430  0.2402 -0.5460
12358SOL    HW238208   8.962   3.210   1.765  1.1484  0.0438  1.2748
12359SOL     OW38209   4.644   2.826   4.303  0.0490  0.0754  0.1280
12359SOL    HW138210   4.579   2.818   4.373  0.7642 -1.4543  0.6615
12359SOL    HW238211   4.728   2.830   4.349  0.4109  1.0053 -0.5863
12360SOL     OW38212   0.332   2.849   8.990  0.4257 -0.6397  0.0418
12360SOL    HW138213   0.346   2.858   9.084 -2.3780 -0.3173  0.5261
12360SOL    HW238214   0.295   2.762   8.979 -0.0436 -0.3716 -0.6205
12361SOL     OW38215   4.836   8.883   2.609  0.1223 -0.3231  0.6416
12361SOL    HW138216   4.752   8.927   2.595  0.7270  0.4473 -0.9266
12361SOL    HW238217   4.901   8.952   2.597  1.0159 -1.0965  0.8917
12362SOL     OW38218   4.499   2.261   1.176  0.7014  0.5236  0.6048
12362SOL    HW138219   4.423   2.276   1.234 -0.3257  0.3625 -0.6590
12362SOL    HW238220   4.468   2.285   1.089  1.4743 -1.3978 -0.2579
12363SOL     OW38221   5.615   5.192   3.147  0.0904  0.2551  0.1827
12363SOL    HW138222   5.612   5.258   3.217  1.9815  1.0476 -0.4253
12363SOL    HW238223   5.686   5.133   3.172 -1.8080 -1.8796  0.9072
12364SOL     OW38224   8.887   2.523   3.539  0.6313 -0.7672 -0.0250
12364SOL    HW138225   8.838   2.494   3.615  1.5521 -1.9471  0.1555
12364SOL    HW238226   8.841   2.601   3.509 -0.2087 -0.7342  1.2608
12365SOL     OW38227   0.075   1.595   0.938 -0.4758  0.3174  0.8285
12365SOL    HW138228   0.102   1.522   0.882  0.0660  1.2090 -0.1119
12365SOL    HW238229   0.032   1.553   1.012  1.3720 -1.0463  1.2088
12366SOL     OW38230   5.421   6.584   8.166 -0.1280  0.0668 -0.0567
12366SOL    HW138231   5.401   6.607   8.257  0.6026 -0.0159  0.1313
12366SOL    HW238232   5.513   6.559   8.167 -0.2109 -0.3060 -0.7538
12367SOL     OW38233   8.252   5.865   4.300  0.0440 -0.5927  0.1076
12367SOL    HW138234   8.226   5.790   4.354 -1.5217 -0.3125 -0.2085
12367SOL    HW238235   8.328   5.902   4.346  0.9930 -2.4684  0.1489
12368SOL     OW38236   1.555   4.053   7.556 -0.2143  0.2519 -0.0573
12368SOL    HW138237   1.493   4.113   7.598 -1.3045 -1.3170  0.6977
12368SOL    HW238238   1.641   4.082   7.586 -0.8082  0.6079  1.3710
12369SOL     OW38239   3.790   3.520   5.910  0.0696 -0.1855  0.5009
12369SOL    HW138240   3.782   3.587   5.842 -0.7967  0.0209  0.7856
12369SOL    HW238241   3.884   3.507   5.919  0.2710 -2.4161 -2.8670
12370SOL     OW38242   1.926   5.628   2.928 -0.1627  0.2156 -0.1238
12370SOL    HW138243   1.931   5.541   2.889 -1.5966  0.3602 -0.6518
12370SOL    HW238244   1.901   5.612   3.019  2.6668 -0.0835  0.7246
12371SOL     OW38245   1.487   5.605   6.052 -0.6829 -0.0571 -0.2493
12371SOL    HW138246   1.405   5.556   6.045 -1.0987  0.8541 -4.3684
12371SOL    HW238247   1.552   5.549   6.009  0.8956 -0.5794  2.5775
12372SOL     OW38248   5.044   0.954   7.592  0.0690 -0.2686  0.0390
12372SOL    HW138249   5.080   0.931   7.506  0.7366 -1.0345  0.5007
12372SOL    HW238250   4.964   0.901   7.599  0.4966 -0.8965  0.2498
12373SOL     OW38251   7.557   2.885   0.117  0.2602 -0.3267 -0.0023
12373SOL    HW138252   7.487   2.887   0.051  1.3573  0.1971 -1.1934
12373SOL    HW238253   7.561   2.794   0.146  2.3161 -1.5555 -3.5444
12374SOL     OW38254   4.590   8.387   1.167 -0.1856  0.1516 -0.3372
12374SOL    HW138255   4.581   8.297   1.133 -1.5940 -0.2814  1.0793
12374SOL    HW238256   4.568   8.380   1.259 -0.2232  1.9685 -0.1783
12375SOL     OW38257   0.320   3.365   8.872 -0.4032 -0.0555 -0.3778
12375SOL    HW138258   0.353   3.406   8.952 -1.7157 -1.1745  0.7806
12375SOL    HW238259   0.299   3.438   8.814  1.2575  0.7497 -0.0068
12376SOL     OW38260   6.307   3.682   4.001  0.4841  0.0227 -0.2410
12376SOL    HW138261   6.364   3.701   3.927  1.1744  1.0002  0.5037
12376SOL    HW238262   6.277   3.768   4.031 -0.3788 -0.4027  0.1548
12377SOL     OW38263   7.569   8.452   4.889  0.4803 -0.3332  0.3241
12377SOL    HW138264   7.538   8.493   4.809 -2.5166  0.6612  1.8352
12377SOL    HW238265   7.613   8.522   4.937 -1.5690  0.2924  1.3794
12378SOL     OW38266   8.093   7.583   5.460 -0.4335  0.4476  0.2084
12378SOL    HW138267   8.063   7.587   5.551 -1.8250 -0.9535 -0.1376
12378SOL    HW238268   8.130   7.670   5.443 -1.0347  1.0567  1.8149
12379SOL     OW38269   1.406   7.216   6.264  0.0601  0.2723  0.3070
12379SOL    HW138270   1.360   7.278   6.208 -1.1776  0.1622  1.1557
12379SOL    HW238271   1.491   7.203   6.221 -0.1904  1.4827 -0.6088
12380SOL     OW38272   1.699   4.854   4.405 -0.2267 -0.0511 -0.1333
12380SOL    HW138273   1.793   4.846   4.421 -0.4319 -2.5158  0.2974
12380SOL    HW238274   1.660   4.863   4.492 -0.4026  0.9264 -0.3081
12381SOL     OW38275   5.952   1.141   5.857  0.1222 -0.0347  0.2061
12381SOL    HW138276   5.893   1.216   5.852  0.6914  0.4956  1.2081
12381SOL    HW238277   5.908   1.079   5.915  0.6791  0.5123  1.2475
12382SOL     OW38278   2.178   8.154   7.127  0.1242  0.1362 -0.1623
12382SOL    HW138279   2.181   8.249   7.140  0.5426  0.1715 -0.5005
12382SOL    HW238280   2.222   8.117   7.203 -0.0939  0.2079  0.0008
12383SOL     OW38281   6.650   6.713   8.205  0.3886 -0.4380  0.4970
12383SOL    HW138282   6.585   6.648   8.178  0.8109 -0.0632 -1.5696
12383SOL    HW238283   6.701   6.731   8.126  2.4928 -0.1035  1.8450
12384SOL     OW38284   3.789   7.368   5.670 -0.2390  0.5523 -0.2733
12384SOL    HW138285   3.883   7.367   5.650 -0.2756  1.7420 -0.6002
12384SOL    HW238286   3.784   7.403   5.759 -0.3089 -0.7980  0.2681
12385SOL     OW38287   5.348   0.785   3.598  0.4139  0.0543 -0.3065
12385SOL    HW138288   5.316   0.721   3.662  0.7982  0.3767  0.2132
12385SOL    HW238289   5.339   0.869   3.643  0.3735  0.3173 -0.8050
12386SOL     OW38290   0.956   4.818   2.526 -0.0618 -0.3323 -0.4165
12386SOL    HW138291   0.978   4.738   2.477  0.4881 -0.0015 -0.7269
12386SOL    HW238292   0.969   4.889   2.463 -0.6935 -0.0063 -0.1868
12387SOL     OW38293   6.798   1.020   1.308  0.2392 -0.5718 -0.4999
12387SOL    HW138294   6.813   1.070   1.389  2.6092 -0.5313 -0.9118
12387SOL    HW238295   6.703   1.006   1.307 -0.1369  1.2605  1.1978
12388SOL     OW38296   4.097   2.251   5.752  0.1401 -0.4285  0.2647
12388SOL    HW138297   4.081   2.285   5.840  2.1240 -2.8714  1.6763
12388SOL    HW238298   4.182   2.287   5.727  0.0059 -0.4718 -0.2696
12389SOL     OW38299   7.293   5.644   6.777  0.0994  0.3918 -0.0649
12389SOL    HW138300   7.366   5.606   6.728 -1.1693 -1.3856 -0.6874
12389SOL    HW238301   7.244   5.568   6.810 -1.3786  1.5307  0.4654
12390SOL     OW38302   8.587   4.676   4.537  0.7289  0.1825 -0.5382
12390SOL    HW138303   8.584   4.771   4.548 -0.0470  0.3689 -2.0459
12390SOL    HW238304   8.667   4.661   4.486  1.3985 -0.1051  0.5563
12391SOL     OW38305   8.146   1.377   6.792 -0.1289 -0.3100 -0.4704
12391SOL    HW138306   8.177   1.433   6.863  0.6667 -0.8006 -0.4098
12391SOL    HW238307   8.185   1.415   6.713  0.3433 -0.7210 -0.4388
12392SOL     OW38308   8.456   5.462   2.868 -0.0772 -0.0503 -0.3075
12392SOL    HW138309   8.452   5.526   2.797  1.1291 -0.6420 -0.9381
12392SOL    HW238310   8.448   5.515   2.948 -1.6477  0.6060 -0.8494
12393SOL     OW38311   2.064   3.702   1.091  0.0165 -0.2941  0.4823
12393SOL    HW138312   2.126   3.775   1.102  1.2523 -0.5002 -3.6015
12393SOL    HW238313   2.110   3.627   1.128  1.0302  0.0631 -0.0162
12394SOL     OW38314   1.059   7.694   1.167  0.3093  0.0202 -0.1531
12394SOL    HW138315   0.978   7.703   1.117  0.1312  0.5286  0.2200
12394SOL    HW238316   1.117   7.644   1.109 -0.7927 -1.7615  0.2028
12395SOL     OW38317   5.393   1.476   2.222  0.1310 -0.3658  0.1184
12395SOL    HW138318   5.329   1.539   2.255  1.6406  1.7989 -0.7833
12395SOL    HW238319   5.458   1.469   2.292  1.7663  1.9096 -1.0110
12396SOL     OW38320   3.838   4.162   7.630  0.1288  0.2143 -0.3131
12396SOL    HW138321   3.927   4.188   7.656  0.2875 -1.1187  0.5448
12396SOL    HW238322   3.781   4.203   7.696  0.1948  0.2151 -0.2561
12397SOL     OW38323   6.946   8.403   8.741 -1.1029  0.2990  0.2956
12397SOL    HW138324   6.929   8.477   8.682  1.9369  0.1932 -0.8882
12397SOL    HW238325   7.008   8.438   8.804  0.3779 -1.2006 -0.2821
12398SOL     OW38326   3.082   6.425   2.250  0.3673  0.0030  0.3806
12398SOL    HW138327   3.032   6.370   2.190  1.3139 -0.9153  0.4172
12398SOL    HW238328   3.096   6.371   2.328 -0.5304  1.0497  1.3155
12399SOL     OW38329   2.945   0.619   9.080 -0.4125 -0.5228  0.0040
12399SOL    HW138330   2.916   0.682   9.014 -0.9411 -1.0820 -0.3047
12399SOL    HW238331   3.037   0.642   9.096 -0.6804  0.5222  0.1317
12400SOL     OW38332   7.138   3.402   8.241  0.4419  0.1319 -0.0936
12400SOL    HW138333   7.080   3.339   8.198 -0.7391  2.1988 -1.7062
12400SOL    HW238334   7.199   3.429   8.173  1.0975  0.5643  0.6455
12401SOL     OW38335   8.924   5.291   1.079  0.8203  0.1309  0.4173
12401SOL    HW138336   8.928   5.321   1.170  1.3984 -2.8126  1.4771
12401SOL    HW238337   8.861   5.219   1.081  1.1999 -0.2945 -1.4296
12402SOL     OW38338   6.684   3.245   3.822 -0.0574  0.7708  0.0741
12402SOL    HW138339   6.603   3.194   3.823 -1.4728  2.7945  2.6797
12402SOL    HW238340   6.754   3.180   3.819 -1.7313 -1.0803 -1.6686
12403SOL     OW38341   4.398   6.799   1.787 -0.1850 -0.8265 -0.4431
12403SOL    HW138342   4.388   6.704   1.794 -0.2943 -0.7629  0.2837
12403SOL    HW238343   4.442   6.825   1.868 -0.8733 -0.1581 -0.2730
12404SOL     OW38344   8.067   2.538   7.917 -0.2829  0.3558 -0.1311
12404SOL    HW138345   8.012   2.613   7.895  0.7250  2.3021  3.3035
12404SOL    HW238346   8.155   2.564   7.890  0.0370  0.3664  0.8802
12405SOL     OW38347   0.939   5.989   0.641 -0.4046  0.1430 -0.1520
12405SOL    HW138348   0.866   5.950   0.690 -0.8547  0.2081 -0.7608
12405SOL    HW238349   1.005   6.008   0.708 -0.4113 -1.1119  0.2363
12406SOL     OW38350   6.780   1.869   7.239 -0.4358  0.6796  0.1745
12406SOL    HW138351   6.800   1.845   7.330 -1.1553  1.1587  0.4674
12406SOL    HW238352   6.849   1.826   7.188  0.8770  1.6159  1.0664
12407SOL     OW38353   2.392   2.908   8.644  0.5292 -0.0961  0.1019
12407SOL    HW138354   2.359   2.919   8.555 -2.2100  1.0579  1.1340
12407SOL    HW238355   2.449   2.831   8.639 -1.0769 -1.2759 -2.2899
12408SOL     OW38356   7.691   4.387   3.859 -0.4402  0.5819  0.8396
12408SOL    HW138357   7.670   4.469   3.814  2.5905  1.6080  1.0665
12408SOL    HW238358   7.754   4.344   3.802  0.6082  0.1094  2.2894
12409SOL     OW38359   4.137   1.511   4.851  0.0093 -0.0486 -0.3139
12409SOL    HW138360   4.205   1.528   4.917 -0.9491 -0.8169  0.9082
12409SOL    HW238361   4.057   1.501   4.901 -0.8926  0.0824 -1.6790
12410SOL     OW38362   6.740   8.215   4.988  0.0303  0.0076  0.1855
12410SOL    HW138363   6.684   8.163   4.930  1.3973  0.3411 -1.5260
12410SOL    HW238364   6.679   8.275   5.032 -1.1166 -0.5391 -0.6072
12411SOL     OW38365   5.412   7.269   8.453  0.3972 -0.2361 -0.0689
12411SOL    HW138366   5.334   7.276   8.507 -0.5492  2.6264 -1.5996
12411SOL    HW238367   5.464   7.199   8.494 -1.5494 -0.1915  2.7315
12412SOL     OW38368   8.324   8.266   2.171 -0.0501  0.2768  0.7968
12412SOL    HW138369   8.381   8.204   2.126 -0.0427  2.3718 -2.4291
12412SOL    HW238370   8.383   8.317   2.226  0.3324 -0.7731  1.3969
12413SOL     OW38371   1.950   6.954   2.522 -0.2239  0.3295  0.2021
12413SOL    HW138372   2.005   6.898   2.466 -0.2699  0.2856  0.2010
12413SOL    HW238373   1.860   6.932   2.497 -0.2804 -0.5038  1.0799
12414SOL     OW38374   6.779   6.993   1.512  0.6716  1.0017  0.1591
12414SOL    HW138375   6.735   6.911   1.530  1.4677  0.8613  1.6517
12414SOL    HW238376   6.725   7.060   1.555  1.6110  0.8724  1.6413
12415SOL     OW38377   4.069   6.327   6.057 -0.3083  0.3239  0.1967
12415SOL    HW138378   4.130   6.259   6.027  0.2645  0.9012  0.0098
12415SOL    HW238379   4.122   6.382   6.115 -0.6609  0.8128  0.0597
12416SOL     OW38380   8.443   3.508   7.610  0.1527 -0.3730  0.1892
12416SOL    HW138381   8.368   3.552   7.650  0.0494 -2.2642  2.3082
12416SOL    HW238382   8.519   3.548   7.652  0.2223 -0.0189 -0.2712
12417SOL     OW38383   3.186   2.509   9.076  0.3740 -0.6130  0.2745
12417SOL    HW138384   3.233   2.449   9.134  0.7075 -1.5077 -0.8766
12417SOL    HW238385   3.245   2.584   9.067  0.5503 -0.6974  0.6865
12418SOL     OW38386   5.887   5.654   8.833 -0.2153 -0.3989  0.2081
12418SOL    HW138387   5.966   5.600   8.833  0.1371  0.1127  0.4782
12418SOL    HW238388   5.860   5.656   8.925 -0.3818 -0.3309  0.1589
12419SOL     OW38389   0.832   7.278   5.596 -0.1133 -0.3229 -0.8384
12419SOL    HW138390   0.911   7.239   5.559  0.7413  0.3673  0.2300
12419SOL    HW238391   0.863   7.345   5.656 -1.4659 -0.8175  0.4900
12420SOL     OW38392   2.024   0.800   5.685 -0.3654  0.8873  0.4737
12420SOL    HW138393   2.002   0.757   5.603  1.3324  1.0477 -0.1094
12420SOL    HW238394   2.021   0.894   5.664  1.7554  0.9160  0.0576
12421SOL     OW38395   1.449   5.333   3.432  0.0320 -0.4651  0.7048
12421SOL    HW138396   1.426   5.264   3.495 -0.3434 -0.1785  0.8815
12421SOL    HW238397   1.514   5.386   3.478 -0.6247  0.0482  1.0463
12422SOL     OW38398   8.264   4.724   3.707  0.0506 -0.2602  0.3974
12422SOL    HW138399   8.229   4.809   3.679  1.5381  0.6697  1.2481
12422SOL    HW238400   8.312   4.692   3.631 -0.5709 -0.3784  0.0489
12423SOL     OW38401   7.255   8.237   2.204 -0.1606  0.3913  0.1452
12423SOL    HW138402   7.296   8.261   2.121  0.2810 -0.0451  0.2344
12423SOL    HW238403   7.171   8.283   2.204  0.3122  1.2747 -0.0504
12424SOL     OW38404   2.495   4.226   4.006 -0.0569  0.2152 -0.4238
12424SOL    HW138405   2.422   4.202   4.064 -1.1750  2.3269 -0.8359
12424SOL    HW238406   2.571   4.227   4.063 -0.6252 -0.5196  0.3781
12425SOL     OW38407   7.927   1.534   6.029  0.0226 -0.5380 -0.0142
12425SOL    HW138408   7.981   1.519   6.107  0.2455  0.5155  0.0481
12425SOL    HW238409   7.928   1.628   6.017 -3.7295 -0.1060  1.4168
12426SOL     OW38410   9.047   0.004   8.039 -0.0126  0.0776  1.0138
12426SOL    HW138411   9.071  -0.078   7.996 -0.4124  1.3807 -1.9783
12426SOL    HW238412   8.951   0.008   8.031 -0.1299  0.3093  2.2563
12427SOL     OW38413   2.822   2.258   3.559  0.0148  0.3963  0.1325
12427SOL    HW138414   2.810   2.346   3.595 -2.0461 -0.5758  2.0675
12427SOL    HW238415   2.796   2.265   3.468  1.1091  2.0266 -0.0847
12428SOL     OW38416   6.276   6.605   4.489 -0.0952 -0.0683 -0.5853
12428SOL    HW138417   6.205   6.669   4.488  0.1563  0.2390  0.5740
12428SOL    HW238418   6.250   6.541   4.554 -1.9987 -3.1416 -4.0041
12429SOL     OW38419   2.013   6.983   5.423 -0.2517  0.0221  0.7637
12429SOL    HW138420   1.979   6.911   5.370 -0.3850 -0.8955  2.0611
12429SOL    HW238421   2.014   7.058   5.363  0.4780 -1.1741 -0.8122
12430SOL     OW38422   1.358   3.248   8.294 -0.2728  0.2310 -0.1003
12430SOL    HW138423   1.265   3.272   8.296 -0.5728 -0.6681 -1.7373
12430SOL    HW238424   1.404   3.332   8.304 -1.2684  0.8524 -0.4995
12431SOL     OW38425   8.923   7.751   1.779 -0.1801 -0.0837 -0.5128
12431SOL    HW138426   9.005   7.727   1.822 -0.5941  0.7696  0.8128
12431SOL    HW238427   8.908   7.680   1.716  1.0212 -0.7982 -0.0422
12432SOL     OW38428   6.188   5.053   6.880 -0.1052  0.5723 -0.3789
12432SOL    HW138429   6.279   5.082   6.892  0.0096  0.2532 -0.4720
12432SOL    HW238430   6.191   4.995   6.804  0.0544 -1.3378  1.0128
12433SOL     OW38431   3.351   0.082   1.502 -0.1657  0.2364 -0.5279
12433SOL    HW138432   3.266   0.120   1.480 -1.0112 -1.5703 -0.5341
12433SOL    HW238433   3.330   0.003   1.552  1.5209 -0.1391 -0.3390
12434SOL     OW38434   2.157   7.143   8.688 -0.2344  0.0447  0.3734
12434SOL    HW138435   2.137   7.118   8.598  0.0819 -0.3693  0.4161
12434SOL    HW238436   2.250   7.166   8.686  0.4894 -2.4914  1.1150
12435SOL     OW38437   3.847   2.352   8.734  0.3021 -0.6382 -0.1324
12435SOL    HW138438   3.816   2.284   8.794  0.0335 -0.4847 -0.0938
12435SOL    HW238439   3.884   2.304   8.660 -0.8280 -0.8408 -0.5951
12436SOL     OW38440   6.774   1.792   8.279  0.0774  0.1238  0.4540
12436SOL    HW138441   6.845   1.729   8.268 -0.4503 -0.4720  0.3830
12436SOL    HW238442   6.763   1.832   8.193 -0.3511 -0.5282  0.1969
12437SOL     OW38443   8.280   7.759   4.674  0.1046  0.0229 -0.2332
12437SOL    HW138444   8.190   7.782   4.651 -0.5456 -1.4789  0.6837
12437SOL    HW238445   8.334   7.819   4.621 -1.4066  0.7985 -0.9651
12438SOL     OW38446   7.876   2.400   6.972 -0.9242  0.9987  0.8407
12438SOL    HW138447   7.933   2.474   6.988  0.0083  0.5388 -0.2119
12438SOL    HW238448   7.800   2.437   6.927  0.7445  1.0557 -2.2177
12439SOL     OW38449   3.075   3.442   8.712 -0.4970 -0.1105  0.5636
12439SOL    HW138450   3.025   3.408   8.786  1.0947 -0.5679  1.4600
12439SOL    HW238451   3.085   3.367   8.653 -2.1603  0.3636 -0.3984
12440SOL     OW38452   8.345   2.398   2.971  0.3162  0.0465 -0.3987
12440SOL    HW138453   8.440   2.409   2.964  0.4505  0.8124  1.7579
12440SOL    HW238454   8.332   2.303   2.974  1.2641 -0.0803  1.2903
12441SOL     OW38455   0.729   4.520   4.576  0.5194  0.1659  0.3403
12441SOL    HW138456   0.697   4.446   4.525 -0.6874  0.5856  0.4555
12441SOL    HW238457   0.823   4.506   4.581  0.6976  0.1018 -1.9697
12442SOL     OW38458   5.586   6.786   8.428 -0.2113 -0.1369 -0.1782
12442SOL    HW138459   5.641   6.712   8.456 -0.7693 -0.9444 -1.1695
12442SOL    HW238460   5.497   6.751   8.427 -0.9156  1.3455  2.0678
12443SOL     OW38461   4.315   1.304   5.026  0.5160  0.6503 -0.5582
12443SOL    HW138462   4.382   1.334   4.965 -0.1827  0.8815 -1.2401
12443SOL    HW238463   4.340   1.341   5.110  0.2872  2.2594 -1.1602
12444SOL     OW38464   0.108   0.568   2.832  0.0117  0.1696  0.3194
12444SOL    HW138465   0.042   0.633   2.807 -3.3143 -2.8402  0.5414
12444SOL    HW238466   0.156   0.551   2.751 -0.8105  1.0069 -0.3752
12445SOL     OW38467   5.035   4.916   5.309 -0.4677  0.3149 -0.0385
12445SOL    HW138468   5.012   4.969   5.385  0.4592  1.8216 -0.7708
12445SOL    HW238469   5.130   4.911   5.311 -0.4262  0.4456 -1.1271
12446SOL     OW38470   7.310   4.202   7.196  0.0108 -0.2021 -0.6122
12446SOL    HW138471   7.366   4.128   7.221 -1.0046 -0.5942  0.5754
12446SOL    HW238472   7.357   4.243   7.123  0.1949 -2.5294 -1.9395
12447SOL     OW38473   6.062   7.671   8.298  0.0023  0.3480  0.5075
12447SOL    HW138474   6.087   7.726   8.224 -2.0500  1.3389  0.4630
12447SOL    HW238475   6.070   7.729   8.374 -0.6663  0.2443  0.6655
12448SOL     OW38476   2.345   3.864   6.592  0.0853 -0.0085  0.2988
12448SOL    HW138477   2.258   3.892   6.620  1.1370  2.4364  1.3525
12448SOL    HW238478   2.405   3.908   6.652  2.0768 -1.4184 -0.5764
12449SOL     OW38479   1.175   6.576   4.201  0.0913 -0.1554  0.0580
12449SOL    HW138480   1.261   6.534   4.205 -0.6677 -1.6887  1.8190
12449SOL    HW238481   1.192   6.666   4.227  0.8464 -1.1402  3.5116
12450SOL     OW38482   8.926   5.756   5.530  0.4089 -0.4077 -0.3467
12450SOL    HW138483   8.942   5.665   5.557  1.2448 -0.1625  0.0124
12450SOL    HW238484   8.843   5.752   5.482  1.0617 -1.5883 -1.4561
12451SOL     OW38485   0.110   8.751   3.336 -0.5442 -0.1090  0.3177
12451SOL    HW138486   0.022   8.728   3.306  0.2428 -1.2128 -1.3202
12451SOL    HW238487   0.139   8.821   3.278 -0.6502  0.8658  1.4129
12452SOL     OW38488   4.696   3.706   3.671  0.0172  0.2654 -0.1767
12452SOL    HW138489   4.763   3.640   3.654 -0.2486 -0.0249 -0.0985
12452SOL    HW238490   4.626   3.659   3.715 -0.8557  0.2653 -1.5144
12453SOL     OW38491   3.599   7.219   7.354 -0.1176  0.1098  0.7808
12453SOL    HW138492   3.643   7.264   7.282 -0.7509  0.9781  0.9194
12453SOL    HW238493   3.516   7.265   7.364 -0.3826 -0.5101  1.5439
12454SOL     OW38494   2.899   6.017   5.952  0.4652  0.0134 -0.2787
12454SOL    HW138495   2.828   5.955   5.937  0.9237 -0.5455 -0.1946
12454SOL    HW238496   2.909   6.064   5.869 -1.1924  1.3720  0.2522
12455SOL     OW38497   8.067   5.738   7.888  0.0951 -0.6397 -0.7919
12455SOL    HW138498   7.985   5.782   7.907 -0.0913 -1.0610 -0.6143
12455SOL    HW238499   8.080   5.677   7.960  1.1618  0.2467 -0.2030
12456SOL     OW38500   4.058   7.507   3.750 -0.0490  0.3504  0.1080
12456SOL    HW138501   4.145   7.465   3.753  0.3922  1.2199 -0.3512
12456SOL    HW238502   4.076   7.600   3.745 -1.0107  0.5073 -0.6953
12457SOL     OW38503   4.821   0.666   1.982 -0.2930  0.0169  0.4528
12457SOL    HW138504   4.804   0.695   2.071  0.0964  1.0997  0.1860
12457SOL    HW238505   4.904   0.707   1.958 -0.7860  0.3908 -0.6849
12458SOL     OW38506   0.064   2.393   4.406 -0.7473  0.6739  0.1807
12458SOL    HW138507   0.128   2.406   4.476  0.4428  1.5501 -1.0114
12458SOL    HW238508   0.084   2.463   4.343  0.3428 -1.9077 -2.5621
12459SOL     OW38509   2.660   1.349   8.849  0.0664  0.0035 -0.1842
12459SOL    HW138510   2.713   1.385   8.921 -0.2490  1.3159 -0.5876
12459SOL    HW238511   2.631   1.425   8.800  0.5886 -0.8799 -1.9545
12460SOL     OW38512   3.515   1.106   6.250  0.1458  0.4461 -0.5870
12460SOL    HW138513   3.555   1.145   6.328 -1.0180 -0.2286  0.3852
12460SOL    HW238514   3.490   1.180   6.196  2.6367  0.9123 -1.2432
12461SOL     OW38515   1.378   6.911   6.096  0.0683 -0.3719  0.2974
12461SOL    HW138516   1.425   6.960   6.028  2.5729 -1.8619  0.8124
12461SOL    HW238517   1.358   6.827   6.056  0.5915 -0.8616  1.0262
12462SOL     OW38518   0.874   8.007   6.417  0.3108  0.4706 -0.2869
12462SOL    HW138519   0.908   8.042   6.335 -0.5628  1.2263 -0.3521
12462SOL    HW238520   0.784   8.039   6.421  0.4848  0.8622  1.2056
12463SOL     OW38521   2.906   2.523   5.724 -0.4922 -0.5790  0.4995
12463SOL    HW138522   2.964   2.577   5.670 -0.5461 -0.6414  0.3774
12463SOL    HW238523   2.866   2.462   5.661  0.1139 -1.2372  0.7428
12464SOL     OW38524   5.034   1.239   6.294  0.7557  0.0965  0.4735
12464SOL    HW138525   5.123   1.265   6.316  0.6530  0.7255  0.1562
12464SOL    HW238526   5.045   1.162   6.238  1.1467  0.9620 -0.6565
12465SOL     OW38527   8.438   1.882   3.326  0.3003  0.3730  0.2502
12465SOL    HW138528   8.475   1.804   3.366 -0.7152  0.5666  1.6229
12465SOL    HW238529   8.356   1.852   3.286  0.0612  0.6724  0.5103
12466SOL     OW38530   1.978   6.050   7.266  0.6980 -0.1457 -0.8138
12466SOL    HW138531   1.914   6.067   7.334  0.3535 -1.3907 -0.8026
12466SOL    HW238532   1.951   6.106   7.193 -1.1447 -1.5067 -1.2423
12467SOL     OW38533   1.696   8.387   8.707 -0.1235  0.7483  0.0508
12467SOL    HW138534   1.660   8.304   8.675 -0.0390  0.9785 -0.6550
12467SOL    HW238535   1.757   8.361   8.776  0.5123  0.1594 -0.7136
12468SOL     OW38536   4.143   3.079   2.294 -0.1960  0.3756 -0.7071
12468SOL    HW138537   4.222   3.025   2.297 -0.0905  0.5601  0.1548
12468SOL    HW238538   4.081   3.028   2.242 -0.0683 -0.5317  0.0147
12469SOL     OW38539   8.298   6.004   0.802 -0.0852  0.3342  0.5373
12469SOL    HW138540   8.295   6.092   0.764  0.4035  0.4283  0.7044
12469SOL    HW238541   8.347   5.952   0.738  2.9678  1.0736  2.1068
12470SOL     OW38542   5.628   7.891   2.255  0.1867  0.1714 -0.3847
12470SOL    HW138543   5.603   7.960   2.194  2.5271  1.6573  0.1945
12470SOL    HW238544   5.677   7.828   2.202  0.7712  0.6027 -0.3659
12471SOL     OW38545   1.952   2.084   5.308  0.3265  0.5246 -0.1345
12471SOL    HW138546   1.947   2.153   5.374  1.4591 -0.2826  0.8300
12471SOL    HW238547   2.029   2.105   5.257  1.3818 -0.6314  0.9177
12472SOL     OW38548   1.709   6.612   7.990  0.2730 -0.1799  0.0579
12472SOL    HW138549   1.758   6.530   7.990  1.3399  0.3712 -2.0904
12472SOL    HW238550   1.751   6.665   7.922 -2.9128  0.5793 -1.5377
12473SOL     OW38551   7.365   4.149   3.653 -0.3314  0.2866  0.2553
12473SOL    HW138552   7.325   4.112   3.732  1.1256  0.2151  0.9869
12473SOL    HW238553   7.455   4.117   3.654 -0.2850  0.2661 -1.4656
12474SOL     OW38554   0.115   2.817   7.259 -0.0216  0.1370  0.4419
12474SOL    HW138555   0.061   2.787   7.185  1.5782 -1.6677 -0.0798
12474SOL    HW238556   0.169   2.886   7.222 -0.3134  0.3187  0.3492
12475SOL     OW38557   4.819   2.857   5.819 -0.4284 -0.3782 -0.0882
12475SOL    HW138558   4.886   2.926   5.825 -0.4727 -0.4514  1.9605
12475SOL    HW238559   4.807   2.844   5.725  2.7954 -0.7206 -0.5930
12476SOL     OW38560   7.960   5.718   8.256 -0.4102  0.3665  0.3514
12476SOL    HW138561   8.046   5.738   8.218 -1.3858 -0.3950 -2.4903
12476SOL    HW238562   7.972   5.732   8.350  3.3806 -1.7102  0.3702
12477SOL     OW38563   1.553   2.092   8.340 -0.7154 -0.3110  0.7075
12477SOL    HW138564   1.625   2.100   8.277 -0.4384 -2.6498  0.6424
12477SOL    HW238565   1.578   2.150   8.411  0.7893 -0.3451  0.2566
12478SOL     OW38566   7.821   4.102   0.462 -0.0924 -0.7359 -0.3890
12478SOL    HW138567   7.833   4.043   0.536 -1.9903 -2.5573 -1.4225
12478SOL    HW238568   7.896   4.084   0.404  0.8558 -0.0139  0.5601
12479SOL     OW38569   1.070   1.990   3.630  0.0486 -0.0759  0.1849
12479SOL    HW138570   1.048   2.084   3.637 -0.1589  0.1208 -2.1924
12479SOL    HW238571   1.161   1.989   3.600  0.3307 -0.6760  1.0457
12480SOL     OW38572   7.930   0.100   0.448 -0.1301  0.0504  0.2929
12480SOL    HW138573   7.889   0.186   0.442  0.0887  0.2695  1.5852
12480SOL    HW238574   7.859   0.042   0.476 -0.2505 -0.1654 -0.4631
12481SOL     OW38575   6.569   7.256   1.012  0.2000 -0.1796 -0.1418
12481SOL    HW138576   6.570   7.327   1.076  0.5819  0.6674 -1.0568
12481SOL    HW238577   6.529   7.182   1.058 -1.2424  0.9510  0.4927
12482SOL     OW38578   2.388   2.214   1.339  0.0123  0.2911 -0.4385
12482SOL    HW138579   2.467   2.179   1.380 -0.5265 -0.9246 -0.4116
12482SOL    HW238580   2.412   2.304   1.316  1.8804 -0.4613 -1.7055
12483SOL     OW38581   8.504   4.667   3.217 -0.0401  0.1286  0.2008
12483SOL    HW138582   8.504   4.592   3.157  0.0084 -0.1193  0.5074
12483SOL    HW238583   8.546   4.737   3.168 -0.8599  0.2154 -0.4124
12484SOL     OW38584   4.695   1.289   4.952  0.1771 -0.1231  0.1901
12484SOL    HW138585   4.688   1.375   4.991 -1.4596  0.2749 -0.8391
12484SOL    HW238586   4.772   1.294   4.895  0.1841  0.6261  0.2556
12485SOL     OW38587   4.239   0.463   8.710  0.0266  0.8123  0.3685
12485SOL    HW138588   4.280   0.451   8.795 -0.6753 -0.6670  0.5181
12485SOL    HW238589   4.248   0.379   8.666 -3.5815  0.0721  0.7701
12486SOL     OW38590   2.214   3.960   8.153 -0.1188  0.2015  0.0965
12486SOL    HW138591   2.197   3.912   8.073 -1.3066  1.4324 -0.4297
12486SOL    HW238592   2.309   3.962   8.160 -0.0191 -0.6812 -0.7980
12487SOL     OW38593   0.680   8.102   6.651 -0.1297  0.5607 -0.1532
12487SOL    HW138594   0.705   8.182   6.606  4.1325 -0.5294 -0.1226
12487SOL    HW238595   0.641   8.131   6.733 -2.1756  2.4949 -1.6778
12488SOL     OW38596   2.870   7.734   3.692 -0.0756  0.1418 -0.3359
12488SOL    HW138597   2.923   7.812   3.704  0.7032 -0.4739  0.4047
12488SOL    HW238598   2.874   7.689   3.777 -1.0154 -0.3829 -0.5610
12489SOL     OW38599   7.114   2.427   3.776  0.2818 -0.2714 -0.7676
12489SOL    HW138600   7.205   2.428   3.807 -0.2714 -0.1489  0.9668
12489SOL    HW238601   7.071   2.496   3.826 -1.4499 -2.3344  0.8014
12490SOL     OW38602   0.387   8.610   2.208 -0.3855 -0.1880 -0.2037
12490SOL    HW138603   0.405   8.539   2.269  1.0708 -0.2426 -0.6660
12490SOL    HW238604   0.425   8.687   2.248  0.0167 -0.1025 -0.7438
12491SOL     OW38605   2.012   8.991   8.550  0.0889  0.0181 -0.0369
12491SOL    HW138606   1.921   8.987   8.578  0.8220 -1.5114  2.4790
12491SOL    HW238607   2.036   8.901   8.529  1.2599  0.2497  0.1960
12492SOL     OW38608   7.911   8.989   2.822  0.2630  0.1013  0.0434
12492SOL    HW138609   7.855   9.065   2.837  0.6408  0.7825 -1.8181
12492SOL    HW238610   7.905   8.972   2.728  2.2132 -0.5602 -0.0016
12493SOL     OW38611   1.164   6.683   0.035 -0.0730 -0.6752 -0.2825
12493SOL    HW138612   1.150   6.685   0.130 -2.3301 -0.4199 -0.5636
12493SOL    HW238613   1.233   6.618   0.022  0.7443 -0.2432  1.5668
12494SOL     OW38614   3.875   1.588   5.545 -0.3866 -0.7171  0.2555
12494SOL    HW138615   3.945   1.618   5.604  0.8805 -0.5836 -1.2194
12494SOL    HW238616   3.910   1.607   5.457 -1.8607 -1.6281 -0.5528
12495SOL     OW38617   7.684   5.238   2.912  0.3719  0.6359 -0.2991
12495SOL    HW138618   7.668   5.163   2.969  0.7018 -0.9913 -2.2056
12495SOL    HW238619   7.764   5.277   2.946 -0.1544  0.5325  1.1129
12496SOL     OW38620   3.768   1.472   5.891  0.0406  0.2847  0.2556
12496SOL    HW138621   3.719   1.505   5.967 -0.7778 -0.3712  0.0276
12496SOL    HW238622   3.859   1.495   5.910 -0.1824  0.3673  1.3205
12497SOL     OW38623   5.363   8.777   7.408  0.0541 -0.4478  0.1223
12497SOL    HW138624   5.280   8.782   7.361  0.3405 -1.1190 -0.4758
12497SOL    HW238625   5.372   8.685   7.431  0.9725 -0.5043 -0.4453
12498SOL     OW38626   7.650   2.668   7.666 -0.4572 -0.2317 -0.0184
12498SOL    HW138627   7.671   2.756   7.696 -1.2616 -0.2764  0.6896
12498SOL    HW238628   7.569   2.678   7.617 -0.5057 -0.5727 -0.0070
12499SOL     OW38629   0.233   4.394   0.409 -0.0183  0.3085  0.1816
12499SOL    HW138630   0.266   4.367   0.323 -0.0531  1.4325 -0.2144
12499SOL    HW238631   0.174   4.324   0.436  2.0665 -1.3912  0.5643
12500SOL     OW38632   1.012   1.224   2.245 -0.2188  0.2053  0.5716
12500SOL    HW138633   1.044   1.261   2.163 -3.1280 -4.1513 -3.0329
12500SOL    HW238634   0.924   1.261   2.255 -0.2756 -0.0852  1.1850
12501SOL     OW38635   4.594   1.456   7.540  0.5326  0.4339 -0.5525
12501SOL    HW138636   4.649   1.521   7.582  2.0679  0.3529 -2.3002
12501SOL    HW238637   4.644   1.375   7.545 -0.9662 -0.4809  0.8081
12502SOL     OW38638   2.833   6.365   0.669  0.2608  0.2918 -0.4339
12502SOL    HW138639   2.739   6.372   0.683  0.7233  1.5458  3.2233
12502SOL    HW238640   2.862   6.454   0.648  0.8875  0.4922  1.1542
12503SOL     OW38641   2.559   6.524   1.570  0.2542 -0.4455  0.4669
12503SOL    HW138642   2.595   6.612   1.576 -2.3137  0.7438 -0.0523
12503SOL    HW238643   2.477   6.528   1.620 -0.8764 -1.9630 -1.1441
12504SOL     OW38644   2.238   4.148   6.020  0.4386 -0.2602  0.1287
12504SOL    HW138645   2.246   4.237   5.988 -0.5293 -0.2751 -0.1790
12504SOL    HW238646   2.282   4.149   6.106 -3.0157  1.5844  2.1053
12505SOL     OW38647   2.803   4.171   7.463  0.7080  0.9174  0.3890
12505SOL    HW138648   2.805   4.215   7.379 -0.1311  2.1373  0.9827
12505SOL    HW238649   2.787   4.079   7.442 -1.1709  1.4578 -0.7200
12506SOL     OW38650   1.627   6.398   0.277  0.3134  0.1245  0.4736
12506SOL    HW138651   1.625   6.453   0.199  0.1081  0.5452  0.7688
12506SOL    HW238652   1.650   6.458   0.348  1.1542 -0.3792  0.6394
12507SOL     OW38653   5.558   1.338   3.871 -0.1258  0.2590  0.1804
12507SOL    HW138654   5.490   1.372   3.929 -1.3889 -0.7133 -0.6620
12507SOL    HW238655   5.555   1.244   3.883  1.4814  0.2199  0.5142
12508SOL     OW38656   1.468   2.436   5.969  0.0613  0.2816  0.4568
12508SOL    HW138657   1.563   2.431   5.964 -0.0450 -0.4629 -1.7669
12508SOL    HW238658   1.441   2.349   5.997 -0.0175 -0.0892 -0.7132
12509SOL     OW38659   3.489   8.163   4.979 -0.1881  0.2978 -0.0495
12509SOL    HW138660   3.545   8.159   5.057  0.8505  1.3388 -0.7193
12509SOL    HW238661   3.532   8.225   4.921 -2.0401  1.1180 -0.6245
12510SOL     OW38662   4.211   8.353   4.852 -0.1438  0.0694 -0.2175
12510SOL    HW138663   4.206   8.399   4.768  1.3419  1.7740  0.5424
12510SOL    HW238664   4.120   8.344   4.881 -0.7590 -1.4030 -2.3869
12511SOL     OW38665   6.559   0.682   8.960  0.3842  0.1168  0.0890
12511SOL    HW138666   6.586   0.742   8.891 -1.0549  0.3750 -0.2697
12511SOL    HW238667   6.615   0.704   9.034  1.8294 -0.0349 -0.9046
12512SOL     OW38668   6.959   4.401   3.263 -0.1405 -0.1948  0.2516
12512SOL    HW138669   7.008   4.320   3.249  1.3426  0.3401  1.9578
12512SOL    HW238670   6.867   4.376   3.253  0.3520 -1.8118 -0.4353
12513SOL     OW38671   2.028   2.561   4.571 -0.0486  0.0551  0.2759
12513SOL    HW138672   1.980   2.528   4.647 -1.8678  0.2577 -0.7203
12513SOL    HW238673   2.028   2.656   4.582  0.0219  0.0639  0.2041
12514SOL     OW38674   6.961   3.060   8.056 -0.0117  0.4132 -0.1897
12514SOL    HW138675   7.013   3.012   8.121 -0.8319  0.3190  0.3997
12514SOL    HW238676   6.879   3.012   8.050 -0.8518  1.7340  0.4107
12515SOL     OW38677   1.679   8.002   6.266 -0.0724 -0.3113  0.4258
12515SOL    HW138678   1.743   7.947   6.221 -0.3739 -0.0341 -0.3647
12515SOL    HW238679   1.666   8.076   6.207 -1.1067 -0.3538  0.5790
12516SOL     OW38680   1.760   8.790   8.134 -0.0984  0.0410 -0.2587
12516SOL    HW138681   1.850   8.771   8.108 -0.3913 -0.7536 -0.7207
12516SOL    HW238682   1.722   8.835   8.058 -0.4415 -0.7104 -0.5353
12517SOL     OW38683   5.136   2.202   0.046 -0.3313  0.3505  0.2472
12517SOL    HW138684   5.202   2.173   0.109 -1.3820 -0.2170  1.0964
12517SOL    HW238685   5.080   2.126   0.032  0.0461  0.3714 -1.6167
12518SOL     OW38686   0.018   5.625   0.124  0.7720  0.1560  0.5854
12518SOL    HW138687   0.029   5.573   0.044 -1.6014  0.9187 -0.3104
12518SOL    HW238688   0.093   5.684   0.124  4.4931 -3.9383  2.4084
12519SOL     OW38689   1.659   3.907   2.175  0.2141 -0.3536 -0.2682
12519SOL    HW138690   1.567   3.903   2.201  0.4839  0.1433  0.8136
12519SOL    HW238691   1.667   3.992   2.131  0.1760 -0.3557 -0.2798
12520SOL     OW38692   0.620   7.436   7.499 -0.4818  0.3319  0.1224
12520SOL    HW138693   0.548   7.406   7.554 -0.9208  0.8917 -0.1349
12520SOL    HW238694   0.698   7.427   7.554 -0.0639 -4.1094 -0.8693
12521SOL     OW38695   3.428   6.366   7.582 -0.5141 -0.0060 -0.2477
12521SOL    HW138696   3.464   6.434   7.639 -0.0298  0.2495 -0.8537
12521SOL    HW238697   3.464   6.284   7.616 -0.2618  0.1380 -0.1672
12522SOL     OW38698   0.349   3.411   8.237  0.3317  0.1907  0.2143
12522SOL    HW138699   0.436   3.448   8.220  1.1121 -1.4929  0.2823
12522SOL    HW238700   0.316   3.459   8.312  1.7476  0.0481  0.9648
12523SOL     OW38701   8.753   3.643   5.839 -0.2904  0.0901 -0.1449
12523SOL    HW138702   8.715   3.562   5.804 -0.8663 -0.0933  0.8604
12523SOL    HW238703   8.776   3.694   5.761 -3.6794  0.7288 -0.9049
12524SOL     OW38704   3.799   7.275   2.623 -0.0676 -0.2837 -0.3412
12524SOL    HW138705   3.739   7.306   2.555 -0.5608  0.3287  0.3662
12524SOL    HW238706   3.787   7.335   2.696  1.5016 -0.0765 -0.2107
12525SOL     OW38707   5.124   5.896   4.675  0.5581 -0.2844  0.5906
12525SOL    HW138708   5.137   5.962   4.607 -1.0616  0.8959  1.3557
12525SOL    HW238709   5.212   5.874   4.705  1.3809 -1.2934 -2.2374
12526SOL     OW38710   2.143   8.181   4.299 -0.4217 -0.2439  0.0559
12526SOL    HW138711   2.217   8.134   4.335 -0.3951  0.6405  1.2120
12526SOL    HW238712   2.108   8.232   4.372 -1.4346  0.2781 -0.7517
12527SOL     OW38713   4.624   3.237   5.506  0.2662  0.3246 -0.5448
12527SOL    HW138714   4.710   3.212   5.471  0.1890  1.0364 -1.2734
12527SOL    HW238715   4.568   3.163   5.485  0.5887  0.0643 -0.5056
12528SOL     OW38716   7.591   7.782   1.009 -0.8108  1.1360 -0.0959
12528SOL    HW138717   7.524   7.834   1.052 -1.2765  0.3595  0.1359
12528SOL    HW238718   7.557   7.768   0.920 -1.5819 -0.3212  0.3956
12529SOL     OW38719   8.430   6.356   5.518  0.4631  0.3035 -0.1004
12529SOL    HW138720   8.384   6.421   5.571 -0.7982 -1.6620  1.3643
12529SOL    HW238721   8.512   6.340   5.565  0.3655  0.2090  0.0409
12530SOL     OW38722   8.723   4.134   2.536 -0.3304  0.0172  0.8068
12530SOL    HW138723   8.807   4.117   2.578  0.4653 -0.1438 -0.7581
12530SOL    HW238724   8.720   4.229   2.527  0.7487 -0.0535 -1.0503
12531SOL     OW38725   7.352   2.096   2.791 -0.5764  0.1947 -0.0234
12531SOL    HW138726   7.309   2.182   2.795 -0.3709  0.3205 -0.4497
12531SOL    HW238727   7.375   2.077   2.882 -1.9173 -0.0756  0.2785
12532SOL     OW38728   2.296   2.927   7.861 -0.3987  0.9398 -0.6078
12532SOL    HW138729   2.390   2.908   7.859 -0.5587 -0.0937  0.6048
12532SOL    HW238730   2.264   2.899   7.775 -0.0699 -1.4134 -0.0069
12533SOL     OW38731   8.113   1.468   3.708  0.2904 -0.7616 -0.1119
12533SOL    HW138732   8.177   1.538   3.705 -1.0295  0.6098  1.7323
12533SOL    HW238733   8.162   1.391   3.737  1.1087  0.2513  1.2727
12534SOL     OW38734   2.756   8.889   7.284  0.7908  0.1184 -0.6844
12534SOL    HW138735   2.704   8.822   7.329 -0.4457 -0.8937 -3.3666
12534SOL    HW238736   2.840   8.847   7.268  2.1481  1.3276  2.5940
12535SOL     OW38737   2.259   0.981   0.001  0.1823 -0.1137  0.0557
12535SOL    HW138738   2.216   1.026   0.073  0.9062 -0.0940  0.4891
12535SOL    HW238739   2.294   1.052  -0.053  0.3460 -0.1400  0.1265
12536SOL     OW38740   8.746   1.899   1.717 -0.0606  0.1677  0.2350
12536SOL    HW138741   8.762   1.969   1.781  0.7744 -0.1462  0.3802
12536SOL    HW238742   8.651   1.897   1.708 -0.1149  1.2313  0.3369
12537SOL     OW38743   4.860   2.363   1.994  0.0246 -0.7808  0.1438
12537SOL    HW138744   4.831   2.323   1.912 -0.9769 -0.8796  0.5354
12537SOL    HW238745   4.810   2.444   2.000 -0.7360 -1.3100  1.2038
12538SOL     OW38746   1.297   6.041   7.547  0.1177 -0.3240  0.7287
12538SOL    HW138747   1.377   6.003   7.584 -0.7181 -1.5052  1.3946
12538SOL    HW238748   1.256   5.969   7.499  0.0997  0.6177 -0.7472
12539SOL     OW38749   1.345   1.792   8.144 -0.0126 -0.4867 -0.6577
12539SOL    HW138750   1.376   1.773   8.232  0.4375  0.0539 -0.6950
12539SOL    HW238751   1.373   1.716   8.092  1.9185  0.2742 -0.8381
12540SOL     OW38752   5.923   1.998   7.456  0.7287 -0.1043 -0.0511
12540SOL    HW138753   5.915   1.904   7.444 -1.2902  0.1493 -1.2701
12540SOL    HW238754   5.858   2.019   7.524  0.9949  0.4399  0.0433
12541SOL     OW38755   3.899   2.715   7.124 -0.2556 -0.2942  0.2981
12541SOL    HW138756   3.916   2.652   7.194 -1.0507 -1.6155 -0.6643
12541SOL    HW238757   3.981   2.764   7.117  0.7252 -1.8115  0.4968
12542SOL     OW38758   6.150   1.855   2.782  0.0573 -0.4090 -1.0060
12542SOL    HW138759   6.148   1.784   2.846  0.4019  0.0502 -0.4785
12542SOL    HW238760   6.100   1.926   2.824  0.4899 -0.0219 -1.1426
12543SOL     OW38761   6.084   7.853   6.448  0.2684  0.3917  0.1634
12543SOL    HW138762   6.078   7.919   6.378 -1.1884 -0.1694 -0.2621
12543SOL    HW238763   6.142   7.786   6.412 -0.4872  0.0981 -0.5174
12544SOL     OW38764   2.503   5.114   2.864 -0.4754  0.2032  0.4065
12544SOL    HW138765   2.414   5.146   2.878 -1.1263 -1.6260  0.6825
12544SOL    HW238766   2.550   5.141   2.943 -0.5040  1.9871 -0.1458
12545SOL     OW38767   1.149   2.839   3.739 -0.5217  0.4989 -0.2806
12545SOL    HW138768   1.193   2.900   3.679  1.6233 -1.5841 -0.9805
12545SOL    HW238769   1.175   2.868   3.826  1.1256  0.1848 -0.6337
12546SOL     OW38770   4.716   4.698   0.636  0.4486 -0.1377  0.0347
12546SOL    HW138771   4.785   4.665   0.694  0.0842 -0.4132  0.3107
12546SOL    HW238772   4.655   4.625   0.627  1.1193 -0.5443 -1.6891
12547SOL     OW38773   2.146   2.653   8.435  0.0523 -0.0660  0.4793
12547SOL    HW138774   2.115   2.618   8.352  0.2113 -2.0284  1.1894
12547SOL    HW238775   2.162   2.746   8.418  0.6264 -0.5315 -1.8158
12548SOL     OW38776   3.759   6.319   1.019  0.5411  0.5641 -0.4463
12548SOL    HW138777   3.746   6.394   0.960 -0.1917  0.2732 -0.6650
12548SOL    HW238778   3.809   6.356   1.092  0.5519  1.1753 -0.7493
12549SOL     OW38779   0.302   8.635   5.696 -0.7175 -0.8967 -0.2435
12549SOL    HW138780   0.391   8.663   5.715 -0.2456 -1.6365 -1.2678
12549SOL    HW238781   0.247   8.688   5.754  0.2171  1.1087 -1.1085
12550SOL     OW38782   2.628   0.594   0.437  0.4803  0.3851 -0.1943
12550SOL    HW138783   2.611   0.560   0.349  0.7043  1.6319 -0.7412
12550SOL    HW238784   2.559   0.557   0.492  0.7175 -0.9254 -0.7588
12551SOL     OW38785   2.816   8.695   4.455 -0.1130  0.1781 -0.0340
12551SOL    HW138786   2.721   8.687   4.460 -0.0125 -0.8340  0.5828
12551SOL    HW238787   2.833   8.738   4.372 -1.0149 -1.8107 -1.3086
12552SOL     OW38788   1.276   2.970   3.300 -0.2122 -0.1223 -0.1033
12552SOL    HW138789   1.352   2.977   3.241 -0.1485  1.1332  0.0951
12552SOL    HW238790   1.210   3.027   3.260 -0.2094  0.6472  0.9397
12553SOL     OW38791   6.028   3.123   5.726  0.2395 -0.0132 -0.0150
12553SOL    HW138792   6.065   3.087   5.645 -0.0530 -0.4853  0.0619
12553SOL    HW238793   6.102   3.167   5.768  0.4865 -0.1111 -0.3416
12554SOL     OW38794   1.882   1.699   4.763 -0.1666 -0.9725 -0.3520
12554SOL    HW138795   1.938   1.771   4.732  0.9048 -1.6668 -0.0601
12554SOL    HW238796   1.868   1.717   4.856  0.7668 -1.5558 -0.0897
12555SOL     OW38797   0.836   8.680   2.347 -0.2180 -0.6157  0.3246
12555SOL    HW138798   0.828   8.743   2.275 -0.5485 -0.5485  0.4182
12555SOL    HW238799   0.880   8.605   2.309  0.7098 -0.1007  0.3512
12556SOL     OW38800   7.175   8.449   5.302 -0.3958 -0.2748 -0.1447
12556SOL    HW138801   7.226   8.530   5.311 -0.3426 -0.3343  0.1128
12556SOL    HW238802   7.177   8.429   5.209 -0.9245  0.3566 -0.3047
12557SOL     OW38803   2.883   2.593   8.665  0.2107 -0.2909  0.0120
12557SOL    HW138804   2.979   2.600   8.663  0.2025 -0.3158 -0.6568
12557SOL    HW238805   2.858   2.584   8.573 -0.4496 -0.0932  0.1698
12558SOL     OW38806   0.289   2.603   0.100  0.5386 -0.3192 -0.2911
12558SOL    HW138807   0.207   2.567   0.065  0.3517 -0.8263  0.6497
12558SOL    HW238808   0.355   2.575   0.036 -0.2529  1.9032 -2.2398
12559SOL     OW38809   6.865   3.034   3.822 -0.3291 -0.2706  0.4339
12559SOL    HW138810   6.873   2.942   3.797  0.7383 -0.6720  2.1195
12559SOL    HW238811   6.930   3.047   3.892 -1.8664  1.2140  1.6950
12560SOL     OW38812   2.275   1.879   2.081 -0.1460 -0.3757 -0.0264
12560SOL    HW138813   2.235   1.873   1.994 -1.4949 -0.5779  0.5892
12560SOL    HW238814   2.296   1.972   2.091 -1.8905  0.0195  0.2277
12561SOL     OW38815   3.157   5.631   5.273 -0.4395 -0.1747 -0.4476
12561SOL    HW138816   3.144   5.541   5.301 -1.0090  0.0901  0.1795
12561SOL    HW238817   3.238   5.659   5.316 -1.2933  0.2211  0.9592
12562SOL     OW38818   1.084   1.459   3.715 -0.3465  0.2019  0.4642
12562SOL    HW138819   1.117   1.459   3.625 -2.5712 -1.9659 -0.4748
12562SOL    HW238820   0.995   1.494   3.707 -0.1319  1.1873  2.0675
12563SOL     OW38821   0.740   4.019   4.750  0.6054  0.0757  0.5749
12563SOL    HW138822   0.709   3.937   4.787 -0.3279  0.6716  1.1355
12563SOL    HW238823   0.684   4.034   4.674  2.1106 -0.8283 -0.7695
12564SOL     OW38824   4.275   8.762   0.516 -0.2676 -0.4266  0.2354
12564SOL    HW138825   4.328   8.820   0.461 -0.4885 -0.3664  0.0881
12564SOL    HW238826   4.326   8.681   0.521 -0.2435 -0.4272 -0.0473
12565SOL     OW38827   4.510   1.980   0.438 -0.1542  0.3188 -0.5260
12565SOL    HW138828   4.603   1.980   0.461 -0.0461 -0.4348 -0.9384
12565SOL    HW238829   4.490   1.889   0.417 -0.9847  0.4751 -0.4726
12566SOL     OW38830   5.622   2.128   7.021  0.4668 -0.1971 -0.2596
12566SOL    HW138831   5.630   2.121   6.925  1.1611  2.0755 -0.4241
12566SOL    HW238832   5.659   2.214   7.042  1.1592 -1.0118  2.1748
12567SOL     OW38833   4.045   1.717   5.720  0.8545 -0.0168 -0.2438
12567SOL    HW138834   4.112   1.783   5.699  0.7344  0.3879  0.6012
12567SOL    HW238835   3.980   1.765   5.772 -0.3658 -0.2837 -1.4853
12568SOL     OW38836   6.294   5.117   6.554  0.1908 -0.5689  0.4950
12568SOL    HW138837   6.295   5.209   6.582 -1.5415 -0.0117 -1.0381
12568SOL    HW238838   6.351   5.115   6.477  0.3418 -0.7964  0.6148
12569SOL     OW38839   8.111   4.704   4.065  0.2109 -0.0289 -0.1347
12569SOL    HW138840   8.052   4.692   3.991 -0.1877 -0.1665  0.1977
12569SOL    HW238841   8.155   4.620   4.075 -0.0932 -0.1679  0.0813
12570SOL     OW38842   8.493   7.480   2.615  0.0060 -0.5289  0.1776
12570SOL    HW138843   8.502   7.494   2.521  1.1581 -1.5154  0.1245
12570SOL    HW238844   8.562   7.419   2.638 -1.2372 -1.5663  1.3897
12571SOL     OW38845   1.981   0.044   1.312  0.3858 -0.3190  0.1394
12571SOL    HW138846   1.901  -0.001   1.284  0.4569 -1.1178  1.1345
12571SOL    HW238847   2.014  -0.010   1.385  0.5450  1.2616  1.2921
12572SOL     OW38848   1.564   5.980   3.476 -0.1370 -0.1085 -0.1260
12572SOL    HW138849   1.639   6.026   3.514 -1.2208  0.7971  1.0301
12572SOL    HW238850   1.542   6.030   3.398 -0.0096  0.0905 -0.0364
12573SOL     OW38851   3.251   4.474   6.679  0.3301 -0.0483 -0.1395
12573SOL    HW138852   3.167   4.434   6.704  0.3929 -0.7789 -1.0610
12573SOL    HW238853   3.317   4.423   6.726  0.4120 -1.0802 -1.3356
12574SOL     OW38854   1.173   5.324   1.029  0.1644  0.3297  0.3603
12574SOL    HW138855   1.230   5.285   0.963 -0.9768  1.3614 -1.3202
12574SOL    HW238856   1.217   5.406   1.052  0.1149  0.4119  0.1705
12575SOL     OW38857   2.464   5.523   1.317  0.8605  0.1097  0.8544
12575SOL    HW138858   2.494   5.454   1.376 -0.1534 -0.0390  1.2196
12575SOL    HW238859   2.386   5.559   1.360 -0.8465 -1.0375 -1.0593
12576SOL     OW38860   7.034   1.461   7.676  0.0388 -0.2283 -0.3506
12576SOL    HW138861   7.035   1.409   7.756 -2.6934 -0.7852 -0.5867
12576SOL    HW238862   7.039   1.552   7.706  0.4898 -0.4686  0.3323
12577SOL     OW38863   7.235   2.022   8.279  0.4238  0.3247 -0.6227
12577SOL    HW138864   7.267   1.952   8.336  1.6634  0.5772 -0.9836
12577SOL    HW238865   7.298   2.026   8.207 -0.1808  1.1436 -1.1327
12578SOL     OW38866   8.721   4.891   9.117  0.8051  0.0489 -0.4717
12578SOL    HW138867   8.648   4.838   9.150  0.0405  0.0911 -1.9901
12578SOL    HW238868   8.730   4.961   9.181 -1.6774  1.0436 -1.0930
12579SOL     OW38869   3.090   4.259   8.744 -0.2200  0.2210  0.3481
12579SOL    HW138870   3.156   4.328   8.740  1.8496 -1.6764 -0.9147
12579SOL    HW238871   3.021   4.287   8.685  0.7844  1.0180 -0.4795
12580SOL     OW38872   2.324   1.404   2.157 -0.1895 -0.2419 -0.3082
12580SOL    HW138873   2.262   1.365   2.219  0.9285 -1.8085 -0.1367
12580SOL    HW238874   2.407   1.361   2.176  1.2020  2.4114  0.0280
12581SOL     OW38875   4.070   7.676   3.410  0.0157 -0.3198  0.2124
12581SOL    HW138876   4.101   7.588   3.390 -0.6026 -0.1605 -1.6911
12581SOL    HW238877   3.982   7.662   3.446  0.1844 -0.5065  0.5580
12582SOL     OW38878   0.083   3.670   1.049  0.0569  0.1686 -0.0384
12582SOL    HW138879  -0.004   3.631   1.045 -0.1280  0.6569 -1.4636
12582SOL    HW238880   0.067   3.761   1.075  0.3863 -0.3460  2.1357
12583SOL     OW38881   0.815   2.939   2.262  0.0170 -0.2590 -0.4545
12583SOL    HW138882   0.868   3.019   2.257  0.8405 -0.8374 -1.5279
12583SOL    HW238883   0.739   2.958   2.206  0.5454 -0.4385 -1.2623
12584SOL     OW38884   1.173   0.986   2.584 -0.3385 -0.5735 -0.3647
12584SOL    HW138885   1.195   0.903   2.628  1.0706  0.4210  0.8843
12584SOL    HW238886   1.161   1.048   2.655 -1.2934  0.3458 -1.2959
12585SOL     OW38887   3.319   1.619   1.031  0.3844 -0.2844 -0.2618
12585SOL    HW138888   3.295   1.530   1.058 -1.0694 -0.0672 -0.7800
12585SOL    HW238889   3.305   1.620   0.936 -0.9974  0.9088 -0.0712
12586SOL     OW38890   7.104   7.974   0.176 -0.5278  0.0847 -0.1940
12586SOL    HW138891   7.039   7.907   0.197  0.6203 -0.7932  0.7565
12586SOL    HW238892   7.104   8.033   0.252  1.3653 -1.2620  0.9662
12587SOL     OW38893   6.267   9.106   6.981 -0.2995 -0.3542 -0.6116
12587SOL    HW138894   6.220   9.178   7.022  0.3950  0.7015 -1.6091
12587SOL    HW238895   6.356   9.112   7.016 -0.1159 -0.4406 -1.0593
12588SOL     OW38896   4.329   7.755   0.825 -0.4003 -0.3531 -0.0451
12588SOL    HW138897   4.235   7.768   0.813 -0.6790  0.9103  2.6610
12588SOL    HW238898   4.369   7.832   0.785 -0.7966  0.5904  1.2873
12589SOL     OW38899   4.470   3.073   5.797  0.4199  0.1335 -0.3710
12589SOL    HW138900   4.556   3.102   5.826  0.5885 -0.2148 -0.5183
12589SOL    HW238901   4.483   2.982   5.769 -0.0933 -0.0838  0.0663
12590SOL     OW38902   1.645   8.876   7.885 -0.3039  0.0406  0.5905
12590SOL    HW138903   1.586   8.936   7.931 -1.8537  0.5632 -1.8978
12590SOL    HW238904   1.731   8.916   7.893 -1.0686  1.8362  0.2658
12591SOL     OW38905   8.345   8.629   0.604 -0.3720 -0.1841  0.2787
12591SOL    HW138906   8.330   8.622   0.510 -0.9377 -0.1693  0.3643
12591SOL    HW238907   8.435   8.600   0.616 -0.5763 -1.0332 -0.1623
12592SOL     OW38908   6.386   3.528   8.933  0.4893 -0.2164  0.7641
12592SOL    HW138909   6.364   3.439   8.962 -0.6164  0.0672  0.8266
12592SOL    HW238910   6.418   3.516   8.843 -0.4532 -0.5924  0.4693
12593SOL     OW38911   2.234   5.624   3.340  0.0955 -0.0042  0.1727
12593SOL    HW138912   2.286   5.702   3.361 -0.3226  0.3143  0.0445
12593SOL    HW238913   2.238   5.618   3.245  0.6283 -0.4940  0.2211
12594SOL     OW38914   5.845   2.830   2.765  0.0781  0.4412 -0.4417
12594SOL    HW138915   5.785   2.799   2.697  0.1938 -1.2515  0.1732
12594SOL    HW238916   5.906   2.756   2.778 -0.0405  0.6550  1.5973
12595SOL     OW38917   4.161   1.217   3.098  0.0040  0.2958  0.4957
12595SOL    HW138918   4.221   1.244   3.027  1.2479 -1.1481  0.9457
12595SOL    HW238919   4.078   1.260   3.076  0.6421  0.7508 -1.2501
12596SOL     OW38920   8.974   2.418   8.928  0.1056  0.1163  0.1018
12596SOL    HW138921   9.043   2.356   8.908 -0.4584 -0.3630 -0.4259
12596SOL    HW238922   8.943   2.448   8.842  0.6761  1.4828  0.3469
12597SOL     OW38923   9.025   1.830   7.805 -0.0250  0.8106 -0.3056
12597SOL    HW138924   8.953   1.877   7.847 -1.0348 -0.7024 -0.2820
12597SOL    HW238925   9.088   1.815   7.876  0.5287  2.4339 -0.3979
12598SOL     OW38926   3.871   5.462   3.658  0.0420  0.4328  0.0808
12598SOL    HW138927   3.814   5.385   3.660 -0.2225  0.6303  0.8484
12598SOL    HW238928   3.945   5.438   3.714  0.9125  0.0468 -1.1915
12599SOL     OW38929   4.922   0.319   2.478 -0.0777 -0.1546  0.0812
12599SOL    HW138930   4.882   0.378   2.415 -0.2165 -0.4085 -0.0699
12599SOL    HW238931   4.873   0.237   2.469  0.1592 -0.3149  0.2371
12600SOL     OW38932   2.868   3.243   6.730  0.4171  0.0364  0.4046
12600SOL    HW138933   2.822   3.266   6.650 -0.1991 -0.2943  0.6524
12600SOL    HW238934   2.926   3.317   6.747  2.2872 -0.8791 -1.5866
12601SOL     OW38935   2.766   8.518   3.805  0.5332  0.6531 -0.2087
12601SOL    HW138936   2.687   8.503   3.857  0.3192  3.7988  0.6073
12601SOL    HW238937   2.814   8.436   3.810 -1.3750 -0.4632  1.6276
12602SOL     OW38938   8.183   5.280   3.464 -0.2978 -0.0550  0.2520
12602SOL    HW138939   8.179   5.186   3.483  1.2618  0.0069  1.0606
12602SOL    HW238940   8.209   5.320   3.547  0.7195  0.8947 -0.4955
12603SOL     OW38941   8.871   2.424   5.815  0.2562 -0.1979  0.3018
12603SOL    HW138942   8.932   2.367   5.862  0.2386 -0.0370  0.5210
12603SOL    HW238943   8.795   2.368   5.798  0.2544 -0.2505  0.4828
12604SOL     OW38944   5.874   1.973   4.747  0.1711  0.3765 -0.4890
12604SOL    HW138945   5.821   2.012   4.677  1.1975  0.6753 -1.1266
12604SOL    HW238946   5.933   2.044   4.775  1.0484 -0.2680 -0.6373
12605SOL     OW38947   8.911   8.700   3.254  0.2537  0.3625  0.2883
12605SOL    HW138948   8.962   8.691   3.173  0.2796 -2.1115  0.4858
12605SOL    HW238949   8.869   8.786   3.247  0.7399  0.4749 -2.0651
12606SOL     OW38950   0.299   1.573   4.543  0.5542 -0.5062 -0.4715
12606SOL    HW138951   0.292   1.659   4.583  1.8505 -1.5325  2.1730
12606SOL    HW238952   0.379   1.578   4.489 -0.7303  0.6117 -2.4159
12607SOL     OW38953   4.099   1.174   0.291 -0.1087  0.6041 -0.0658
12607SOL    HW138954   4.175   1.220   0.327  0.1721  0.9175 -1.0074
12607SOL    HW238955   4.032   1.181   0.358  0.8470 -0.1190  1.0002
12608SOL     OW38956   2.527   4.224   6.162 -0.0484 -0.4581  0.3203
12608SOL    HW138957   2.586   4.152   6.139  1.9401  1.1444  0.0952
12608SOL    HW238958   2.532   4.230   6.257 -1.3323 -1.4587  0.4828
12609SOL     OW38959   7.446   7.488   0.595 -0.2304  0.6039 -0.4550
12609SOL    HW138960   7.394   7.472   0.517  1.3681 -2.1337 -1.0950
12609SOL    HW238961   7.526   7.529   0.563  0.7487 -1.2022 -0.4177
12610SOL     OW38962   3.208   7.570   5.880 -0.0620 -0.1089  0.1343
12610SOL    HW138963   3.257   7.563   5.962  1.3548  1.8513 -0.4628
12610SOL    HW238964   3.151   7.645   5.893  0.5044  0.5066 -0.7997
12611SOL     OW38965   3.000   5.450   0.507  0.1354 -0.2285 -0.1018
12611SOL    HW138966   3.042   5.369   0.537 -0.8947 -1.0340 -0.7434
12611SOL    HW238967   3.065   5.491   0.450  0.6647 -0.6066  0.2186
12612SOL     OW38968   6.602   5.623   7.239  0.5390 -0.1447 -0.7761
12612SOL    HW138969   6.598   5.563   7.165  0.0980  1.5496 -2.1674
12612SOL    HW238970   6.516   5.665   7.241  0.3698 -0.4980  1.0227
12613SOL     OW38971   8.612   8.921   1.747 -1.0825  0.2113 -0.2319
12613SOL    HW138972   8.613   9.016   1.758 -0.7872  0.0436  1.5811
12613SOL    HW238973   8.640   8.906   1.657 -0.6990  1.8297 -0.4012
12614SOL     OW38974   7.328   8.917   0.777  0.2980  0.7626  0.1039
12614SOL    HW138975   7.308   8.830   0.742  1.9402  0.8974 -1.2771
12614SOL    HW238976   7.242   8.956   0.794 -0.5126 -0.3357 -1.2539
12615SOL     OW38977   6.348   3.655   5.126  0.1216 -0.0577 -0.0406
12615SOL    HW138978   6.385   3.568   5.114 -0.4537 -0.0977 -1.7743
12615SOL    HW238979   6.416   3.703   5.174  1.2732 -0.8978 -0.7752
12616SOL     OW38980   5.232   8.397   6.759 -1.1679  0.2313 -0.1783
12616SOL    HW138981   5.201   8.477   6.802 -1.6727 -0.0986  0.0810
12616SOL    HW238982   5.327   8.398   6.773 -1.1632  0.8016 -0.2100
12617SOL     OW38983   6.771   9.040   0.982 -0.4461 -0.2438  0.1147
12617SOL    HW138984   6.844   9.093   1.014 -0.5395  0.5608 -0.9366
12617SOL    HW238985   6.762   8.970   1.046  0.8572 -0.0125  0.5784
12618SOL     OW38986   8.122   2.561   6.941  0.5196  0.0899  0.2143
12618SOL    HW138987   8.198   2.585   6.993  1.0637  0.9521 -0.9235
12618SOL    HW238988   8.156   2.502   6.874  0.4922  1.5376 -1.1365
12619SOL     OW38989   2.382   0.811   7.076 -0.0826 -0.0349 -0.5318
12619SOL    HW138990   2.369   0.718   7.093 -0.2063  0.0627 -0.0811
12619SOL    HW238991   2.474   0.827   7.095 -0.5267  0.3649  1.4881
12620SOL     OW38992   2.251   4.703   5.174 -0.4650  0.0153 -0.5189
12620SOL    HW138993   2.156   4.693   5.176 -0.4733  0.0183  1.6776
12620SOL    HW238994   2.282   4.646   5.244  1.1522  0.0534 -1.1733
12621SOL     OW38995   5.349   4.748   7.790  0.6348 -0.4150 -0.5866
12621SOL    HW138996   5.268   4.719   7.831  1.0504  0.1040  0.6571
12621SOL    HW238997   5.324   4.778   7.703 -0.8393  1.5720  0.4622
12622SOL     OW38998   2.897   0.664   2.974 -0.0371  0.8398  0.0370
12622SOL    HW138999   2.878   0.628   3.061  0.1937  1.7550  0.4867
12622SOL    HW239000   2.989   0.644   2.960 -0.2324  0.1512 -0.2678
12623SOL     OW39001   5.333   1.254   4.564  0.4506  0.4347 -0.7084
12623SOL    HW139002   5.422   1.279   4.540  0.1024  2.1452 -0.3903
12623SOL    HW239003   5.308   1.317   4.632 -0.2704 -1.3283  0.7227
12624SOL     OW39004   1.863   4.543   7.976  0.9434 -0.0128  0.4161
12624SOL    HW139005   1.804   4.485   8.025 -0.8819  1.4522  0.0910
12624SOL    HW239006   1.913   4.484   7.920 -0.3574 -1.3335  0.5784
12625SOL     OW39007   8.064   1.701   2.271  0.1518 -0.0089  0.1942
12625SOL    HW139008   8.143   1.741   2.235 -0.6305  0.8692 -0.5976
12625SOL    HW239009   8.086   1.608   2.279  0.9520  0.0636 -0.9197
12626SOL     OW39010   3.170   1.308   8.922 -0.6694 -0.1331 -0.0296
12626SOL    HW139011   3.121   1.359   8.857 -0.3793 -1.3751 -1.2689
12626SOL    HW239012   3.103   1.281   8.986 -1.3719 -0.6036 -0.9287
12627SOL     OW39013   8.377   8.032   0.953  0.1679 -0.7813  0.5225
12627SOL    HW139014   8.436   8.033   1.029 -1.2890 -0.4002  1.6868
12627SOL    HW239015   8.295   7.996   0.987  0.1512 -2.7729 -1.4126
12628SOL     OW39016   0.770   1.847   6.150  0.0636 -0.8743  0.3938
12628SOL    HW139017   0.851   1.884   6.187 -0.5824  0.8009  0.2072
12628SOL    HW239018   0.707   1.851   6.221 -0.8247  1.1763 -0.4171
12629SOL     OW39019   8.303   6.683   7.229 -0.2515  0.5555  0.5903
12629SOL    HW139020   8.330   6.679   7.321  0.9017  2.1332  0.3612
12629SOL    HW239021   8.380   6.656   7.180 -0.2995  1.3737  0.0415
12630SOL     OW39022   2.267   4.006   6.947  0.1374 -0.0333  0.4136
12630SOL    HW139023   2.188   4.042   6.989 -0.8172 -0.1193 -1.2432
12630SOL    HW239024   2.337   4.063   6.978 -0.5831  0.1778  1.7641
12631SOL     OW39025   4.357   5.531   1.476 -0.1552  0.3202  0.0102
12631SOL    HW139026   4.292   5.462   1.471  1.0623 -0.9770  1.2084
12631SOL    HW239027   4.322   5.594   1.540 -0.7885  0.2989 -0.3098
12632SOL     OW39028   5.633   1.257   0.927 -0.1224  0.0441  0.0392
12632SOL    HW139029   5.691   1.318   0.881 -0.6741  1.5820  1.3086
12632SOL    HW239030   5.546   1.278   0.892 -0.0510 -1.8444 -1.4202
12633SOL     OW39031   1.191   8.529   7.276 -0.5846 -0.1373 -0.2270
12633SOL    HW139032   1.191   8.611   7.227 -1.9452  0.0413  0.0538
12633SOL    HW239033   1.249   8.545   7.350 -0.4141  0.3770 -0.4657
12634SOL     OW39034   4.601   4.448   1.257 -0.1949  0.5032 -0.0268
12634SOL    HW139035   4.649   4.473   1.178 -1.1917 -2.1993 -1.6195
12634SOL    HW239036   4.669   4.432   1.322  0.9113 -0.2290 -1.3013
12635SOL     OW39037   3.675   3.689   6.149  0.2199 -0.2718  0.1915
12635SOL    HW139038   3.622   3.698   6.069  1.8902 -1.0595 -1.0731
12635SOL    HW239039   3.693   3.779   6.176 -0.0595  0.0174 -0.5606
12636SOL     OW39040   6.676   2.185   1.383  0.6790 -0.3191 -0.1744
12636SOL    HW139041   6.666   2.277   1.408 -0.5736 -0.9278  1.7869
12636SOL    HW239042   6.646   2.182   1.292 -0.9319  0.9372  0.2714
12637SOL     OW39043   8.831   3.010   5.240 -0.6601  0.2862  0.1423
12637SOL    HW139044   8.814   3.099   5.271  1.2603  1.1997 -1.2390
12637SOL    HW239045   8.751   2.986   5.193 -1.2943  1.1740  0.7452
12638SOL     OW39046   2.509   2.647   5.396  0.2354  0.1858 -0.0557
12638SOL    HW139047   2.536   2.615   5.482  0.2791  0.7464  0.1466
12638SOL    HW239048   2.484   2.738   5.411 -0.1417  0.1704 -0.5635
12639SOL     OW39049   8.312   7.192   0.625 -0.4992 -0.0484  0.1746
12639SOL    HW139050   8.367   7.208   0.548 -0.1002 -2.1890 -0.0432
12639SOL    HW239051   8.256   7.118   0.600 -0.6654 -0.5061  1.7787
12640SOL     OW39052   3.672   6.240   4.026 -0.0571 -0.3090  0.0472
12640SOL    HW139053   3.713   6.157   4.049  0.0068 -0.3080 -0.0612
12640SOL    HW239054   3.675   6.291   4.107  1.0430  0.0557 -0.1977
12641SOL     OW39055   6.752   1.549   2.935 -0.3506  0.5473  0.0976
12641SOL    HW139056   6.774   1.636   2.968  1.5757 -0.0683  0.5576
12641SOL    HW239057   6.813   1.491   2.980 -1.2748 -0.9905 -0.5740
12642SOL     OW39058   1.443   3.400   4.965 -0.0601  0.2082 -0.7152
12642SOL    HW139059   1.476   3.448   4.889  0.0270 -0.4365 -1.0933
12642SOL    HW239060   1.392   3.465   5.014  1.6523  1.2135 -0.1687
12643SOL     OW39061   6.489   4.047   3.594  0.1245  0.0445 -0.0348
12643SOL    HW139062   6.469   4.028   3.686 -3.1023  1.8702 -0.1847
12643SOL    HW239063   6.557   4.114   3.597 -0.2385  0.3842  1.0693
12644SOL     OW39064   2.638   7.362   2.861 -0.1225  0.2292 -0.6189
12644SOL    HW139065   2.725   7.324   2.849  0.4751  1.6677 -1.0555
12644SOL    HW239066   2.580   7.287   2.875  0.9053 -0.8606 -2.0217
12645SOL     OW39067   0.550   1.737   2.432 -0.6063 -0.2571 -0.0813
12645SOL    HW139068   0.540   1.790   2.511  0.2290 -0.8207  0.4188
12645SOL    HW239069   0.461   1.729   2.397 -1.0725 -0.4454  1.1002
12646SOL     OW39070   6.784   6.088   1.539 -0.1134  0.0196  0.1046
12646SOL    HW139071   6.774   6.094   1.634  0.0731 -0.7470  0.1783
12646SOL    HW239072   6.827   6.004   1.524  0.2267  0.3162 -0.6372
12647SOL     OW39073   7.361   0.891   8.392  0.0995  0.1684 -0.1076
12647SOL    HW139074   7.451   0.895   8.357 -0.3656  0.9025 -1.2960
12647SOL    HW239075   7.345   0.797   8.404  0.2043 -0.1815 -2.2201
12648SOL     OW39076   3.772   1.610   1.174 -0.0043  0.0868 -0.0638
12648SOL    HW139077   3.774   1.594   1.269 -0.6833 -1.2331 -0.2520
12648SOL    HW239078   3.698   1.670   1.163 -0.3590 -0.2931  0.1820
12649SOL     OW39079   5.629   4.602   4.582  0.3983 -0.0315  0.3310
12649SOL    HW139080   5.658   4.693   4.588  0.5272 -0.1263  1.2111
12649SOL    HW239081   5.597   4.581   4.669 -0.2364 -0.6349 -0.0375
12650SOL     OW39082   1.083   3.421   4.453 -0.2233 -0.4992 -0.0388
12650SOL    HW139083   1.144   3.439   4.382 -0.2611 -0.3354 -0.0319
12650SOL    HW239084   1.129   3.449   4.532 -0.9630  1.3241 -0.1967
12651SOL     OW39085   0.925   1.876   7.398  0.0094  0.1345 -0.1946
12651SOL    HW139086   0.894   1.888   7.308  0.8057 -0.6120 -0.5942
12651SOL    HW239087   1.021   1.876   7.389  0.0834 -0.5677  0.5620
12652SOL     OW39088   0.228   2.792   5.881  0.1915  0.1085 -0.5488
12652SOL    HW139089   0.304   2.736   5.861  0.5928  0.5322 -0.2362
12652SOL    HW239090   0.198   2.760   5.966  0.4474  0.3877 -0.3499
12653SOL     OW39091   7.772   3.149   4.542 -0.0436 -0.0579 -0.4686
12653SOL    HW139092   7.769   3.140   4.637  0.9705  0.6656 -0.3545
12653SOL    HW239093   7.682   3.133   4.513  0.0526 -2.5038  0.3887
12654SOL     OW39094   3.764   8.596   2.150 -0.3650 -0.6257  0.5513
12654SOL    HW139095   3.855   8.620   2.163 -1.0276  1.9254  0.9565
12654SOL    HW239096   3.763   8.500   2.157  2.0322 -0.6126  2.0299
12655SOL     OW39097   7.646   4.269   0.690  0.1686 -0.3216  0.3910
12655SOL    HW139098   7.662   4.177   0.671  0.6220 -0.2193  0.2667
12655SOL    HW239099   7.705   4.316   0.632  1.4700  0.0050  1.8994
12656SOL     OW39100   4.568   1.913   8.281  0.0210 -0.1222 -0.2819
12656SOL    HW139101   4.522   1.830   8.269  0.0621  0.0353 -1.6195
12656SOL    HW239102   4.501   1.980   8.265  0.1732  0.1038  0.0213
12657SOL     OW39103   2.252   5.452   6.461  0.2744 -0.0062 -0.6213
12657SOL    HW139104   2.177   5.509   6.477  0.2221 -0.9369  3.3949
12657SOL    HW239105   2.325   5.495   6.505  0.7225 -1.8613  0.5872
12658SOL     OW39106   0.970   5.155   1.015  0.1232  0.2429  0.3395
12658SOL    HW139107   0.918   5.191   0.944  0.2936 -1.7332 -0.8790
12658SOL    HW239108   1.036   5.221   1.033 -1.4418  1.8660  0.4355
12659SOL     OW39109   4.665   0.174   2.017 -0.7247  0.0555 -0.1992
12659SOL    HW139110   4.600   0.179   2.087  0.0515 -0.2567  0.5754
12659SOL    HW239111   4.617   0.139   1.942 -1.1080 -1.7694  0.8285
12660SOL     OW39112   8.557   3.242   1.128  0.5149  0.6538 -0.9967
12660SOL    HW139113   8.572   3.235   1.223  1.3041  1.1671 -1.0726
12660SOL    HW239114   8.470   3.280   1.120  1.3802  2.9264 -0.4110
12661SOL     OW39115   7.891   3.038   4.324 -0.1159  0.1995  0.3959
12661SOL    HW139116   7.856   3.061   4.410 -0.4940 -1.8761  0.8701
12661SOL    HW239117   7.828   3.073   4.262 -3.1229 -3.1569  1.2151
12662SOL     OW39118   5.237   5.548   8.548 -0.1353 -0.0270 -0.0168
12662SOL    HW139119   5.186   5.569   8.470 -0.0876  0.9973  0.2140
12662SOL    HW239120   5.268   5.633   8.580  1.0877 -0.5563  0.2773
12663SOL     OW39121   2.018   5.191   3.843 -0.0729 -0.2629  0.0252
12663SOL    HW139122   1.970   5.198   3.926 -2.0215 -1.8781 -0.8870
12663SOL    HW239123   2.086   5.126   3.860 -0.6251 -0.7761  0.2753
12664SOL     OW39124   3.116   5.332   4.197  0.0327 -0.2095  0.2878
12664SOL    HW139125   3.132   5.262   4.260  2.5142 -1.1279 -1.2384
12664SOL    HW239126   3.027   5.316   4.166 -0.3193 -1.2123  1.6952
12665SOL     OW39127   4.904   8.345   8.070 -0.3322 -0.1391 -0.3676
12665SOL    HW139128   4.999   8.343   8.054 -0.0172 -1.8759  1.3328
12665SOL    HW239129   4.865   8.343   7.983  1.2314 -3.1870 -1.1516
12666SOL     OW39130   6.677   0.513   0.110  0.1625  0.1564  0.4640
12666SOL    HW139131   6.712   0.445   0.053 -0.9480  1.4575 -1.8835
12666SOL    HW239132   6.707   0.488   0.198  1.8422 -1.9800 -0.6270
12667SOL     OW39133   5.791   1.056   3.661  0.4947  0.0168 -0.1972
12667SOL    HW139134   5.806   1.011   3.578  3.1782 -1.4069  0.9336
12667SOL    HW239135   5.734   1.130   3.639  0.0339 -1.0768 -3.0227
12668SOL     OW39136   3.349   2.782   4.085  0.3027 -0.2084  0.5125
12668SOL    HW139137   3.419   2.843   4.111 -0.0842 -0.8948  3.5762
12668SOL    HW239138   3.285   2.788   4.156 -0.6724 -2.7811 -0.0393
12669SOL     OW39139   2.094   7.112   0.773 -0.0127 -1.3628  0.1502
12669SOL    HW139140   2.029   7.171   0.811  1.2990  0.1742  0.1162
12669SOL    HW239141   2.160   7.101   0.841  0.4178 -1.7446 -0.3152
12670SOL     OW39142   1.935   1.028   6.961 -0.2079 -0.0838 -0.3082
12670SOL    HW139143   2.011   0.973   6.978  0.5632  0.8924 -0.5725
12670SOL    HW239144   1.895   0.990   6.882  1.1366  0.5583 -1.3360
12671SOL     OW39145   8.330   0.999   4.029 -0.5254  0.4805  0.2814
12671SOL    HW139146   8.242   1.025   4.001 -0.4633 -0.9205 -1.3866
12671SOL    HW239147   8.328   1.006   4.124 -1.7886  2.4115  0.1780
12672SOL     OW39148   7.599   8.891   6.664  0.3480 -0.4469  0.2201
12672SOL    HW139149   7.578   8.817   6.721 -0.2388  0.2135  0.8915
12672SOL    HW239150   7.592   8.968   6.722  1.1271  0.1134 -0.4144
12673SOL     OW39151   0.847   5.447   4.328 -0.1489  0.4532  0.0461
12673SOL    HW139152   0.894   5.372   4.293 -0.6729  1.2341 -2.6036
12673SOL    HW239153   0.761   5.413   4.352  1.0112 -0.5985  3.1558
12674SOL     OW39154   0.209   8.261   7.583 -0.0580  0.1246  0.2367
12674SOL    HW139155   0.246   8.172   7.579 -0.9297 -0.2412  0.1574
12674SOL    HW239156   0.253   8.308   7.512  0.3966 -0.2454  0.2639
12675SOL     OW39157   8.539   7.190   1.982  0.3942  0.0344 -0.0014
12675SOL    HW139158   8.568   7.203   1.891  2.0323  0.1560  0.5095
12675SOL    HW239159   8.493   7.271   2.003 -3.2740 -1.3357 -1.8196
12676SOL     OW39160   2.912   0.974   0.196 -0.2485  0.2535  0.2705
12676SOL    HW139161   2.858   0.920   0.138  0.0505  0.2542 -0.0157
12676SOL    HW239162   2.866   0.975   0.279 -0.0756 -0.7398  0.3812
12677SOL     OW39163   3.730   8.147   6.789 -0.1086  0.0304  0.3044
12677SOL    HW139164   3.673   8.161   6.713 -0.9172  1.0306  1.0733
12677SOL    HW239165   3.672   8.153   6.864  1.2903  3.4323  1.2883
12678SOL     OW39166   7.864   8.646   3.875  0.3245 -0.3118 -0.4652
12678SOL    HW139167   7.936   8.705   3.854 -1.0929  1.4056 -0.6861
12678SOL    HW239168   7.810   8.646   3.796  0.5673 -2.4237 -0.7023
12679SOL     OW39169   0.884   3.353   4.641  0.2789 -0.1884 -0.0049
12679SOL    HW139170   0.864   3.263   4.668  0.5311 -0.1816  0.2037
12679SOL    HW239171   0.942   3.343   4.566 -0.0338 -0.2020 -0.2482
12680SOL     OW39172   2.531   0.665   7.729  0.2530  0.1639 -0.1981
12680SOL    HW139173   2.566   0.651   7.641  1.0381 -0.0122  0.1327
12680SOL    HW239174   2.450   0.713   7.715  0.5424  0.4380 -1.0019
12681SOL     OW39175   4.832   8.945   4.167 -0.1999  0.0190 -0.3059
12681SOL    HW139176   4.809   9.025   4.119 -1.1055 -0.1024 -0.0843
12681SOL    HW239177   4.777   8.947   4.245  3.2527  1.7208  2.3523
12682SOL     OW39178   7.272   8.916   8.031 -0.4445 -0.3951 -0.6139
12682SOL    HW139179   7.319   8.948   8.107 -0.4416  0.3811 -0.9393
12682SOL    HW239180   7.233   8.833   8.060 -0.3136 -0.1844  0.1804
12683SOL     OW39181   1.319   1.528   1.556 -0.3347  0.4671 -0.8154
12683SOL    HW139182   1.386   1.512   1.490 -0.3676  0.0435 -0.7543
12683SOL    HW239183   1.243   1.479   1.525 -0.3510  0.2644 -0.4656
12684SOL     OW39184   1.678   5.951   0.608 -0.4691 -0.3814 -0.4294
12684SOL    HW139185   1.678   6.042   0.579  1.3830  0.1700  1.1203
12684SOL    HW239186   1.669   5.900   0.527 -0.6125  1.1500 -1.4142
12685SOL     OW39187   8.235   6.137   5.001  0.0903  0.2036 -0.5865
12685SOL    HW139188   8.236   6.218   4.950 -0.2250  0.7203  0.2026
12685SOL    HW239189   8.251   6.166   5.091 -1.1850 -0.4808 -0.1271
12686SOL     OW39190   7.141   2.726   8.579 -0.0025  0.2806  0.0396
12686SOL    HW139191   7.130   2.665   8.652 -1.1231  0.5742  0.1478
12686SOL    HW239192   7.071   2.702   8.518  1.6022 -0.6995 -1.4956
12687SOL     OW39193   1.376   8.076   7.373 -0.6135  0.4507 -0.5909
12687SOL    HW139194   1.456   8.125   7.352 -0.0662  0.0184  0.4434
12687SOL    HW239195   1.403   7.984   7.371 -0.6978  0.3499  1.2119
12688SOL     OW39196   6.433   8.611   2.439 -0.9024 -0.6302 -0.3306
12688SOL    HW139197   6.491   8.683   2.418  0.5620 -2.5683 -3.7213
12688SOL    HW239198   6.358   8.652   2.481  1.8195  2.2415  2.2400
12689SOL     OW39199   7.274   2.647   1.916  0.3806 -0.8671  0.1040
12689SOL    HW139200   7.364   2.677   1.907  0.5429 -0.7473  1.8165
12689SOL    HW239201   7.280   2.551   1.909  0.6420 -0.8556  0.1585
12690SOL     OW39202   8.026   2.439   2.033  0.7642 -0.5093 -0.4694
12690SOL    HW139203   8.082   2.397   1.968  0.2478 -0.4115 -0.9925
12690SOL    HW239204   7.972   2.368   2.068  1.7481 -0.7517  0.6229
12691SOL     OW39205   3.266   4.261   2.198 -0.0731  0.0326 -0.3961
12691SOL    HW139206   3.269   4.240   2.291 -0.3827  0.4000 -0.2985
12691SOL    HW239207   3.356   4.250   2.168  0.7448  2.9550  0.6451
12692SOL     OW39208   4.254   3.089   7.228  0.4406  0.0159 -0.0631
12692SOL    HW139209   4.338   3.124   7.257  0.1814 -0.8155  1.8296
12692SOL    HW239210   4.261   2.995   7.239 -0.2045 -0.2255 -1.4465
12693SOL     OW39211   7.451   7.038   7.737  0.4428 -0.1472  0.2648
12693SOL    HW139212   7.428   7.126   7.764 -1.1541 -1.1733  2.5162
12693SOL    HW239213   7.373   6.985   7.755  1.8856 -2.3228  0.5270
12694SOL     OW39214   2.285   5.050   2.625  0.2679  0.0927  0.5858
12694SOL    HW139215   2.312   5.121   2.567 -1.0791  0.9812  1.0024
12694SOL    HW239216   2.305   5.081   2.713  3.8472 -1.9039  0.6822
12695SOL     OW39217   1.480   4.442   4.429  0.0550 -0.0417 -0.1067
12695SOL    HW139218   1.438   4.361   4.399 -0.2530 -0.2064  0.7495
12695SOL    HW239219   1.413   4.510   4.416  0.7804  0.3664 -2.1540
12696SOL     OW39220   4.750   5.009   3.787 -0.0950 -0.1314  0.0991
12696SOL    HW139221   4.678   5.027   3.847  1.6355 -0.1620  2.2980
12696SOL    HW239222   4.829   5.035   3.834  1.4523 -1.0261 -1.8103
12697SOL     OW39223   2.159   0.635   0.484  0.5462 -0.6341  0.5935
12697SOL    HW139224   2.121   0.602   0.402  0.6407 -0.2023  0.3709
12697SOL    HW239225   2.236   0.684   0.456  0.0846  0.2679  0.8633
12698SOL     OW39226   8.087   7.976   8.022  0.3974  0.0753 -0.8926
12698SOL    HW139227   8.179   7.988   8.044  0.2220 -0.0050 -0.0697
12698SOL    HW239228   8.085   7.898   7.967  0.8248  0.1163 -0.9707
12699SOL     OW39229   3.994   4.341   2.559  0.4462 -0.1173 -0.9743
12699SOL    HW139230   4.049   4.394   2.617  0.1125  0.8574 -1.5233
12699SOL    HW239231   4.047   4.263   2.541  0.2444 -0.8324  1.2396
12700SOL     OW39232   2.107   3.707   5.495  0.1333 -0.1172 -0.1460
12700SOL    HW139233   2.091   3.654   5.573  1.0635  0.8583  0.7347
12700SOL    HW239234   2.143   3.789   5.528 -0.5223  0.7717 -1.5333
12701SOL     OW39235   3.798   3.094   6.639  0.1832  0.0895 -0.0074
12701SOL    HW139236   3.829   3.052   6.719 -0.8383  0.0740  0.3936
12701SOL    HW239237   3.744   3.027   6.596 -2.9061  1.4260  1.4879
12702SOL     OW39238   2.102   6.813   7.142  0.1465  0.3183 -0.0743
12702SOL    HW139239   2.065   6.886   7.091 -0.1064  0.1320 -0.1578
12702SOL    HW239240   2.180   6.850   7.183 -0.6068  0.9675  0.8032
12703SOL     OW39241   0.425   2.378   2.139  0.2814  0.5412  0.5683
12703SOL    HW139242   0.364   2.308   2.161 -2.4655  1.9123 -2.0350
12703SOL    HW239243   0.381   2.458   2.167  1.4768  1.4994 -0.1945
12704SOL     OW39244   4.500   8.825   1.546  0.4833  0.3341  0.1837
12704SOL    HW139245   4.589   8.849   1.572  0.1392 -0.0884  1.8759
12704SOL    HW239246   4.444   8.891   1.589 -0.0570  0.2108 -0.3257
12705SOL     OW39247   1.809   3.688   7.272 -0.1404  0.9286  0.8005
12705SOL    HW139248   1.724   3.718   7.305 -0.4160  1.1493 -0.0900
12705SOL    HW239249   1.818   3.599   7.307 -1.1408  0.5766  0.1934
12706SOL     OW39250   5.296   6.437   7.429 -0.6039  0.4920  0.0012
12706SOL    HW139251   5.313   6.527   7.458 -1.2629  0.4187  0.6311
12706SOL    HW239252   5.329   6.382   7.500  0.1855  0.2044 -0.5680
12707SOL     OW39253   6.743   8.927   4.824  0.3163 -0.0273 -0.5457
12707SOL    HW139254   6.659   8.960   4.858  0.2385 -0.4628 -0.3079
12707SOL    HW239255   6.763   8.851   4.878  0.8212  0.0145 -0.6671
12708SOL     OW39256   8.663   1.681   7.487 -0.4716 -0.1205 -0.6590
12708SOL    HW139257   8.753   1.707   7.507 -0.3501 -0.8068 -0.2624
12708SOL    HW239258   8.628   1.752   7.433 -0.9278  2.0455  2.1962
12709SOL     OW39259   4.924   1.735   0.708  0.3140 -0.3044 -0.3230
12709SOL    HW139260   4.845   1.685   0.690  0.4807 -0.8115  0.3286
12709SOL    HW239261   4.969   1.685   0.776  0.1794  1.0314  0.7949
12710SOL     OW39262   8.101   0.675   3.788  0.2131 -0.4947 -0.2643
12710SOL    HW139263   8.161   0.608   3.754  0.1167 -1.8668  2.0646
12710SOL    HW239264   8.111   0.749   3.728  1.1255 -2.1956 -2.3199
12711SOL     OW39265   2.651   8.826   6.739 -0.6057 -0.0185 -0.3145
12711SOL    HW139266   2.601   8.752   6.705 -0.6622 -0.1871  0.1300
12711SOL    HW239267   2.611   8.903   6.697  0.8047 -0.3669 -2.4223
12712SOL     OW39268   4.773   5.534   1.250 -1.0430 -0.6100  0.5796
12712SOL    HW139269   4.792   5.618   1.208  0.2770 -1.4912 -0.6926
12712SOL    HW239270   4.749   5.557   1.339  1.4077  1.0282  0.9231
12713SOL     OW39271   8.998   5.106   2.192  0.3224 -0.2035 -0.2058
12713SOL    HW139272   8.918   5.117   2.245  2.1503  1.7500  2.4488
12713SOL    HW239273   9.069   5.104   2.257  2.7802  2.3298 -2.5354
12714SOL     OW39274   7.117   3.202   5.789  0.4134 -0.0305  0.4052
12714SOL    HW139275   7.204   3.234   5.765  0.1720  0.6876  0.4732
12714SOL    HW239276   7.133   3.117   5.829  1.1056  0.1868  0.5978
12715SOL     OW39277   3.094   1.812   7.203 -0.2342 -0.1453  0.1490
12715SOL    HW139278   3.126   1.723   7.191 -0.5504 -0.2204 -0.1450
12715SOL    HW239279   3.118   1.858   7.123  0.4913  0.2078  0.5613
12716SOL     OW39280   4.128   0.904   3.190 -0.4553 -0.1135  0.4233
12716SOL    HW139281   4.153   0.861   3.108  0.3594  1.5972 -0.2941
12716SOL    HW239282   4.038   0.933   3.175 -0.1601  0.5944 -0.0918
12717SOL     OW39283   8.500   5.127   1.248 -0.6560  0.1831  0.5832
12717SOL    HW139284   8.573   5.095   1.195 -0.4952 -1.6861  1.8032
12717SOL    HW239285   8.540   5.156   1.330 -1.1619  0.2321  0.8189
12718SOL     OW39286   7.952   4.841   8.967  0.4270  0.0084  0.8807
12718SOL    HW139287   7.909   4.920   8.998  0.5537  0.5907 -0.3800
12718SOL    HW239288   8.042   4.849   8.996  0.4072  0.2554  0.8685
12719SOL     OW39289   3.494   5.082   0.322  0.1995  0.2413 -0.0074
12719SOL    HW139290   3.561   5.144   0.296  0.7041 -0.4302 -0.3440
12719SOL    HW239291   3.441   5.070   0.243  0.4195 -0.1500 -0.0968
12720SOL     OW39292   1.583   1.175   6.422 -0.2768  0.5742  0.5630
12720SOL    HW139293   1.617   1.101   6.372 -0.8289  1.1635 -0.7621
12720SOL    HW239294   1.657   1.235   6.431 -0.4116  0.9565 -0.5725
12721SOL     OW39295   5.969   5.259   8.759 -0.6439  0.2819  0.2726
12721SOL    HW139296   6.038   5.313   8.797  0.1820 -0.2558 -0.4269
12721SOL    HW239297   6.011   5.174   8.742 -1.6592 -0.2797  0.4785
12722SOL     OW39298   6.936   3.569   3.804  0.1617 -0.4750  0.1291
12722SOL    HW139299   6.954   3.640   3.742 -1.4779 -0.1907 -0.0459
12722SOL    HW239300   6.951   3.489   3.753  2.0466 -0.3130  0.3338
12723SOL     OW39301   6.609   1.329   3.763  0.2898  1.1336 -0.0955
12723SOL    HW139302   6.691   1.285   3.741 -0.0509  2.0796 -3.9243
12723SOL    HW239303   6.542   1.260   3.758  0.6324  0.6235  1.7521
12724SOL     OW39304   1.150   2.394   2.713  0.3108  0.5162  0.1085
12724SOL    HW139305   1.108   2.477   2.689  2.4860  1.3860 -1.0110
12724SOL    HW239306   1.101   2.327   2.665  0.9627  1.6251 -2.2662
12725SOL     OW39307   1.428   1.141   0.222  0.0865  0.4101  0.1927
12725SOL    HW139308   1.439   1.162   0.315 -0.0260 -1.4870  0.6730
12725SOL    HW239309   1.340   1.104   0.216  0.1325  0.4278 -0.6474
12726SOL     OW39310   0.511   7.907   5.658 -0.1210 -0.2603  0.3145
12726SOL    HW139311   0.447   7.945   5.598  0.8640  0.2357 -0.4423
12726SOL    HW239312   0.524   7.974   5.725  0.2514  0.0029 -0.0159
12727SOL     OW39313   1.019   4.841   4.995  0.0794 -0.5912 -0.5579
12727SOL    HW139314   0.925   4.842   4.980  0.0657  0.1941 -0.4995
12727SOL    HW239315   1.054   4.905   4.932  0.4975 -0.4316 -0.1719
12728SOL     OW39316   1.467   2.926   5.086 -0.1970 -0.2576 -0.0647
12728SOL    HW139317   1.422   2.891   5.163 -0.1900 -0.9888 -0.3826
12728SOL    HW239318   1.410   2.997   5.055  0.0789  0.4070  0.9306
12729SOL     OW39319   0.282   0.208   4.913  0.1375 -0.0559  0.3193
12729SOL    HW139320   0.191   0.238   4.919 -0.2500 -1.0301 -0.5364
12729SOL    HW239321   0.310   0.235   4.826  0.6591  0.1844  0.5599
12730SOL     OW39322   6.801   2.493   0.167  0.1780  0.2330 -0.1967
12730SOL    HW139323   6.860   2.532   0.231 -1.2219  0.1592  1.1988
12730SOL    HW239324   6.740   2.563   0.144 -0.4683 -0.2567 -0.0148
12731SOL     OW39325   4.681   1.559   5.561 -0.3280 -0.1391 -0.1171
12731SOL    HW139326   4.742   1.486   5.546 -0.4702  0.0328 -1.6350
12731SOL    HW239327   4.665   1.595   5.474 -1.3753  0.8190  0.4551
12732SOL     OW39328   0.869   3.789   5.052 -0.0085 -0.3867  0.1338
12732SOL    HW139329   0.880   3.726   5.123 -0.2835 -1.0704 -0.4260
12732SOL    HW239330   0.848   3.872   5.096  2.1890 -0.2215  0.9850
12733SOL     OW39331   8.453   7.044   8.332  0.1722 -0.4965 -0.4877
12733SOL    HW139332   8.541   7.011   8.355  0.3355 -0.4519 -1.0291
12733SOL    HW239333   8.419   6.978   8.271 -0.0517 -0.3587 -0.5102
12734SOL     OW39334   0.985   4.199   5.158  0.4160  0.1235 -0.3200
12734SOL    HW139335   0.941   4.280   5.185  0.3834 -0.2010  0.6448
12734SOL    HW239336   1.009   4.214   5.067  0.4150  1.2304 -0.1543
12735SOL     OW39337   8.428   3.287   3.278  0.1395 -0.2993  0.1862
12735SOL    HW139338   8.463   3.372   3.251  1.2694 -0.1136  2.0805
12735SOL    HW239339   8.334   3.293   3.260  0.3595  0.9201 -0.7105
12736SOL     OW39340   8.903   1.069   2.699 -0.3724 -0.1698 -0.1927
12736SOL    HW139341   8.978   1.113   2.660  0.7322 -2.0272 -0.2570
12736SOL    HW239342   8.919   0.976   2.685 -0.7627 -0.8707  3.0984
12737SOL     OW39343   8.764   0.993   1.185  0.5276  0.0935  0.3089
12737SOL    HW139344   8.844   0.981   1.238  0.2126  1.3439  1.1030
12737SOL    HW239345   8.698   1.021   1.248 -0.4509 -0.5533 -0.4093
12738SOL     OW39346   6.689   6.348   8.185 -0.6590 -0.3041  0.1229
12738SOL    HW139347   6.616   6.411   8.191 -0.6921 -0.2223 -0.9728
12738SOL    HW239348   6.701   6.317   8.275 -1.0083  0.8547  0.5881
12739SOL     OW39349   2.598   9.101   7.333 -0.0997  0.3826 -0.2110
12739SOL    HW139350   2.652   9.170   7.372 -0.7644  1.2785 -0.8326
12739SOL    HW239351   2.661   9.035   7.304  0.4733  0.1304  1.4596
12740SOL     OW39352   3.410   5.348   4.607  0.5673 -0.4478  0.4395
12740SOL    HW139353   3.468   5.321   4.535  0.2440  0.8873 -0.3570
12740SOL    HW239354   3.443   5.435   4.633 -1.3464  0.6002 -0.3962
12741SOL     OW39355   0.537   5.039   8.437 -0.2869 -0.6346 -0.3543
12741SOL    HW139356   0.594   4.997   8.502 -0.0876 -0.0092 -0.1234
12741SOL    HW239357   0.477   5.093   8.489 -0.0115  0.0079 -0.6958
12742SOL     OW39358   1.219   0.672   1.660 -0.1674 -0.1347  0.3921
12742SOL    HW139359   1.156   0.682   1.731  0.2303 -0.9440  0.8635
12742SOL    HW239360   1.193   0.591   1.615  0.9472 -0.8613  1.0256
12743SOL     OW39361   2.995   1.214   7.253  0.8721  0.2766  0.1681
12743SOL    HW139362   3.038   1.142   7.299 -0.1892  0.1408  0.9931
12743SOL    HW239363   2.997   1.287   7.315  1.3957  0.7895 -0.4315
12744SOL     OW39364   4.806   4.171   4.182  0.4756  0.0693 -1.3031
12744SOL    HW139365   4.753   4.107   4.230  1.3847 -0.5053 -1.0462
12744SOL    HW239366   4.860   4.212   4.249 -0.3856  1.4322 -1.3995
12745SOL     OW39367   0.911   0.242   4.841 -0.3192  0.1347  0.6474
12745SOL    HW139368   0.875   0.156   4.820  1.6662 -1.1765  2.2357
12745SOL    HW239369   0.998   0.242   4.802 -0.7403  1.9770 -0.4252
12746SOL     OW39370   3.207   6.248   6.482 -0.5157  0.8159  0.0313
12746SOL    HW139371   3.194   6.224   6.390 -0.6286  0.2593  0.1916
12746SOL    HW239372   3.162   6.332   6.491  0.0672  1.2048 -0.5842
12747SOL     OW39373   6.896   1.443   2.290 -0.2806 -0.1858 -0.1496
12747SOL    HW139374   6.972   1.386   2.290 -0.1756 -0.0810 -1.7792
12747SOL    HW239375   6.927   1.525   2.329 -0.7154 -1.4683  3.3044
12748SOL     OW39376   8.024   7.510   6.754  0.6538 -0.2347  0.7140
12748SOL    HW139377   8.108   7.555   6.741  1.3244 -1.6540 -0.1373
12748SOL    HW239378   7.989   7.547   6.835  1.1391  1.8048  0.0593
12749SOL     OW39379   6.882   5.678   0.755  0.4236  0.1128  0.6735
12749SOL    HW139380   6.789   5.657   0.747  0.3048  1.0099 -0.5969
12749SOL    HW239381   6.927   5.601   0.721  0.0022  1.5270 -3.7468
12750SOL     OW39382   7.665   9.016   3.517 -0.0767 -0.2186  0.3849
12750SOL    HW139383   7.687   9.030   3.609  1.5079 -0.3496  0.0641
12750SOL    HW239384   7.728   8.950   3.488  0.9065  1.3793 -1.3287
12751SOL     OW39385   0.609   5.624   6.811 -0.2906  0.2124  0.0268
12751SOL    HW139386   0.647   5.539   6.787  1.2150  0.2704  1.9452
12751SOL    HW239387   0.526   5.601   6.852  0.5304 -0.4761  1.3928
12752SOL     OW39388   7.585   6.974   5.240  0.1082  0.1928 -0.0970
12752SOL    HW139389   7.510   7.007   5.191  0.1429  2.1192  1.0605
12752SOL    HW239390   7.661   7.006   5.192  0.3110 -2.3534 -1.6792
12753SOL     OW39391   2.932   7.587   8.760  0.0231 -0.3395  0.4236
12753SOL    HW139392   2.931   7.678   8.732 -2.5115 -0.2853  0.4318
12753SOL    HW239393   3.008   7.580   8.818  0.5452  1.6227  0.0314
12754SOL     OW39394   8.369   1.977   4.100 -0.3161  0.5799 -0.1563
12754SOL    HW139395   8.377   1.929   4.182 -0.7702  0.5552 -0.1246
12754SOL    HW239396   8.331   2.062   4.125  0.5512  0.9854 -0.2014
12755SOL     OW39397   3.835   6.332   7.023  0.1834 -0.1349 -0.1502
12755SOL    HW139398   3.821   6.421   7.054 -1.6634 -0.9204  1.4837
12755SOL    HW239399   3.769   6.280   7.069  3.8166 -3.0600  2.3417
12756SOL     OW39400   0.459   8.634   1.734  0.0007 -0.5322 -0.0456
12756SOL    HW139401   0.372   8.602   1.712  0.5966 -1.5720 -0.9519
12756SOL    HW239402   0.473   8.708   1.675 -0.6185  0.2331  0.7410
12757SOL     OW39403   0.022   9.117   4.296  0.3724  0.2214  0.1085
12757SOL    HW139404  -0.031   9.174   4.240 -1.2076 -1.2437  0.0223
12757SOL    HW239405  -0.015   9.130   4.384 -1.0153 -1.6760 -0.1268
12758SOL     OW39406   6.694   1.109   7.399  0.1859  0.3171 -0.1490
12758SOL    HW139407   6.643   1.067   7.467 -0.5516  3.4394  1.4030
12758SOL    HW239408   6.629   1.139   7.335  0.2566  2.2054  0.6181
12759SOL     OW39409   7.233   3.683   6.550  0.0349 -0.0497  0.8538
12759SOL    HW139410   7.257   3.763   6.596 -0.6065  1.0984 -0.6972
12759SOL    HW239411   7.295   3.677   6.478 -1.9002  0.9635 -1.0342
12760SOL     OW39412   7.203   5.197   7.451 -0.1624 -0.0212  0.9537
12760SOL    HW139413   7.246   5.177   7.534  1.8981 -0.9000 -0.2439
12760SOL    HW239414   7.193   5.292   7.451 -1.2870 -0.0906  2.6663
12761SOL     OW39415   3.772   1.786   8.099 -0.1888 -0.2012 -0.0178
12761SOL    HW139416   3.740   1.777   8.189 -1.3455 -1.6446 -0.5364
12761SOL    HW239417   3.796   1.697   8.073  0.1054  0.1927 -1.1461
12762SOL     OW39418   4.216   2.030   0.043 -0.0594 -0.0333  0.6200
12762SOL    HW139419   4.144   1.971   0.020 -0.6698  1.1033 -0.4988
12762SOL    HW239420   4.188   2.073   0.124 -0.2343 -0.2394  0.6692
12763SOL     OW39421   4.683   4.278   1.809 -0.2751 -0.2409 -0.0709
12763SOL    HW139422   4.598   4.247   1.841  0.0576  0.1999  1.2983
12763SOL    HW239423   4.667   4.368   1.781 -0.9386 -1.1229 -2.7992
12764SOL     OW39424   8.935   2.987   2.532 -0.0480 -0.3152  0.0221
12764SOL    HW139425   8.893   3.005   2.616 -0.5199 -0.8782 -0.0860
12764SOL    HW239426   8.996   2.916   2.551  0.0060 -0.2923 -0.0654
12765SOL     OW39427   6.200   6.790   6.422 -0.0441 -0.2195  0.3115
12765SOL    HW139428   6.116   6.764   6.384 -0.0235 -1.9326  1.3224
12765SOL    HW239429   6.196   6.758   6.512  1.2284  0.7596  0.7415
12766SOL     OW39430   0.616   7.633   5.639  0.1247 -0.1368  0.0173
12766SOL    HW139431   0.576   7.568   5.697  0.6691  0.2547  0.8490
12766SOL    HW239432   0.605   7.716   5.684 -1.8892  0.6341 -1.7186
12767SOL     OW39433   2.602   6.659   4.325  0.1433 -0.5809 -0.0967
12767SOL    HW139434   2.589   6.691   4.236  0.4209 -1.9396 -0.6464
12767SOL    HW239435   2.616   6.565   4.315  1.3734 -0.5788  1.2723
12768SOL     OW39436   8.132   7.431   3.212  0.3594  0.1312  0.0253
12768SOL    HW139437   8.106   7.483   3.136  1.3792  0.1239 -0.3479
12768SOL    HW239438   8.213   7.472   3.242  0.9788 -0.9919 -0.0457
12769SOL     OW39439   5.377   1.288   0.801  0.3287  0.0051  0.6737
12769SOL    HW139440   5.346   1.198   0.792  0.3748  0.1354 -1.2284
12769SOL    HW239441   5.322   1.338   0.740  0.7121  1.1633  1.2533
12770SOL     OW39442   3.849   2.423   4.022 -0.2140 -0.1317  0.0711
12770SOL    HW139443   3.867   2.331   4.036 -2.6141 -0.8453 -0.9184
12770SOL    HW239444   3.846   2.433   3.927 -0.2125  0.9255  0.1608
12771SOL     OW39445   6.609   3.551   7.385  0.4885  0.2914 -0.5733
12771SOL    HW139446   6.519   3.537   7.413  0.6664  1.2826  0.5536
12771SOL    HW239447   6.601   3.600   7.303  0.0008  0.3339 -0.5042
12772SOL     OW39448   4.071   6.920   4.480  0.1024 -0.1862  0.2732
12772SOL    HW139449   4.073   6.992   4.416  3.8189  0.8105  1.2725
12772SOL    HW239450   4.000   6.943   4.540  1.2191  2.8105  0.6123
12773SOL     OW39451   4.037   4.284   9.050  0.6285 -0.5130 -0.6212
12773SOL    HW139452   3.966   4.305   8.989 -0.9086 -1.9476  0.5880
12773SOL    HW239453   4.011   4.324   9.132  1.7289 -0.2240 -0.4023
12774SOL     OW39454   1.186   2.702   3.018  0.2618  0.5238  0.5895
12774SOL    HW139455   1.154   2.645   2.949 -0.0870  1.1990  0.1779
12774SOL    HW239456   1.140   2.674   3.097  1.2800 -0.8036  0.7410
12775SOL     OW39457   3.777   4.061   2.488 -0.2860 -0.1448 -0.3233
12775SOL    HW139458   3.728   4.142   2.477  0.0731  0.0220 -0.7421
12775SOL    HW239459   3.831   4.055   2.408  1.3876  0.3744  0.7111
12776SOL     OW39460   6.662   4.637   0.344 -0.4879 -0.2888 -0.1165
12776SOL    HW139461   6.715   4.587   0.281 -1.3329 -0.7447 -0.4757
12776SOL    HW239462   6.711   4.631   0.426  0.2123 -0.3803 -0.5335
12777SOL     OW39463   3.356   1.940   5.650  0.5917 -0.9582  0.1609
12777SOL    HW139464   3.441   1.926   5.607  1.2191 -0.1535  1.1125
12777SOL    HW239465   3.378   1.978   5.734 -0.8220  1.8356 -0.6235
12778SOL     OW39466   5.975   2.843   2.025  0.1959 -0.7218 -0.0909
12778SOL    HW139467   6.007   2.754   2.039 -0.8454 -1.1223 -0.2047
12778SOL    HW239468   5.887   2.844   2.063  0.8784  0.7965  1.6079
12779SOL     OW39469   7.121   1.654   2.420  0.0977  0.1149 -0.2890
12779SOL    HW139470   7.068   1.696   2.488  0.8148 -0.2681  0.5208
12779SOL    HW239471   7.137   1.724   2.356 -1.0540  0.3319 -0.3636
12780SOL     OW39472   2.730   7.870   1.368  0.2183  0.4386 -0.1463
12780SOL    HW139473   2.722   7.920   1.286  0.3184  0.5230 -0.1038
12780SOL    HW239474   2.809   7.903   1.409  0.2146  0.3350 -0.0555
12781SOL     OW39475   8.806   6.638   5.083  0.5343  0.1633 -0.6722
12781SOL    HW139476   8.743   6.704   5.054  1.7989  0.4450 -3.0995
12781SOL    HW239477   8.860   6.683   5.148 -0.7159  0.4300  0.1985
12782SOL     OW39478   7.252   3.776   4.012 -0.4268 -0.4844  0.6152
12782SOL    HW139479   7.292   3.775   4.099 -0.1314 -1.2459  0.4741
12782SOL    HW239480   7.319   3.812   3.955 -0.1263 -1.2654  0.4698
12783SOL     OW39481   5.922   5.037   0.037  0.0325  0.5946  0.8473
12783SOL    HW139482   5.961   4.976  -0.025 -1.1461 -0.2262  0.8965
12783SOL    HW239483   5.973   5.118   0.026 -0.1504  0.4751 -1.1876
12784SOL     OW39484   3.490   5.703   4.077 -0.2593 -0.6813 -0.1956
12784SOL    HW139485   3.470   5.764   4.149 -1.5395 -0.9524 -0.2961
12784SOL    HW239486   3.572   5.663   4.103 -0.6840 -0.7566  1.1315
12785SOL     OW39487   7.179   8.637   3.446  0.3069  0.8142  0.1694
12785SOL    HW139488   7.158   8.716   3.496 -2.1320  0.7987 -0.7181
12785SOL    HW239489   7.125   8.643   3.367  2.3572 -0.2715 -1.4376
12786SOL     OW39490   2.914   8.584   4.072 -0.1219  0.1114 -0.0385
12786SOL    HW139491   2.857   8.546   4.138 -0.1826 -1.3944 -0.9053
12786SOL    HW239492   2.864   8.577   3.990  1.3856 -1.5634 -0.8781
12787SOL     OW39493   7.966   6.308   1.599  0.0348 -0.0675  0.1364
12787SOL    HW139494   7.979   6.350   1.683 -1.1717 -0.1934  0.4013
12787SOL    HW239495   8.020   6.229   1.603  1.9779  1.1891 -0.2079
12788SOL     OW39496   3.230   8.098   3.503 -0.0995 -0.0846  0.1446
12788SOL    HW139497   3.320   8.080   3.531 -0.3707 -0.2348  0.9478
12788SOL    HW239498   3.197   8.162   3.566 -1.2587 -1.6506  1.2311
12789SOL     OW39499   4.401   8.157   5.231 -0.1310  0.5099  0.3261
12789SOL    HW139500   4.329   8.213   5.262 -1.9263 -0.9142 -1.0353
12789SOL    HW239501   4.401   8.169   5.136  0.3883 -0.7287  0.1564
12790SOL     OW39502   9.061   0.974   0.699  0.1834 -0.4227 -0.4066
12790SOL    HW139503   9.153   0.951   0.684  1.0609  1.9758  0.7997
12790SOL    HW239504   9.040   0.935   0.783 -0.0809 -1.3385 -0.8796
12791SOL     OW39505   8.900   3.365   7.839  0.0649  0.1463 -0.8309
12791SOL    HW139506   8.995   3.368   7.842  0.3327 -2.5554 -2.8375
12791SOL    HW239507   8.879   3.273   7.822 -2.9216  0.6170 -0.3658
12792SOL     OW39508   2.671   0.483   2.862 -0.3584 -0.3207  0.9233
12792SOL    HW139509   2.723   0.413   2.823  0.2108  1.2491 -1.3276
12792SOL    HW239510   2.735   0.545   2.897 -0.8583 -1.0328  3.3411
12793SOL     OW39511   0.488   3.120   1.380  0.4686  0.6406 -0.1842
12793SOL    HW139512   0.482   3.055   1.310  1.1670  1.6524 -1.2029
12793SOL    HW239513   0.569   3.097   1.426 -0.2781 -0.3678  0.6737
12794SOL     OW39514   7.337   5.545   0.641 -0.4419 -0.1220  0.0222
12794SOL    HW139515   7.411   5.485   0.652 -1.1227 -0.7289  1.4289
12794SOL    HW239516   7.268   5.491   0.601 -0.4318  0.2214 -0.4706
12795SOL     OW39517   2.395   4.582   3.405 -0.5565  0.0504  0.2202
12795SOL    HW139518   2.453   4.624   3.468 -1.1882  0.3575  0.6039
12795SOL    HW239519   2.348   4.516   3.457 -0.6054 -0.1474 -0.0740
12796SOL     OW39520   5.323   0.614   2.203  0.5998  0.5123  0.0489
12796SOL    HW139521   5.270   0.690   2.179  2.0381  1.4597 -0.2706
12796SOL    HW239522   5.413   0.646   2.198  1.2327 -1.2175 -0.0514
12797SOL     OW39523   7.292   7.449   0.390  0.2556 -1.1040  0.1920
12797SOL    HW139524   7.245   7.510   0.333  1.5543 -1.2831 -1.1305
12797SOL    HW239525   7.228   7.381   0.410 -1.6633  1.2604  2.7954
12798SOL     OW39526   4.598   4.118   3.528 -0.2259 -0.2438 -0.3871
12798SOL    HW139527   4.549   4.119   3.610  0.5436 -0.8779  0.1064
12798SOL    HW239528   4.633   4.029   3.523  0.3377  0.0071 -1.0365
12799SOL     OW39529   0.864   7.673   8.352  0.0719  0.2903  0.0797
12799SOL    HW139530   0.798   7.739   8.373 -1.9381 -1.7341  0.4693
12799SOL    HW239531   0.880   7.686   8.258 -0.7260  0.9522  0.0160
12800SOL     OW39532   4.223   2.053   1.616 -0.2849  0.2725 -0.0176
12800SOL    HW139533   4.181   1.968   1.629  2.3239 -0.7740  2.4448
12800SOL    HW239534   4.304   2.034   1.569  0.0075  1.5098 -0.0589
12801SOL     OW39535   6.359   8.991   3.036  0.2043  0.5412 -0.3381
12801SOL    HW139536   6.432   8.946   2.993  1.2771  1.5830  0.3324
12801SOL    HW239537   6.314   8.923   3.085  0.3411 -0.2327 -1.2495
12802SOL     OW39538   0.746   6.483   4.563 -0.3455  0.0803 -0.2133
12802SOL    HW139539   0.766   6.521   4.649 -1.4033 -1.5722  0.8077
12802SOL    HW239540   0.651   6.484   4.558 -0.3023 -0.0012 -1.3090
12803SOL     OW39541   1.363   0.719   6.213 -0.3311  0.1333  0.6802
12803SOL    HW139542   1.398   0.742   6.299  0.1460 -0.0759  0.5426
12803SOL    HW239543   1.367   0.623   6.211  1.5161  0.1820 -0.3387
12804SOL     OW39544   8.725   7.079   3.555  0.1170 -0.2986 -0.1279
12804SOL    HW139545   8.814   7.058   3.583  0.5304  1.1125 -0.3477
12804SOL    HW239546   8.688   7.129   3.628 -1.0267 -2.0904  0.5945
12805SOL     OW39547   4.480   7.239   6.939  0.0804 -0.4346 -0.2697
12805SOL    HW139548   4.559   7.278   6.978 -0.4507 -0.0336  0.4384
12805SOL    HW239549   4.513   7.184   6.868  1.1131 -1.2657  0.7999
12806SOL     OW39550   6.909   2.459   7.837 -0.2614  0.3328  0.8661
12806SOL    HW139551   6.927   2.550   7.815  0.3541  0.0483  0.1759
12806SOL    HW239552   6.996   2.419   7.848 -0.2939 -1.1803 -2.9862
12807SOL     OW39553   0.662   1.866   5.343 -0.0773  0.6928  0.1471
12807SOL    HW139554   0.576   1.893   5.375 -0.9698 -1.3079 -0.3889
12807SOL    HW239555   0.643   1.823   5.259  1.3323 -0.5656  0.4384
12808SOL     OW39556   6.637   3.668   8.453  0.1309  0.0214 -0.4165
12808SOL    HW139557   6.586   3.639   8.377 -1.4974 -0.8817  0.9568
12808SOL    HW239558   6.713   3.609   8.455 -0.9866 -1.4815 -0.0822
12809SOL     OW39559   7.134   6.271   4.027 -0.5196  0.3078  0.2547
12809SOL    HW139560   7.050   6.300   4.063 -0.5078 -0.4921  0.9484
12809SOL    HW239561   7.121   6.272   3.932 -1.2425  0.3868  0.3474
12810SOL     OW39562   8.673   6.645   0.923 -0.0264 -0.1645  0.1764
12810SOL    HW139563   8.593   6.694   0.939  0.0741  0.7264 -1.6925
12810SOL    HW239564   8.649   6.582   0.854  0.7669 -0.1367 -0.1413
12811SOL     OW39565   0.610   8.243   1.264 -0.1221 -0.1715  0.2896
12811SOL    HW139566   0.701   8.218   1.255 -0.1525  0.1493 -1.1153
12811SOL    HW239567   0.567   8.165   1.300  0.7360 -0.2125  1.2852
12812SOL     OW39568   0.124   4.045   4.582 -0.0521  0.1197 -0.4139
12812SOL    HW139569   0.153   4.127   4.543  1.5832 -0.3028 -0.1765
12812SOL    HW239570   0.177   4.037   4.662 -2.5010  0.4267  1.3622
12813SOL     OW39571   3.732   7.857   6.586 -0.0746  0.2884 -0.2107
12813SOL    HW139572   3.824   7.855   6.559  0.0621  0.0808  0.2469
12813SOL    HW239573   3.721   7.778   6.639 -0.7846 -0.2183 -1.0842
12814SOL     OW39574   6.695   6.915   7.541  0.1652 -0.3886  0.1212
12814SOL    HW139575   6.648   6.975   7.599 -0.1863 -2.3575  2.0443
12814SOL    HW239576   6.650   6.922   7.457 -0.1708  1.6170  0.4326
12815SOL     OW39577   2.262   6.389   8.574 -0.4313  0.3948  0.0826
12815SOL    HW139578   2.179   6.416   8.613 -0.0024 -0.5892  1.7856
12815SOL    HW239579   2.312   6.471   8.565 -0.8191  0.7332  0.9352
12816SOL     OW39580   1.683   7.468   8.226  0.2282  0.0839  0.4790
12816SOL    HW139581   1.638   7.524   8.163  0.3324 -1.7007 -1.2659
12816SOL    HW239582   1.615   7.446   8.290 -0.0552  1.3766  0.6503
12817SOL     OW39583   1.354   4.392   2.832  0.0066  0.2501 -0.4749
12817SOL    HW139584   1.280   4.432   2.786  0.0131  0.8525  0.0144
12817SOL    HW239585   1.424   4.387   2.767 -0.1583  0.5791 -0.6807
12818SOL     OW39586   1.684   1.050   7.064  0.5818 -0.6583 -0.0682
12818SOL    HW139587   1.669   0.982   6.998 -0.5394 -0.5766  0.0826
12818SOL    HW239588   1.768   1.088   7.041  0.1031 -0.4841 -1.5874
12819SOL     OW39589   5.070   1.201   8.352 -0.0008  0.1439  0.5854
12819SOL    HW139590   5.035   1.113   8.341 -0.1163  0.0819  1.4520
12819SOL    HW239591   5.151   1.189   8.401  0.2453  0.4755  0.2688
12820SOL     OW39592   5.906   4.514   3.641 -0.1491  0.2165 -0.0441
12820SOL    HW139593   5.934   4.508   3.733 -0.3034 -0.5257 -0.0349
12820SOL    HW239594   5.818   4.553   3.645 -0.1866  0.1161  0.1325
12821SOL     OW39595   0.444   2.623   5.872  0.4253 -0.1705 -0.0053
12821SOL    HW139596   0.436   2.528   5.865  1.8811 -0.2095 -1.6374
12821SOL    HW239597   0.535   2.638   5.896  0.3826  0.8502 -0.4393
12822SOL     OW39598   6.272   0.193   1.254 -0.4435  0.5618  0.0285
12822SOL    HW139599   6.217   0.268   1.279 -0.0897 -0.2120  3.6207
12822SOL    HW239600   6.356   0.209   1.297  0.1238 -1.2013 -0.3433
12823SOL     OW39601   1.748   3.722   2.369 -0.0686  0.5417  0.1210
12823SOL    HW139602   1.774   3.657   2.304  1.0916  1.0178  0.0844
12823SOL    HW239603   1.726   3.800   2.318 -0.7694  0.4133  0.2105
12824SOL     OW39604   0.464   6.901   3.744  0.1140 -0.4492 -0.3237
12824SOL    HW139605   0.496   6.910   3.655  1.0827  1.2307  0.1400
12824SOL    HW239606   0.502   6.819   3.776  3.7080  1.1663  0.0124
12825SOL     OW39607   3.078   7.666   2.187  0.0838 -0.2196  0.2819
12825SOL    HW139608   3.043   7.745   2.145 -0.3555 -0.7015 -0.2836
12825SOL    HW239609   3.128   7.698   2.262  0.9289  0.6682 -0.6355
12826SOL     OW39610   8.879   1.979   8.328 -0.1265  0.3658 -0.1568
12826SOL    HW139611   8.968   2.013   8.336 -0.5624  1.4418  0.4432
12826SOL    HW239612   8.889   1.886   8.310  1.1415  0.7637 -1.7067
12827SOL     OW39613   1.952   5.420   2.065 -0.0676  0.0219 -0.3617
12827SOL    HW139614   1.879   5.359   2.055 -0.0851 -0.0764  0.3707
12827SOL    HW239615   1.949   5.449   2.156  0.0268  1.0136 -0.6500
12828SOL     OW39616   4.257   0.351   1.169  0.2718 -0.0752  0.1384
12828SOL    HW139617   4.225   0.261   1.180  0.3180 -0.2234 -0.8656
12828SOL    HW239618   4.351   0.341   1.158  0.4879  0.2333  1.4914
12829SOL     OW39619   7.404   7.420   6.261 -0.0607  0.1667 -0.1282
12829SOL    HW139620   7.322   7.452   6.300  0.1721 -0.5514  1.0197
12829SOL    HW239621   7.386   7.329   6.239  0.7083 -0.2955  1.0556
12830SOL     OW39622   9.074   6.306   7.516  0.0773 -0.9053  0.0999
12830SOL    HW139623   9.122   6.305   7.599 -0.2751  0.1130  0.3323
12830SOL    HW239624   8.984   6.289   7.540  0.1003 -1.4293 -0.1760
12831SOL     OW39625   1.853   0.716   2.032 -0.1586  0.5240 -0.2887
12831SOL    HW139626   1.926   0.768   1.997  1.7032 -0.4225  1.9261
12831SOL    HW239627   1.888   0.627   2.037 -1.6788 -0.0644  0.3315
12832SOL     OW39628   7.337   7.409   6.911 -0.0764  0.2346  0.0579
12832SOL    HW139629   7.361   7.430   6.821  0.1474  0.2734  0.1261
12832SOL    HW239630   7.413   7.434   6.963  0.3105 -0.9632  0.1176
12833SOL     OW39631   8.759   4.304   0.311 -0.0473  0.0445 -0.4122
12833SOL    HW139632   8.830   4.249   0.279 -0.2830  0.3413 -1.4718
12833SOL    HW239633   8.777   4.391   0.275 -0.8496  0.1671 -0.5493
12834SOL     OW39634   8.635   7.847   7.159  0.3418 -0.1202 -0.9047
12834SOL    HW139635   8.579   7.924   7.170  1.3589  0.6662 -1.1543
12834SOL    HW239636   8.685   7.865   7.080 -1.1671 -2.1485 -2.4604
12835SOL     OW39637   0.931   7.885   0.770 -0.7008 -0.1651  0.4740
12835SOL    HW139638   0.851   7.912   0.726  0.1716  1.5053 -0.2113
12835SOL    HW239639   0.999   7.895   0.704  0.0020 -2.1970  0.8366
12836SOL     OW39640   3.620   6.522   3.159  0.2526  0.2745 -0.4882
12836SOL    HW139641   3.554   6.471   3.112 -0.0808 -0.3928  0.6818
12836SOL    HW239642   3.702   6.501   3.114  0.0134 -0.7513 -0.4666
12837SOL     OW39643   9.038   8.416   7.036  0.1716 -0.1678  0.1009
12837SOL    HW139644   9.011   8.477   7.104 -1.2513  0.7932 -1.2543
12837SOL    HW239645   9.019   8.462   6.954  2.9603 -0.7870 -0.9949
12838SOL     OW39646   0.288   0.997   6.660 -0.4259  0.4544  0.0319
12838SOL    HW139647   0.278   1.043   6.743  1.1336  0.4647  0.2392
12838SOL    HW239648   0.382   0.979   6.653  0.0370  3.0264 -3.0443
12839SOL     OW39649   4.917   1.174   3.886 -0.1125 -0.5066 -0.2481
12839SOL    HW139650   4.910   1.145   3.795 -0.7509 -0.5072 -0.2046
12839SOL    HW239651   4.975   1.250   3.883 -0.6754 -0.0869 -0.7586
12840SOL     OW39652   8.273   1.687   2.643 -0.2017  0.0340 -0.3320
12840SOL    HW139653   8.285   1.593   2.660  1.1655  0.1526 -0.5681
12840SOL    HW239654   8.193   1.709   2.690  0.0722 -1.0109  0.6699
12841SOL     OW39655   6.472   8.846   7.106 -0.1706 -0.7533 -0.2718
12841SOL    HW139656   6.497   8.938   7.100 -0.1251 -0.8210 -1.5215
12841SOL    HW239657   6.390   8.846   7.155  1.5657 -0.4180  2.8271
12842SOL     OW39658   0.114   3.609   2.049  0.1938 -0.1707  0.1472
12842SOL    HW139659   0.209   3.595   2.056  0.0699 -0.8223  0.5487
12842SOL    HW239660   0.085   3.622   2.139 -0.1764 -0.4949  0.0749
12843SOL     OW39661   6.851   3.905   4.941  0.3133 -0.2863 -0.0704
12843SOL    HW139662   6.921   3.933   5.000  1.0279 -1.4482 -0.3302
12843SOL    HW239663   6.893   3.901   4.855 -0.2056 -0.5266 -0.3130
12844SOL     OW39664   0.821   4.785   9.004 -0.3075  0.3564  0.0100
12844SOL    HW139665   0.775   4.849   8.949  0.3723  1.6892  0.9414
12844SOL    HW239666   0.777   4.789   9.088 -0.4284 -0.6203  0.0024
12845SOL     OW39667   7.488   3.161   4.501  0.5347 -0.6580  0.3628
12845SOL    HW139668   7.482   3.200   4.414  1.7585 -1.4054 -0.0810
12845SOL    HW239669   7.460   3.231   4.561  0.4625  0.1283 -0.5689
12846SOL     OW39670   8.188   3.545   8.611 -0.4071  0.5143  0.5851
12846SOL    HW139671   8.200   3.455   8.643 -0.5535  0.1411 -0.3776
12846SOL    HW239672   8.162   3.594   8.688 -0.0541 -0.2156  1.1874
12847SOL     OW39673   4.244   1.969   0.681 -0.4258  0.1065  0.2040
12847SOL    HW139674   4.260   1.877   0.661  0.2218  0.4584 -1.0007
12847SOL    HW239675   4.298   2.017   0.618  0.5227  1.3088  1.8765
12848SOL     OW39676   5.678   0.698   7.658  0.0150 -0.2422 -0.4022
12848SOL    HW139677   5.769   0.697   7.628  0.1849 -0.7688  0.1155
12848SOL    HW239678   5.684   0.682   7.752 -0.5657  0.5239 -0.2254
12849SOL     OW39679   4.156   8.752   8.475 -0.1176  0.2638 -0.1314
12849SOL    HW139680   4.232   8.720   8.523  0.9572  1.9826 -0.5728
12849SOL    HW239681   4.184   8.836   8.439 -1.8805  0.4444 -1.2382
12850SOL     OW39682   2.014   1.837   7.805 -0.3052  0.1108 -0.4369
12850SOL    HW139683   2.086   1.796   7.757 -0.0456  1.9981 -1.7345
12850SOL    HW239684   1.936   1.812   7.756 -0.4484 -0.8824  0.2493
12851SOL     OW39685   6.737   1.835   8.019 -0.2420 -0.5738 -0.2186
12851SOL    HW139686   6.762   1.765   7.959 -1.6210 -1.2656 -0.0336
12851SOL    HW239687   6.673   1.887   7.970 -2.3542 -1.8787  0.9945
12852SOL     OW39688   3.823   3.656   7.988  0.1002 -0.4376 -0.5343
12852SOL    HW139689   3.782   3.621   8.067 -0.2311  0.7017 -0.1916
12852SOL    HW239690   3.789   3.745   7.980 -2.9914 -1.6174 -4.0343
12853SOL     OW39691   6.487   7.853   1.949 -0.4810  0.2830  0.3418
12853SOL    HW139692   6.548   7.895   1.888 -0.4664 -0.2974 -0.0456
12853SOL    HW239693   6.410   7.910   1.948 -0.3014  0.5247  0.1316
12854SOL     OW39694   5.075   7.504   2.158 -0.3072 -0.5834  0.0393
12854SOL    HW139695   5.035   7.532   2.075 -2.3803 -1.6679  0.5984
12854SOL    HW239696   5.166   7.486   2.136 -0.8377 -0.9793 -2.0572
12855SOL     OW39697   7.573   5.707   7.305  0.0582  0.3776  0.2149
12855SOL    HW139698   7.653   5.696   7.357  0.8444 -0.8187 -1.1663
12855SOL    HW239699   7.569   5.801   7.287 -0.1902  0.8152  2.2899
12856SOL     OW39700   7.165   5.797   8.427 -0.5053 -0.2757  0.5755
12856SOL    HW139701   7.147   5.856   8.499  0.3836  1.3749 -0.4933
12856SOL    HW239702   7.260   5.786   8.428 -0.5203 -0.5381 -0.1134
12857SOL     OW39703   8.963   2.340   3.806 -0.0232  0.6845 -0.1850
12857SOL    HW139704   8.868   2.344   3.797 -0.1907  0.8888  1.4539
12857SOL    HW239705   8.992   2.431   3.800 -0.0097  0.6974  0.0699
12858SOL     OW39706   2.873   4.375   8.354  0.1563  0.0942 -0.6527
12858SOL    HW139707   2.927   4.322   8.412 -0.0131  0.7060  0.0738
12858SOL    HW239708   2.907   4.356   8.266 -0.4166 -1.8018 -0.5043
12859SOL     OW39709   4.036   1.429   9.033 -0.5709 -0.2258 -0.1456
12859SOL    HW139710   4.078   1.360   8.982  0.0299 -0.7209  0.9749
12859SOL    HW239711   3.943   1.417   9.020 -0.4785 -1.3648  0.1665
12860SOL     OW39712   1.030   3.477   8.577  0.4184  0.9642 -0.2180
12860SOL    HW139713   0.980   3.554   8.550  1.6928  2.1363  0.5928
12860SOL    HW239714   0.975   3.435   8.643  0.2187  1.8829  0.2161
12861SOL     OW39715   4.944   5.686   6.084 -0.7982  0.2264 -0.5131
12861SOL    HW139716   4.933   5.748   6.156  2.1579 -1.2469  1.4303
12861SOL    HW239717   4.859   5.682   6.042 -2.2777  2.2736  2.0033
12862SOL     OW39718   6.297   2.674   1.792 -0.1757 -0.3414 -0.1087
12862SOL    HW139719   6.374   2.632   1.754  1.0350  0.9569  0.7824
12862SOL    HW239720   6.251   2.604   1.839  1.4268 -0.8385  0.8053
12863SOL     OW39721   1.629   9.002   6.622  0.0516 -0.3199 -0.4885
12863SOL    HW139722   1.626   8.962   6.709 -1.7620  0.2214 -0.2581
12863SOL    HW239723   1.580   9.084   6.632 -0.3168 -0.3229 -2.0598
12864SOL     OW39724   1.568   3.085   8.068  0.3055  0.1600  0.3240
12864SOL    HW139725   1.659   3.114   8.076  0.5419 -0.9623  2.5294
12864SOL    HW239726   1.537   3.126   7.988  2.1545  2.1765  0.5385
12865SOL     OW39727   7.050   5.622   7.404 -0.1768  0.2003  0.2389
12865SOL    HW139728   6.955   5.634   7.416 -0.2255  1.2852 -0.9822
12865SOL    HW239729   7.058   5.548   7.344 -0.4775  2.1745 -2.4577
12866SOL     OW39730   2.103   0.471   6.278  0.1828  0.2268 -0.1616
12866SOL    HW139731   2.190   0.433   6.274  0.6814  1.3902 -3.9009
12866SOL    HW239732   2.115   0.555   6.321  1.7070  1.8110 -3.3176
12867SOL     OW39733   2.038   0.341   2.254 -0.5549 -0.4620 -0.3392
12867SOL    HW139734   2.095   0.266   2.268 -1.1358 -0.9972 -0.8156
12867SOL    HW239735   1.975   0.337   2.326 -0.0749  0.0747  0.1311
12868SOL     OW39736   0.105   7.980   6.363  0.4012 -0.3509 -0.3524
12868SOL    HW139737   0.108   7.991   6.268  1.4309 -0.6702 -0.3756
12868SOL    HW239738   0.156   7.900   6.379 -0.1792 -0.5688  0.4285
12869SOL     OW39739   2.688   8.427   5.447 -0.5903 -0.1516  0.1458
12869SOL    HW139740   2.631   8.483   5.394  0.9063  0.2362 -1.1302
12869SOL    HW239741   2.659   8.442   5.537 -1.0195  1.7647 -0.2710
12870SOL     OW39742   2.535   2.788   6.875 -0.5192  0.2750  0.1066
12870SOL    HW139743   2.549   2.879   6.849 -0.1050  0.5365  1.1796
12870SOL    HW239744   2.451   2.764   6.836 -0.2901  0.8844 -0.7769
12871SOL     OW39745   2.248   7.555   3.172 -0.3088 -0.5268 -0.6181
12871SOL    HW139746   2.291   7.493   3.113  0.2203  0.0023 -0.8063
12871SOL    HW239747   2.199   7.613   3.113 -0.1738 -0.2944 -0.5010
12872SOL     OW39748   2.875   6.083   7.190  0.7652  0.1104  0.2071
12872SOL    HW139749   2.899   6.154   7.130 -1.5155  0.3391 -0.5309
12872SOL    HW239750   2.904   6.003   7.145 -1.6338  0.2060 -1.7136
12873SOL     OW39751   5.171   0.079   8.453 -0.2252 -0.0929  0.3140
12873SOL    HW139752   5.233   0.124   8.510 -0.6108  0.3016  0.4205
12873SOL    HW239753   5.126   0.149   8.406  1.0495 -0.4264 -1.5028
12874SOL     OW39754   5.933   7.015   7.184  0.3480 -0.5499 -0.1157
12874SOL    HW139755   5.948   7.078   7.254  0.4088  0.8091 -1.2909
12874SOL    HW239756   5.866   7.056   7.129 -0.3065 -1.9617 -0.4071
12875SOL     OW39757   2.385   1.271   5.075 -0.3612  0.1105 -0.0459
12875SOL    HW139758   2.346   1.286   5.161  1.6877  1.0209  0.7981
12875SOL    HW239759   2.340   1.333   5.017  0.1499  1.5103  0.9956
12876SOL     OW39760   6.816   6.786   1.297  0.5642 -0.2921  0.3123
12876SOL    HW139761   6.890   6.751   1.247  0.2687 -0.5417  0.0402
12876SOL    HW239762   6.850   6.865   1.338  1.0526 -0.5318  0.3856
12877SOL     OW39763   2.820   0.645   5.314  0.1467  0.3680  0.0657
12877SOL    HW139764   2.856   0.586   5.380  0.5064  1.8717  1.2733
12877SOL    HW239765   2.893   0.702   5.291 -0.2337  0.4522 -0.9679
12878SOL     OW39766   1.881   5.318   7.736 -0.3227 -0.1183 -0.0818
12878SOL    HW139767   1.829   5.262   7.680 -0.0320  0.1763 -0.6555
12878SOL    HW239768   1.879   5.275   7.822 -1.0240 -0.4051 -0.2398
12879SOL     OW39769   4.878   8.503   1.984 -0.1466  0.0689  0.6088
12879SOL    HW139770   4.931   8.444   1.930 -0.6603  0.2078 -0.0693
12879SOL    HW239771   4.841   8.566   1.922  0.5101  1.2134  1.3349
12880SOL     OW39772   1.831   7.892   3.852 -0.1874 -0.4815 -0.1245
12880SOL    HW139773   1.902   7.925   3.797  1.2382 -0.8720  1.3669
12880SOL    HW239774   1.771   7.966   3.861  0.1074 -0.0827 -1.3053
12881SOL     OW39775   9.029   5.506   1.734  0.6737  0.0858 -0.5357
12881SOL    HW139776   9.040   5.413   1.717 -0.3383 -0.2877  0.6397
12881SOL    HW239777   9.034   5.513   1.830  0.8199  1.2450 -0.6152
12882SOL     OW39778   8.779   8.340   6.808 -0.0791 -0.4333  0.1109
12882SOL    HW139779   8.786   8.324   6.714 -1.6942  1.2654 -0.3668
12882SOL    HW239780   8.742   8.428   6.814  0.9848 -0.0888  2.3754
12883SOL     OW39781   8.758   5.323   4.878 -0.3672 -0.1878  0.4233
12883SOL    HW139782   8.795   5.314   4.966 -0.7984  0.6468  0.6968
12883SOL    HW239783   8.835   5.335   4.821 -0.1583  0.7420  0.8821
12884SOL     OW39784   6.673   7.055   0.552  0.0641  0.1159 -0.4486
12884SOL    HW139785   6.653   6.964   0.529  1.1429  0.1301 -1.5950
12884SOL    HW239786   6.615   7.075   0.625 -0.9261 -1.1633 -0.8427
12885SOL     OW39787   6.960   8.660   7.243 -0.0335  0.6163  0.3009
12885SOL    HW139788   6.888   8.598   7.259  1.2220 -0.7191  1.0092
12885SOL    HW239789   7.004   8.668   7.327  1.7011 -0.0020 -0.4868
12886SOL     OW39790   5.181   8.877   9.031 -0.5213  0.7821  0.2884
12886SOL    HW139791   5.203   8.795   9.074 -0.3367  1.5024  1.6373
12886SOL    HW239792   5.260   8.901   8.982 -0.4469  0.3449  0.1938
12887SOL     OW39793   6.588   1.287   3.282  0.3459 -0.4197  0.3313
12887SOL    HW139794   6.623   1.344   3.351 -1.3832  0.7223  0.3191
12887SOL    HW239795   6.562   1.207   3.328 -1.1591  0.4789  1.1221
12888SOL     OW39796   5.689   0.509   1.556  0.2538  0.0170  0.0105
12888SOL    HW139797   5.643   0.592   1.545 -0.6411 -0.5102 -0.3840
12888SOL    HW239798   5.639   0.447   1.504  1.3592 -0.6194 -0.3280
12889SOL     OW39799   1.781   8.383   2.989  0.0938  0.0221  0.5382
12889SOL    HW139800   1.789   8.458   2.931  1.1213 -1.0519 -0.7480
12889SOL    HW239801   1.722   8.414   3.059  0.6171  2.0529  0.1473
12890SOL     OW39802   8.874   8.630   7.213  0.3841 -0.2548 -0.2471
12890SOL    HW139803   8.863   8.549   7.262  0.2304 -0.9204 -1.3675
12890SOL    HW239804   8.969   8.645   7.213  0.6600 -1.6942 -1.9905
12891SOL     OW39805   2.427   2.682   3.826 -0.1375  0.2309 -0.0520
12891SOL    HW139806   2.442   2.592   3.854  1.4527  0.2307 -0.7734
12891SOL    HW239807   2.343   2.706   3.865 -0.8805 -1.7478 -0.3221
12892SOL     OW39808   7.112   7.249   5.944  0.2402 -0.3921 -0.4638
12892SOL    HW139809   7.092   7.159   5.917  0.7953 -0.5422 -0.3777
12892SOL    HW239810   7.190   7.241   5.999  0.6056  0.2012 -0.8887
12893SOL     OW39811   6.265   0.537   6.995 -0.0022  0.3102  0.7198
12893SOL    HW139812   6.288   0.453   7.034 -0.3652 -0.4032 -0.5218
12893SOL    HW239813   6.193   0.570   7.048 -0.9482 -0.9597  0.2615
12894SOL     OW39814   0.829   5.380   2.680 -0.6750 -0.1388 -0.3949
12894SOL    HW139815   0.808   5.354   2.770  0.8095 -0.7113 -0.1772
12894SOL    HW239816   0.830   5.298   2.631  2.2011 -0.4043 -0.0988
12895SOL     OW39817   6.420   3.409   6.609  0.5636 -0.4695  0.4010
12895SOL    HW139818   6.394   3.492   6.570 -1.3440 -0.0626  2.3193
12895SOL    HW239819   6.385   3.342   6.550  0.2382  0.0970 -0.0555
12896SOL     OW39820   4.328   6.443   7.276  0.1380 -0.3006 -0.4173
12896SOL    HW139821   4.250   6.439   7.332  0.7351 -0.1018  0.4451
12896SOL    HW239822   4.322   6.366   7.221 -1.0423  0.0857 -0.8566
12897SOL     OW39823   1.926   8.824   6.814  0.1008  0.2261 -0.6043
12897SOL    HW139824   1.946   8.877   6.891  2.2990 -2.8407  1.1658
12897SOL    HW239825   1.857   8.764   6.843  0.4957 -0.5463 -1.2110
12898SOL     OW39826   7.154   1.355   0.251 -0.1487  0.6590 -0.5422
12898SOL    HW139827   7.134   1.315   0.336 -0.5645 -2.3618 -1.9669
12898SOL    HW239828   7.082   1.416   0.237 -0.1182  1.1665  1.1989
12899SOL     OW39829   7.943   5.574   5.595  0.0928  0.3330 -0.3532
12899SOL    HW139830   8.000   5.627   5.539  1.5962 -0.6103  0.2044
12899SOL    HW239831   7.864   5.562   5.543  1.1647  0.0629 -2.0297
12900SOL     OW39832   8.899   8.543   8.374 -0.2522  0.3304  0.6946
12900SOL    HW139833   8.978   8.569   8.327  0.4765 -2.7356 -0.0284
12900SOL    HW239834   8.923   8.550   8.467  0.0477  1.5936  0.5308
12901SOL     OW39835   5.359   1.001   6.394  0.7099 -0.5044 -0.8007
12901SOL    HW139836   5.320   1.081   6.358 -0.2040 -0.2271  0.7149
12901SOL    HW239837   5.364   0.941   6.320 -0.8290  0.1376 -1.4580
12902SOL     OW39838   1.780   3.332   4.589 -0.0626 -0.0907 -0.2147
12902SOL    HW139839   1.839   3.342   4.514 -0.8614 -1.0418 -1.0071
12902SOL    HW239840   1.816   3.259   4.639 -0.1925 -0.2441 -0.3421
12903SOL     OW39841   3.192   2.136   4.532  0.1676 -0.0253 -0.0428
12903SOL    HW139842   3.268   2.180   4.569 -0.3396 -0.1410  1.1863
12903SOL    HW239843   3.145   2.205   4.485  0.5615  0.2407 -0.0501
12904SOL     OW39844   8.974   5.711   8.498  0.2324  0.4706  0.4923
12904SOL    HW139845   8.906   5.778   8.497  0.4976  0.7423  0.5951
12904SOL    HW239846   9.056   5.760   8.499  0.4798  0.1726 -1.5316
12905SOL     OW39847   3.326   3.913   0.600  0.1097 -0.2920  0.0263
12905SOL    HW139848   3.248   3.901   0.654  0.1886  0.8918  0.4328
12905SOL    HW239849   3.330   4.007   0.584  2.1974 -0.1223  1.1688
12906SOL     OW39850   6.076   1.278   6.499 -0.0174  0.2199  1.0469
12906SOL    HW139851   6.091   1.345   6.566 -0.7884  0.7802  0.6642
12906SOL    HW239852   5.997   1.232   6.528 -0.0041  0.0625  0.8379
12907SOL     OW39853   1.099   1.745   0.013  0.0043  0.3400  0.0114
12907SOL    HW139854   1.097   1.792   0.096  0.1699 -0.3636  0.4242
12907SOL    HW239855   1.180   1.773  -0.029  1.0565 -0.9272  1.0819
12908SOL     OW39856   1.023   2.759   5.222  0.0281 -0.1135 -0.4057
12908SOL    HW139857   0.936   2.779   5.257 -0.4727  0.0960 -1.6868
12908SOL    HW239858   1.030   2.664   5.230  0.4899  0.0403  1.4361
12909SOL     OW39859   0.727   5.833   8.722  0.0180  0.2779 -0.0753
12909SOL    HW139860   0.754   5.825   8.813  0.1571  1.8380  0.0548
12909SOL    HW239861   0.651   5.892   8.724  1.1788  1.9227 -1.0915
12910SOL     OW39862   2.866   6.042   4.658 -0.0490  0.3068 -0.3257
12910SOL    HW139863   2.821   5.961   4.632  0.4297  0.4711 -1.7829
12910SOL    HW239864   2.854   6.100   4.583 -1.3883  2.0433  1.1721
12911SOL     OW39865   8.635   0.706   1.106 -0.7604 -0.5805 -0.1924
12911SOL    HW139866   8.671   0.694   1.018  0.3235  0.1974  0.1218
12911SOL    HW239867   8.686   0.778   1.142 -2.9470  0.8526  0.1473
12912SOL     OW39868   6.399   6.481   4.274 -0.5496  0.6124  1.1090
12912SOL    HW139869   6.385   6.526   4.357 -1.3232 -0.7964  1.7746
12912SOL    HW239870   6.324   6.422   4.266 -0.5100  0.7531 -0.6213
12913SOL     OW39871   7.633   5.211   4.987  0.0008  0.3396  0.0860
12913SOL    HW139872   7.707   5.189   4.929  1.6289 -0.2454  2.2461
12913SOL    HW239873   7.639   5.306   4.998 -1.3640  0.7218 -1.9484
12914SOL     OW39874   1.292   3.021   7.312  0.1661 -0.3116  0.2706
12914SOL    HW139875   1.384   3.044   7.299 -0.6363  1.8599 -2.4638
12914SOL    HW239876   1.283   2.934   7.274  1.1994 -0.8764  1.2575
12915SOL     OW39877   3.911   0.682   8.369  0.0729  0.2525  0.0815
12915SOL    HW139878   3.829   0.697   8.415  0.9326  1.0195  1.4565
12915SOL    HW239879   3.979   0.709   8.432  1.4628 -1.9723 -0.3366
12916SOL     OW39880   2.803   7.509   4.832  0.3527  0.3172 -0.3333
12916SOL    HW139881   2.805   7.537   4.741 -0.1540 -1.0263 -0.7699
12916SOL    HW239882   2.726   7.452   4.839  0.7802 -0.1662  0.7614
12917SOL     OW39883   1.095   1.860   0.333  0.3072 -0.2005 -0.3363
12917SOL    HW139884   1.065   1.824   0.416 -0.3824  1.0884  0.0021
12917SOL    HW239885   1.087   1.955   0.343 -0.9048 -0.0358 -2.2747
12918SOL     OW39886   1.372   6.056   2.987  0.1220  0.2225  0.6183
12918SOL    HW139887   1.455   6.048   2.940 -0.6431  0.3093 -0.8047
12918SOL    HW239888   1.305   6.052   2.918 -1.0581  0.0984  1.7402
12919SOL     OW39889   5.591   6.418   2.209 -0.7080  0.0196 -0.4327
12919SOL    HW139890   5.597   6.363   2.287 -0.5844  0.9580  0.2422
12919SOL    HW239891   5.652   6.379   2.147 -1.5385 -1.3285 -0.4424
12920SOL     OW39892   5.671   4.464   1.023 -0.3351  0.3514 -0.2014
12920SOL    HW139893   5.578   4.442   1.018 -0.4778  0.0302  2.2619
12920SOL    HW239894   5.705   4.404   1.089  1.4531  1.0178 -0.4827
12921SOL     OW39895   8.425   2.308   4.528  0.3827 -0.1399 -0.2913
12921SOL    HW139896   8.390   2.396   4.518  2.0669  0.7907  1.4893
12921SOL    HW239897   8.484   2.296   4.453 -1.2118 -0.5370 -1.5612
12922SOL     OW39898   5.043   3.260   4.932 -0.5486  0.0083 -0.4115
12922SOL    HW139899   4.960   3.304   4.912 -0.2851  0.6478 -0.1352
12922SOL    HW239900   5.096   3.269   4.853  0.0717  1.5454  0.1435
12923SOL     OW39901   7.335   2.118   0.199 -0.1296 -0.7074  0.2873
12923SOL    HW139902   7.409   2.128   0.139 -0.3458  1.5441  0.2826
12923SOL    HW239903   7.262   2.159   0.154 -0.8306 -0.9193  1.2050
12924SOL     OW39904   3.174   3.907   3.403 -0.0246  0.5959  0.0894
12924SOL    HW139905   3.133   3.875   3.323  0.6092  0.4653 -0.1916
12924SOL    HW239906   3.232   3.977   3.374 -0.6546  1.3312  0.5786
12925SOL     OW39907   8.343   3.457   6.583  0.7757  0.2556 -0.3992
12925SOL    HW139908   8.412   3.476   6.647  2.1965  0.3599 -1.9014
12925SOL    HW239909   8.358   3.366   6.557 -0.9521 -0.4056  0.7435
12926SOL     OW39910   7.635   0.274   4.514  0.2381  0.1452  0.1862
12926SOL    HW139911   7.608   0.363   4.532  0.5688  0.0428  1.2213
12926SOL    HW239912   7.558   0.221   4.533  0.3863  0.1030  0.6815
12927SOL     OW39913   5.792   4.872   6.692 -0.4707 -0.7124 -0.6072
12927SOL    HW139914   5.798   4.802   6.757  1.2523  0.7436  0.9018
12927SOL    HW239915   5.702   4.904   6.700 -0.5421 -1.1266  0.4815
12928SOL     OW39916   5.336   1.815   5.492  0.0889 -0.0367  0.1720
12928SOL    HW139917   5.393   1.743   5.519 -1.1196 -1.1309 -0.1460
12928SOL    HW239918   5.347   1.881   5.561  0.7869 -0.7349  0.7550
12929SOL     OW39919   3.207   4.841   6.569 -0.2312 -0.0510  0.2956
12929SOL    HW139920   3.155   4.790   6.631  0.0121 -1.0620 -0.3022
12929SOL    HW239921   3.142   4.889   6.517 -0.5573 -0.8652 -0.0708
12930SOL     OW39922   0.903   3.000   7.428 -0.4259  0.2350 -0.0598
12930SOL    HW139923   0.965   2.987   7.356 -0.6703 -2.1710  0.0898
12930SOL    HW239924   0.932   2.939   7.496  0.7825  3.5204  2.7040
12931SOL     OW39925   3.273   3.765   4.037  0.2401 -0.4848  0.5042
12931SOL    HW139926   3.346   3.756   4.099  0.4235 -0.3000  0.3165
12931SOL    HW239927   3.254   3.859   4.037  1.1092 -0.2870 -0.7037
12932SOL     OW39928   1.303   1.186   7.023  0.2768 -0.0783  0.3948
12932SOL    HW139929   1.318   1.252   6.954 -0.8154  0.7808  0.9377
12932SOL    HW239930   1.208   1.172   7.022  0.1700  0.3252  2.0444
12933SOL     OW39931   6.756   8.433   7.564 -0.3170  0.3868 -0.1268
12933SOL    HW139932   6.798   8.464   7.483  0.9378  0.5322  0.5525
12933SOL    HW239933   6.683   8.379   7.534  1.2453 -1.1466 -1.4191
12934SOL     OW39934   4.277   6.524   4.039 -0.3781  0.0086  0.3836
12934SOL    HW139935   4.234   6.586   4.097 -0.9932 -0.7416  0.7376
12934SOL    HW239936   4.364   6.512   4.076 -0.4458  0.2502  0.6175
12935SOL     OW39937   0.094   1.442   6.313  0.0210 -0.5158 -0.0003
12935SOL    HW139938   0.064   1.499   6.384  1.6771  0.8812 -0.3597
12935SOL    HW239939   0.031   1.457   6.243 -0.1143  0.1514  0.2523
12936SOL     OW39940   5.314   6.524   4.798 -0.5491  0.0793 -0.0340
12936SOL    HW139941   5.406   6.522   4.771 -0.7745  0.1417 -0.8227
12936SOL    HW239942   5.316   6.564   4.885  0.3882 -1.8549  0.8972
12937SOL     OW39943   6.252   5.082   2.589  0.0058 -0.4213 -0.1237
12937SOL    HW139944   6.183   5.147   2.573  0.9658  0.7431  0.2457
12937SOL    HW239945   6.264   5.038   2.505 -0.6016 -0.0497 -0.4116
12938SOL     OW39946   5.617   4.341   1.662 -0.4825 -0.0752 -0.3144
12938SOL    HW139947   5.597   4.428   1.696 -0.9427  0.4836 -1.9060
12938SOL    HW239948   5.707   4.346   1.631  0.1606 -0.7759  1.3295
12939SOL     OW39949   4.562   8.843   7.711 -0.6519 -0.3149 -0.2165
12939SOL    HW139950   4.593   8.888   7.632 -1.6511 -1.3853 -1.2615
12939SOL    HW239951   4.594   8.897   7.783  0.3295  0.6800 -1.3381
12940SOL     OW39952   0.260   1.417   0.389 -0.2160 -0.0689  0.0611
12940SOL    HW139953   0.350   1.385   0.399  0.0267  0.6422  0.1630
12940SOL    HW239954   0.207   1.346   0.424  0.2444 -0.8976 -0.8482
12941SOL     OW39955   5.136   6.444   6.957  0.4441 -0.0478 -0.2695
12941SOL    HW139956   5.186   6.438   6.875  1.8464 -1.2935  0.6225
12941SOL    HW239957   5.191   6.401   7.022 -1.8453 -1.6567  0.7595
12942SOL     OW39958   0.558   5.290   1.326  0.5545 -0.5634 -0.1497
12942SOL    HW139959   0.556   5.269   1.420 -1.9226 -0.4668 -0.1070
12942SOL    HW239960   0.483   5.243   1.289  0.9902  0.0714 -1.9378
12943SOL     OW39961   1.452   4.713   5.712 -0.0273  0.3184  0.0553
12943SOL    HW139962   1.520   4.646   5.702 -1.0057 -0.6269 -0.4830
12943SOL    HW239963   1.434   4.715   5.807 -1.0283 -1.2928 -0.0612
12944SOL     OW39964   8.908   6.449   5.631 -0.1923  0.2296 -0.1993
12944SOL    HW139965   8.856   6.398   5.569  1.9133 -0.5605 -1.4286
12944SOL    HW239966   8.848   6.515   5.665 -2.1835 -1.1661 -0.8818
12945SOL     OW39967   5.461   5.940   8.246 -0.5480  0.3430 -0.3319
12945SOL    HW139968   5.407   5.862   8.256  1.4468 -1.2459 -1.2252
12945SOL    HW239969   5.415   5.993   8.181 -1.7163 -0.2794 -0.0449
12946SOL     OW39970   3.687   7.463   4.833 -0.5819  0.5872  0.2840
12946SOL    HW139971   3.633   7.386   4.819 -0.1701  0.2522  0.4984
12946SOL    HW239972   3.694   7.472   4.928 -1.8149  1.7501  0.3029
12947SOL     OW39973   7.560   6.495   4.576 -0.3368 -0.0747  0.0680
12947SOL    HW139974   7.552   6.578   4.622 -1.9384 -0.1369 -0.0521
12947SOL    HW239975   7.496   6.501   4.504 -2.2423 -2.2849  1.4328
12948SOL     OW39976   1.633   4.467   3.788  0.5104 -0.2082 -0.1774
12948SOL    HW139977   1.563   4.533   3.796  1.8139  0.9673  3.2912
12948SOL    HW239978   1.605   4.395   3.844 -0.2571 -2.2247 -2.9052
12949SOL     OW39979   5.158   1.024   0.519  0.1194 -0.1697  0.6848
12949SOL    HW139980   5.064   1.035   0.500  0.3862 -1.3929 -1.7825
12949SOL    HW239981   5.200   1.099   0.478  0.3759 -0.7542 -0.1482
12950SOL     OW39982   8.013   3.870   1.616 -0.1845  0.5705 -0.2194
12950SOL    HW139983   8.100   3.911   1.615 -0.4175  1.0692 -1.2530
12950SOL    HW239984   7.958   3.931   1.666  0.1740 -0.0316  0.9481
12951SOL     OW39985   8.414   5.634   7.686  0.1685  0.5432 -0.3983
12951SOL    HW139986   8.464   5.561   7.721  1.2829  1.1307 -0.7091
12951SOL    HW239987   8.480   5.702   7.669 -0.7071  1.2532 -1.0481
12952SOL     OW39988   6.946   6.219   2.783  0.3597 -0.0111 -0.2010
12952SOL    HW139989   6.922   6.297   2.833 -0.0483 -0.3439  0.1304
12952SOL    HW239990   6.886   6.219   2.709  0.2928 -0.0662 -0.1465
12953SOL     OW39991   2.084   0.874   7.431  0.2036 -0.2146 -0.1646
12953SOL    HW139992   1.990   0.883   7.417  0.3909  1.3489 -0.6109
12953SOL    HW239993   2.115   0.964   7.444  1.9259 -0.4708 -1.9499
12954SOL     OW39994   6.834   6.805   8.385  0.0985 -0.4419  0.3097
12954SOL    HW139995   6.788   6.764   8.312 -1.4776 -1.6334  1.9115
12954SOL    HW239996   6.925   6.777   8.375 -0.4470 -2.1527 -0.1586
12955SOL     OW39997   3.961   6.200   7.440  0.1107  0.2462  0.0688
12955SOL    HW139998   3.983   6.111   7.468 -1.4686 -0.8067 -1.7574
12955SOL    HW239999   3.865   6.199   7.433  0.1790  1.5619 -1.6052
12956SOL     OW40000   3.504   0.281   2.265  0.0106 -0.3774  0.1443
12956SOL    HW140001   3.509   0.376   2.266  1.9188 -0.4252 -1.0190
12956SOL    HW240002   3.411   0.263   2.249 -0.4472  1.2477  0.7074
12957SOL     OW40003   4.895   4.229   1.201  0.0397 -0.0477 -0.0336
12957SOL    HW140004   4.951   4.291   1.153 -1.2705  0.7837 -0.5361
12957SOL    HW240005   4.884   4.268   1.287  0.3463 -0.2994  0.1251
12958SOL     OW40006   0.238   7.536   3.495 -0.3219  0.1086  0.1765
12958SOL    HW140007   0.311   7.539   3.557  0.1087 -0.2050 -0.3060
12958SOL    HW240008   0.192   7.619   3.509 -1.3391 -0.7300  2.2175
12959SOL     OW40009   7.391   4.429   2.155 -0.1677  0.4655  0.3861
12959SOL    HW140010   7.367   4.472   2.073  0.4751  1.9635  0.9530
12959SOL    HW240011   7.474   4.385   2.136  1.0453  2.4727  0.7056
12960SOL     OW40012   2.531   1.104   6.655 -0.1545  0.2450  0.5080
12960SOL    HW140013   2.527   1.178   6.715  0.1260  0.4296  0.3010
12960SOL    HW240014   2.620   1.105   6.621 -1.4090  2.9018 -3.3720
12961SOL     OW40015   1.440   1.302   3.976 -0.7842 -0.5016  0.7305
12961SOL    HW140016   1.471   1.237   3.914  0.5294 -0.4656  1.3170
12961SOL    HW240017   1.491   1.285   4.056 -0.6898  0.9875  1.0180
12962SOL     OW40018   8.647   2.865   5.074  0.1212  0.2518  0.3964
12962SOL    HW140019   8.596   2.925   5.019  0.8034 -0.0361 -0.5903
12962SOL    HW240020   8.601   2.782   5.067  0.0738  0.2741  0.4478
12963SOL     OW40021   2.067   4.767   8.240 -0.1528  0.0813  0.1264
12963SOL    HW140022   2.057   4.845   8.295 -3.2692  0.6113 -0.9591
12963SOL    HW240023   2.038   4.695   8.294 -0.5649  0.2028  0.0735
12964SOL     OW40024   3.844   1.341   7.894  0.0930  0.3401  0.0608
12964SOL    HW140025   3.847   1.295   7.978 -1.3837  0.8092  0.4074
12964SOL    HW240026   3.843   1.270   7.829  1.0648 -0.0306  0.4348
12965SOL     OW40027   1.049   0.985   5.711  0.0015  0.1962 -0.2411
12965SOL    HW140028   1.072   1.004   5.620  0.2393 -0.5277 -0.3431
12965SOL    HW240029   1.122   1.020   5.762 -0.1984  0.7278 -0.3116
12966SOL     OW40030   1.344   3.284   2.617 -0.2408 -0.3596 -0.1565
12966SOL    HW140031   1.292   3.332   2.681  1.5868 -0.1669  1.2495
12966SOL    HW240032   1.331   3.333   2.535  3.5574  4.4834  1.6317
12967SOL     OW40033   3.110   3.333   7.323  0.5054 -0.4127 -0.0828
12967SOL    HW140034   3.078   3.423   7.320  1.7554  0.0306 -0.6037
12967SOL    HW240035   3.162   3.323   7.244 -0.2142 -1.8507 -0.4165
12968SOL     OW40036   3.688   2.200   2.288  0.0703  0.2401 -0.0204
12968SOL    HW140037   3.773   2.187   2.246  0.3326  0.0733  0.5499
12968SOL    HW240038   3.693   2.148   2.368 -0.7875 -0.2518 -0.2733
12969SOL     OW40039   2.786   0.685   1.352 -0.3901 -0.2394 -0.4711
12969SOL    HW140040   2.872   0.706   1.390  0.6302 -2.6860 -1.2082
12969SOL    HW240041   2.723   0.714   1.418  1.0424  0.5767  0.6103
12970SOL     OW40042   7.156   3.082   7.066 -0.3006  0.2686 -0.0570
12970SOL    HW140043   7.155   3.002   7.119 -1.2068  0.3124  0.0090
12970SOL    HW240044   7.108   3.059   6.986 -2.4694  1.2991  0.8508
12971SOL     OW40045   4.230   3.969   5.116 -0.7796 -0.2805 -0.4409
12971SOL    HW140046   4.258   4.035   5.052  0.8722  0.4398  0.9537
12971SOL    HW240047   4.211   4.019   5.195 -1.2754 -1.3100  0.1113
12972SOL     OW40048   8.677   8.212   2.204  0.0425  0.1302 -0.1156
12972SOL    HW140049   8.724   8.164   2.272 -0.1266 -0.7946 -0.6395
12972SOL    HW240050   8.621   8.272   2.253  0.1835 -0.2643  0.5543
12973SOL     OW40051   1.600   8.050   3.879  0.1138 -0.2607 -0.4040
12973SOL    HW140052   1.662   8.119   3.902 -0.4221  0.5479 -1.2871
12973SOL    HW240053   1.555   8.084   3.802  0.1589 -1.8031 -1.1513
12974SOL     OW40054   5.558   3.113   1.792  0.3021  0.0864  0.6491
12974SOL    HW140055   5.642   3.083   1.756 -0.7095 -0.0906 -1.7093
12974SOL    HW240056   5.533   3.187   1.738 -0.2342  1.3288  2.4961
12975SOL     OW40057   0.408   6.519   2.565  0.5401  0.0184  1.0947
12975SOL    HW140058   0.496   6.481   2.571  1.5441  2.0860  0.6698
12975SOL    HW240059   0.393   6.528   2.471  0.0530  0.0660  1.1757
12976SOL     OW40060   3.464   6.342   5.631  0.0186 -0.1357 -0.1405
12976SOL    HW140061   3.542   6.398   5.633  0.0431 -0.1683  1.3298
12976SOL    HW240062   3.447   6.326   5.538  0.5598  1.5456 -0.5588
12977SOL     OW40063   8.610   8.090   6.479 -0.3621 -0.2121 -0.1301
12977SOL    HW140064   8.639   8.179   6.499 -0.8225 -0.4860  2.0858
12977SOL    HW240065   8.597   8.090   6.384 -1.6298  2.4926 -0.0684
12978SOL     OW40066   2.636   8.071   8.927  0.0912 -0.0455  0.2023
12978SOL    HW140067   2.676   8.124   8.997 -0.7194  0.9560 -0.0694
12978SOL    HW240068   2.569   8.128   8.889  0.0994 -0.7976 -0.9971
12979SOL     OW40069   6.015   1.653   5.020  0.0658 -0.3235 -0.8193
12979SOL    HW140070   6.029   1.585   4.954  0.6386 -0.2627 -0.7684
12979SOL    HW240071   6.054   1.732   4.981 -2.0118  0.3947 -1.5906
12980SOL     OW40072   2.280   2.430   8.396  0.2049 -0.0604  0.0182
12980SOL    HW140073   2.235   2.497   8.446 -1.4882 -1.4093  0.4252
12980SOL    HW240074   2.299   2.471   8.312  0.0427  1.1919  0.5743
12981SOL     OW40075   5.987   3.579   6.852  0.3884 -0.0107 -0.0969
12981SOL    HW140076   6.004   3.635   6.927 -1.2265  1.8582 -1.0283
12981SOL    HW240077   6.033   3.497   6.872  0.6282  0.6775  2.5438
12982SOL     OW40078   5.520   2.145   0.010 -0.4303 -0.1242 -0.1001
12982SOL    HW140079   5.522   2.210   0.080  0.1097 -2.2782  1.9997
12982SOL    HW240080   5.445   2.090   0.030  0.5294 -1.5925 -0.4084
12983SOL     OW40081   2.114   8.471   0.086 -0.1661  0.0195 -0.0689
12983SOL    HW140082   2.083   8.436   0.170  1.2374  1.3504  1.0726
12983SOL    HW240083   2.209   8.473   0.095 -0.0927  2.0682 -0.8792
12984SOL     OW40084   3.530   8.984   5.860  0.2197 -0.2677 -0.1290
12984SOL    HW140085   3.547   8.897   5.895 -0.3353  0.1116  1.1436
12984SOL    HW240086   3.473   9.025   5.925 -0.5134  0.6184 -1.3087
12985SOL     OW40087   7.148   5.666   3.297  0.5352 -0.2376 -0.3545
12985SOL    HW140088   7.056   5.685   3.317  0.0788 -0.5650 -2.0274
12985SOL    HW240089   7.180   5.620   3.374 -1.5195 -2.7284 -0.8384
12986SOL     OW40090   4.733   6.529   0.792 -0.2335  0.2250  0.1002
12986SOL    HW140091   4.662   6.558   0.735  0.1935  2.4048  0.5980
12986SOL    HW240092   4.718   6.435   0.803 -1.6135  0.1712 -1.7544
12987SOL     OW40093   4.746   4.703   0.228 -0.2267  0.1847  0.5441
12987SOL    HW140094   4.786   4.709   0.141  0.0482  1.6670  0.7503
12987SOL    HW240095   4.815   4.670   0.284 -0.3138 -0.4847  0.2678
12988SOL     OW40096   0.568   2.850   1.565 -0.8093 -0.1341 -0.1497
12988SOL    HW140097   0.655   2.888   1.552 -1.1757 -0.0497 -3.1662
12988SOL    HW240098   0.584   2.770   1.614  0.9382  0.0084 -0.4119
12989SOL     OW40099   6.948   0.584   3.784 -0.1838 -0.0290  0.3000
12989SOL    HW140100   6.879   0.593   3.849  0.4525 -0.3952  1.0345
12989SOL    HW240101   6.923   0.645   3.714 -1.1080  0.0259  0.6739
12990SOL     OW40102   6.949   2.656   0.598  0.0331 -0.3476 -0.2921
12990SOL    HW140103   7.028   2.676   0.649 -0.0822 -0.0761 -0.2124
12990SOL    HW240104   6.877   2.672   0.660 -0.1691  1.0596 -0.8392
12991SOL     OW40105   4.471   2.833   6.912 -0.0691 -0.1226 -0.0708
12991SOL    HW140106   4.428   2.918   6.913  1.7624  0.9202 -1.5502
12991SOL    HW240107   4.563   2.853   6.892  0.1410 -2.5200 -2.0543
12992SOL     OW40108   7.950   7.517   4.045  0.2641  0.7617 -0.4472
12992SOL    HW140109   7.886   7.573   4.003 -1.0805 -0.6936 -0.4360
12992SOL    HW240110   7.921   7.509   4.136  0.9520  0.7577 -0.2155
12993SOL     OW40111   6.377   3.324   0.946 -0.0897  0.0426 -0.1899
12993SOL    HW140112   6.413   3.354   0.863  0.6186  0.5804  0.3006
12993SOL    HW240113   6.286   3.302   0.926  0.0048  0.3900 -1.0517
12994SOL     OW40114   5.616   4.886   3.143 -0.0911 -0.3477  0.0271
12994SOL    HW140115   5.558   4.940   3.196 -0.6849 -1.9515  1.1122
12994SOL    HW240116   5.705   4.915   3.165 -0.3591 -0.5499  1.4551
12995SOL     OW40117   1.692   3.728   0.494 -0.4244 -0.2067 -0.2563
12995SOL    HW140118   1.743   3.772   0.427 -1.0573  0.3733 -0.3620
12995SOL    HW240119   1.601   3.736   0.465 -0.5405 -2.1170 -0.6106
12996SOL     OW40120   1.070   2.485   5.219  0.3435 -0.1272 -0.0283
12996SOL    HW140121   1.039   2.406   5.262 -0.6054  0.1535 -0.1569
12996SOL    HW240122   1.136   2.455   5.156  0.9489 -0.6533  0.8436
12997SOL     OW40123   2.918   3.571   3.178 -0.1193  0.3466  0.1274
12997SOL    HW140124   2.966   3.651   3.155  0.0700  0.5152  1.0742
12997SOL    HW240125   2.827   3.600   3.189  0.0176  0.4996  0.8438
12998SOL     OW40126   9.116   4.897   5.816  0.2832 -0.1335 -0.0869
12998SOL    HW140127   9.108   4.992   5.812 -0.5943 -0.2317 -1.0010
12998SOL    HW240128   9.203   4.882   5.853  0.6442  1.0201 -0.4332
12999SOL     OW40129   3.565   1.597   4.962  0.2909  0.3473 -0.0858
12999SOL    HW140130   3.636   1.656   4.990  0.4544 -0.3124  0.9596
12999SOL    HW240131   3.511   1.651   4.904 -0.1122  1.8521  1.5755
13000SOL     OW40132   0.233   2.362   6.788  0.9034 -0.1469 -0.2204
13000SOL    HW140133   0.154   2.368   6.734  0.3842 -0.0089  0.5302
13000SOL    HW240134   0.227   2.437   6.847  1.4443 -0.3072  0.0431
13001SOL     OW40135   6.433   3.791   2.476  0.8897 -0.0661 -0.3664
13001SOL    HW140136   6.496   3.749   2.535 -0.4000 -0.7386  0.5809
13001SOL    HW240137   6.348   3.763   2.509  0.1012  0.3741 -1.9530
13002SOL     OW40138   5.107   1.947   6.400 -0.0607  0.4537  0.2565
13002SOL    HW140139   5.026   1.910   6.434  1.1411 -1.2028  1.4897
13002SOL    HW240140   5.089   1.962   6.307 -1.4368 -0.9300  0.2614
13003SOL     OW40141   6.852   9.063   5.232  0.6515 -0.3906  0.0334
13003SOL    HW140142   6.807   8.980   5.245 -1.2938  0.7572  1.0674
13003SOL    HW240143   6.806   9.105   5.159  0.4488  0.5109  0.6565
13004SOL     OW40144   1.970   5.120   1.077  0.2381  0.0199 -0.1288
13004SOL    HW140145   1.943   5.071   1.000  2.4949  0.7399 -1.4907
13004SOL    HW240146   1.913   5.196   1.079  0.3458  0.1434 -1.2886
13005SOL     OW40147   6.432   3.375   3.075  0.3989 -0.0207 -0.2068
13005SOL    HW140148   6.514   3.402   3.116 -0.9349 -0.2099  2.9386
13005SOL    HW240149   6.454   3.294   3.029  1.9281 -0.3029  0.9335
13006SOL     OW40150   1.947   4.415   8.940 -0.1016  0.5706  0.3121
13006SOL    HW140151   2.024   4.365   8.913  0.3207  1.3304  0.0711
13006SOL    HW240152   1.980   4.479   9.003 -0.2866  1.7424 -0.7283
13007SOL     OW40153   8.376   2.260   8.975  0.3407  0.1876  0.0966
13007SOL    HW140154   8.450   2.207   9.005 -0.1758 -1.5176 -1.4770
13007SOL    HW240155   8.299   2.209   9.000 -0.1800  0.3122 -1.2135
13008SOL     OW40156   8.165   2.894   3.962 -0.4937 -1.2900  0.4287
13008SOL    HW140157   8.076   2.865   3.939 -0.4796 -1.6043  0.7659
13008SOL    HW240158   8.208   2.815   3.995 -0.5218 -0.8470  1.5605
13009SOL     OW40159   5.927   4.951   8.410 -0.0540  0.7881 -0.4847
13009SOL    HW140160   5.970   4.866   8.409 -0.5097  0.4801  1.6251
13009SOL    HW240161   5.834   4.931   8.415 -0.1432  1.4030  0.4747
13010SOL     OW40162   4.745   3.455   8.943  0.0030  0.3147 -0.7493
13010SOL    HW140163   4.709   3.376   8.983  0.6545  0.2007 -0.3633
13010SOL    HW240164   4.809   3.487   9.007 -1.5627  2.2170 -0.0530
13011SOL     OW40165   8.820   7.821   6.831  0.4890  0.0760  0.2481
13011SOL    HW140166   8.904   7.791   6.795  0.2463 -1.2539  0.7321
13011SOL    HW240167   8.845   7.888   6.895  1.3627 -1.5419  1.6898
13012SOL     OW40168   1.562   1.343   4.681  0.2177 -0.1240 -0.0250
13012SOL    HW140169   1.522   1.345   4.594 -0.7653  2.1537  0.4068
13012SOL    HW240170   1.652   1.373   4.668  0.4936 -1.0735 -0.4033
13013SOL     OW40171   5.470   7.654   5.900  0.3027  0.9425 -0.3965
13013SOL    HW140172   5.475   7.666   5.995  1.4030 -0.3835 -0.2593
13013SOL    HW240173   5.544   7.705   5.865  0.2717  0.9311 -0.4793
13014SOL     OW40174   9.104   3.533   6.945  0.6311 -0.0766  0.4836
13014SOL    HW140175   9.136   3.511   6.858 -0.6654  0.8930 -0.2729
13014SOL    HW240176   9.116   3.628   6.952 -2.0749  0.3687  0.1058
13015SOL     OW40177   3.285   1.689   3.891 -0.2938 -0.0229  0.1417
13015SOL    HW140178   3.257   1.671   3.801  0.8873 -0.5069 -0.1376
13015SOL    HW240179   3.365   1.638   3.903 -1.2151 -1.1466  1.9604
13016SOL     OW40180   3.526   3.331   5.265 -0.4109  0.3176  0.3183
13016SOL    HW140181   3.613   3.343   5.227 -0.2718 -0.3109  0.4356
13016SOL    HW240182   3.532   3.371   5.352  0.1378 -0.8128  0.8206
13017SOL     OW40183   8.827   2.518   2.541 -0.3634 -0.6445  0.6463
13017SOL    HW140184   8.803   2.528   2.632  1.3905  1.7935  0.9362
13017SOL    HW240185   8.761   2.567   2.492 -0.5483 -0.8254  0.7137
13018SOL     OW40186   3.564   7.063   2.353 -0.1592 -0.2171  0.0549
13018SOL    HW140187   3.483   7.106   2.327 -0.2905  0.1559  1.0178
13018SOL    HW240188   3.633   7.127   2.338 -0.3124  0.2351  1.1639
13019SOL     OW40189   6.586   1.937   6.779  0.6740 -0.0887 -0.0501
13019SOL    HW140190   6.553   1.848   6.792 -1.2907  0.6105  0.1303
13019SOL    HW240191   6.516   1.981   6.730  1.0689  1.6768  0.9013
13020SOL     OW40192   4.060   7.082   3.525  0.1048  0.8414 -0.2245
13020SOL    HW140193   4.131   7.031   3.563 -0.4709 -0.1579 -0.4550
13020SOL    HW240194   4.087   7.095   3.434  0.9662  2.2945  0.2030
13021SOL     OW40195   2.235   2.448   5.619 -0.0960  0.3052  0.0851
13021SOL    HW140196   2.255   2.540   5.635 -0.4097  0.6616 -1.3723
13021SOL    HW240197   2.196   2.447   5.531  2.9417 -1.6036 -1.3962
13022SOL     OW40198   7.710   3.249   0.441  0.3327 -0.0338  0.0683
13022SOL    HW140199   7.729   3.323   0.499 -0.5803  0.7819 -0.6218
13022SOL    HW240200   7.639   3.281   0.385 -0.7958 -1.7974  0.4146
13023SOL     OW40201   5.323   4.946   5.413  0.2293 -0.1941 -0.5556
13023SOL    HW140202   5.384   5.011   5.447 -0.8193 -0.8925  3.0610
13023SOL    HW240203   5.376   4.867   5.401  0.5201 -0.0962  0.0821
13024SOL     OW40204   7.469   7.003   2.027 -0.2519 -0.6652  0.1549
13024SOL    HW140205   7.378   7.032   2.018  0.1341  0.4555 -0.3726
13024SOL    HW240206   7.513   7.039   1.949  0.7437 -0.7471  0.6657
13025SOL     OW40207   7.213   2.433   1.686  0.4542  0.2316 -0.0897
13025SOL    HW140208   7.216   2.520   1.725 -1.7482  0.2444  0.1824
13025SOL    HW240209   7.175   2.446   1.599  1.0754 -0.3517 -0.4628
13026SOL     OW40210   8.091   1.768   1.905 -0.5367  0.3721 -0.3072
13026SOL    HW140211   8.160   1.727   1.956 -0.3127 -0.1127 -0.9929
13026SOL    HW240212   8.132   1.847   1.869  0.1781 -0.7357 -2.0308
13027SOL     OW40213   8.177   1.285   4.625 -0.4323 -0.1573 -0.5996
13027SOL    HW140214   8.149   1.337   4.700  0.3651  1.8026 -1.5789
13027SOL    HW240215   8.147   1.196   4.644  0.4122  0.0769  2.4001
13028SOL     OW40216   1.642   5.435   5.870  0.4115  0.0541  0.6670
13028SOL    HW140217   1.605   5.360   5.823 -0.0664  1.4247 -1.2852
13028SOL    HW240218   1.706   5.472   5.809  1.9912  0.1838  2.3307
13029SOL     OW40219   1.001   1.924   1.357  0.0567  0.2948  0.0311
13029SOL    HW140220   1.063   1.876   1.412 -0.0126 -1.5644 -1.3923
13029SOL    HW240221   1.055   1.986   1.308  0.4839  0.1248  0.2788
13030SOL     OW40222   4.598   5.314   7.893  0.0152  0.2516  0.0369
13030SOL    HW140223   4.672   5.365   7.863 -0.0745 -0.1360 -0.8694
13030SOL    HW240224   4.621   5.223   7.872  0.5255 -0.2086  2.3247
13031SOL     OW40225   3.158   0.757   7.506  0.6305  0.4039  0.1924
13031SOL    HW140226   3.112   0.729   7.585 -1.0519  0.7390 -0.6120
13031SOL    HW240227   3.175   0.676   7.458  1.3407  0.2333  0.7091
13032SOL     OW40228   5.645   4.976   8.507 -0.0222 -0.0713  0.1282
13032SOL    HW140229   5.649   5.023   8.591  1.9253  0.4846 -0.2151
13032SOL    HW240230   5.647   4.884   8.531  0.3782  0.0832  0.7194
13033SOL     OW40231   3.043   5.227   3.263 -0.4259  0.3190  0.0119
13033SOL    HW140232   3.127   5.191   3.236 -0.6820 -0.3283  0.0616
13033SOL    HW240233   3.051   5.241   3.357 -0.5858 -0.3455  0.1295
13034SOL     OW40234   2.268   3.175   5.073 -0.3132  0.0567  0.7664
13034SOL    HW140235   2.230   3.250   5.028 -0.4923 -0.0476  0.7422
13034SOL    HW240236   2.363   3.189   5.067 -0.2891 -0.5446 -0.6872
13035SOL     OW40237   3.408   6.195   2.308 -0.4397  0.2376 -0.1940
13035SOL    HW140238   3.485   6.141   2.293 -0.0680  0.5210  0.6382
13035SOL    HW240239   3.385   6.228   2.221  0.7294  0.6129 -0.3868
13036SOL     OW40240   3.712   3.886   0.188 -0.4773  1.0036  0.2494
13036SOL    HW140241   3.640   3.896   0.127 -0.3149  1.7410  0.1588
13036SOL    HW240242   3.672   3.892   0.275 -0.5353  1.3812  0.1989
13037SOL     OW40243   6.877   8.160   6.430  0.0960  0.3609  0.8423
13037SOL    HW140244   6.795   8.199   6.461  0.4286  0.5233  1.5359
13037SOL    HW240245   6.876   8.174   6.336 -1.0119 -0.2741  0.7461
13038SOL     OW40246   9.087   5.175   5.810 -0.3237  0.3369  0.4985
13038SOL    HW140247   9.154   5.241   5.827  0.5148  0.1526 -1.7151
13038SOL    HW240248   9.014   5.223   5.773 -0.5606  0.2661  0.8670
13039SOL     OW40249   6.937   8.247   2.092  0.2199 -0.1099  0.1047
13039SOL    HW140250   6.935   8.158   2.057  0.4193 -0.2619  0.4786
13039SOL    HW240251   6.948   8.236   2.187  0.9990  0.3326  0.0723
13040SOL     OW40252   1.626   8.640   2.210  0.2779  0.5602 -0.0137
13040SOL    HW140253   1.640   8.725   2.169 -2.3731  0.5132 -1.2459
13040SOL    HW240254   1.711   8.617   2.248  1.2897  3.3296 -0.3734
13041SOL     OW40255   1.905   2.082   0.448  0.4429  0.3594  0.0967
13041SOL    HW140256   1.822   2.060   0.406  1.0361 -1.2971 -0.2996
13041SOL    HW240257   1.952   2.134   0.382 -0.6165  2.1824  0.6947
13042SOL     OW40258   7.944   5.864   7.198  0.4040 -0.2210  0.6464
13042SOL    HW140259   7.970   5.834   7.111 -0.3574 -0.5528  0.5224
13042SOL    HW240260   7.905   5.951   7.183 -0.3211 -0.5505  0.5514
13043SOL     OW40261   4.477   1.240   2.244 -0.2028 -0.0971 -0.0182
13043SOL    HW140262   4.561   1.284   2.256  0.2666 -0.9560 -0.0536
13043SOL    HW240263   4.494   1.174   2.176 -0.7930 -0.5393  0.2539
13044SOL     OW40264   8.760   0.752   7.343  0.1867 -0.6794 -0.0127
13044SOL    HW140265   8.794   0.723   7.427 -0.2260  0.2565  0.4983
13044SOL    HW240266   8.773   0.847   7.344 -0.1657 -0.6159 -0.8481
13045SOL     OW40267   5.520   3.139   4.534  0.5768 -0.7198  0.4915
13045SOL    HW140268   5.469   3.063   4.506  1.3657 -0.3384 -2.2912
13045SOL    HW240269   5.493   3.154   4.625 -0.0437 -3.8985  0.9468
13046SOL     OW40270   4.864   5.466   6.674 -0.2013  0.6187 -0.3127
13046SOL    HW140271   4.824   5.409   6.740 -0.5978  0.9550 -0.2570
13046SOL    HW240272   4.802   5.539   6.664  0.2033  0.9376 -0.5304
13047SOL     OW40273   2.306   5.438   0.315  0.4493  0.0304  0.0344
13047SOL    HW140274   2.393   5.399   0.306  0.5492 -0.0383  1.1018
13047SOL    HW240275   2.323   5.526   0.350  0.0230 -0.9252  2.8780
13048SOL     OW40276   3.821   4.562   3.896  0.2755 -0.1396 -0.0569
13048SOL    HW140277   3.888   4.622   3.928 -0.1922  0.1919  0.3041
13048SOL    HW240278   3.834   4.560   3.801  0.8584 -0.1605  0.0188
13049SOL     OW40279   7.110   2.896   4.320  0.3253 -0.2837  0.0559
13049SOL    HW140280   7.071   2.955   4.386 -0.7579 -0.1618 -0.6599
13049SOL    HW240281   7.204   2.901   4.336  0.0611 -0.6833  1.9506
13050SOL     OW40282   3.872   4.976   5.871 -0.0656  0.2806 -0.3748
13050SOL    HW140283   3.890   4.933   5.954 -1.9879  1.2057  0.5998
13050SOL    HW240284   3.957   4.984   5.828  1.0720  0.3683  1.7873
13051SOL     OW40285   9.057   7.475   0.897  0.4431  0.6443 -0.1186
13051SOL    HW140286   9.046   7.539   0.826  0.9578  0.1041 -0.7069
13051SOL    HW240287   9.036   7.523   0.977 -1.7661  0.8611 -0.7483
13052SOL     OW40288   4.726   0.190   0.800  0.0351 -0.2688 -0.0514
13052SOL    HW140289   4.683   0.252   0.742 -1.4941 -2.0153 -0.8742
13052SOL    HW240290   4.684   0.106   0.782  0.7676 -1.2348  2.2910
13053SOL     OW40291   8.134   0.486   6.362 -0.5548 -0.4448  0.2433
13053SOL    HW140292   8.229   0.478   6.360 -0.5813 -0.6060 -0.5654
13053SOL    HW240293   8.118   0.578   6.385 -0.2297 -0.8976  2.5621
13054SOL     OW40294   6.094   7.516   5.148  0.1857  0.1436 -0.6563
13054SOL    HW140295   6.074   7.601   5.108 -0.8044  0.6010  0.7156
13054SOL    HW240296   6.106   7.536   5.241 -0.7659 -1.2997 -0.1886
13055SOL     OW40297   5.307   8.195   4.096 -0.0151 -0.3096 -0.6199
13055SOL    HW140298   5.219   8.185   4.060 -0.0085 -0.3078 -0.6367
13055SOL    HW240299   5.301   8.274   4.151 -0.1968 -0.6793 -0.1038
13056SOL     OW40300   7.452   0.951   8.905  0.1252 -0.6541  0.6514
13056SOL    HW140301   7.364   0.962   8.869 -0.2148 -1.6740  1.1337
13056SOL    HW240302   7.510   0.985   8.837 -0.6438  0.2203  0.4151
13057SOL     OW40303   7.516   7.558   8.144 -0.0192 -0.2497  0.0723
13057SOL    HW140304   7.581   7.596   8.204 -0.2898  0.4339 -0.0609
13057SOL    HW240305   7.557   7.477   8.113  0.5669 -0.0740  0.3654
13058SOL     OW40306   2.382   7.521   1.413 -0.0468 -0.1364 -0.3795
13058SOL    HW140307   2.314   7.543   1.348  0.3726 -1.4785 -1.3027
13058SOL    HW240308   2.358   7.573   1.490 -2.4690 -0.9731 -0.4651
13059SOL     OW40309   4.767   6.289   3.743 -0.2874  0.2036  0.8948
13059SOL    HW140310   4.862   6.302   3.744 -0.2577  0.2886 -0.8114
13059SOL    HW240311   4.733   6.361   3.690 -1.1624 -0.6018  0.3173
13060SOL     OW40312   3.317   5.315   3.840  0.0668 -0.0931  0.0236
13060SOL    HW140313   3.340   5.350   3.926 -3.7020  0.3023  1.0447
13060SOL    HW240314   3.349   5.380   3.777  1.1408  0.6050  1.2588
13061SOL     OW40315   6.365   1.195   5.489  0.0858  0.0013 -0.2351
13061SOL    HW140316   6.370   1.121   5.549  0.4763  0.9072  0.9104
13061SOL    HW240317   6.456   1.224   5.480 -0.1008  0.5530 -0.3769
13062SOL     OW40318   2.657   2.917   4.895  0.1735  0.0132 -0.1609
13062SOL    HW140319   2.706   2.836   4.894  1.9627  1.0124  1.2052
13062SOL    HW240320   2.565   2.890   4.899  0.7132 -1.9092 -0.1244
13063SOL     OW40321   3.426   7.962   6.326  0.0396 -0.5626  0.0127
13063SOL    HW140322   3.361   7.894   6.308  0.2680 -0.9015  0.4363
13063SOL    HW240323   3.445   8.001   6.241  0.6538 -1.7223 -0.4025
13064SOL     OW40324   7.927   8.227   7.441 -0.5989  0.6491  0.1640
13064SOL    HW140325   7.998   8.290   7.451 -3.0652  3.4574  1.4498
13064SOL    HW240326   7.953   8.153   7.496  1.9822  0.8522 -0.6598
13065SOL     OW40327   4.990   5.035   4.366 -0.4249  0.8527  0.3341
13065SOL    HW140328   4.939   5.033   4.447  0.4157  0.7863  0.8756
13065SOL    HW240329   4.930   5.069   4.301 -1.7832 -1.0722  0.5082
13066SOL     OW40330   5.357   6.294   3.572 -0.1853 -0.1000 -0.5188
13066SOL    HW140331   5.441   6.333   3.594  1.2178 -1.3702 -3.1730
13066SOL    HW240332   5.340   6.231   3.642  1.7042 -0.6621 -0.5064
13067SOL     OW40333   3.368   1.701   0.075 -0.6850 -0.1755 -0.2073
13067SOL    HW140334   3.283   1.659   0.091 -0.4949 -0.6171 -0.3323
13067SOL    HW240335   3.366   1.724  -0.018 -1.5058  1.7443  0.2394
13068SOL     OW40336   1.760   6.303   4.031 -0.3972  0.3878  0.1307
13068SOL    HW140337   1.765   6.302   3.935 -1.5158  0.1622  0.0512
13068SOL    HW240338   1.753   6.211   4.056 -0.4547  0.4636  0.3963
13069SOL     OW40339   3.818   1.356   1.778 -0.4506 -0.1999  0.0033
13069SOL    HW140340   3.877   1.431   1.767  0.0300 -0.6308 -0.4598
13069SOL    HW240341   3.764   1.357   1.699 -0.2179 -0.5271 -0.1646
13070SOL     OW40342   2.362   9.010   7.237  0.3558 -0.0061 -0.5310
13070SOL    HW140343   2.444   9.057   7.258  1.2475 -1.2738 -1.0544
13070SOL    HW240344   2.366   8.930   7.289 -0.2330 -0.3917 -1.0587
13071SOL     OW40345   8.976   5.366   7.950  0.0677 -0.1829  0.3048
13071SOL    HW140346   8.885   5.355   7.979 -0.3666  2.0075 -0.0915
13071SOL    HW240347   8.989   5.295   7.887 -2.0061  0.5410 -1.0314
13072SOL     OW40348   4.169   7.818   7.121  0.2281  0.3093  0.3903
13072SOL    HW140349   4.179   7.809   7.215 -2.4825  0.9705  0.8335
13072SOL    HW240350   4.114   7.744   7.095 -2.2348  2.1143  0.0758
13073SOL     OW40351   3.309   8.148   6.828 -0.4335 -0.2518  0.4205
13073SOL    HW140352   3.361   8.223   6.859  3.5404 -2.9957  1.0688
13073SOL    HW240353   3.270   8.112   6.908 -0.3742 -0.2671  0.4424
13074SOL     OW40354   8.757   7.340   2.117  0.0471  0.3188  0.0663
13074SOL    HW140355   8.807   7.420   2.103 -0.5960  0.5169 -1.2812
13074SOL    HW240356   8.680   7.349   2.060 -0.2829 -1.0394  0.2515
13075SOL     OW40357   5.581   5.816   0.081 -0.1302 -0.0238 -0.6019
13075SOL    HW140358   5.529   5.855   0.010 -1.6000 -1.5153 -0.3986
13075SOL    HW240359   5.557   5.724   0.081  2.3692 -0.7346 -0.3011
13076SOL     OW40360   3.053   8.243   7.093 -0.0174  0.6541 -0.1815
13076SOL    HW140361   2.970   8.203   7.070 -0.3328  0.9920  0.3450
13076SOL    HW240362   3.117   8.173   7.084 -0.6008 -0.0605  1.0132
13077SOL     OW40363   5.129   7.514   4.141 -0.1922 -0.0787 -0.8263
13077SOL    HW140364   5.135   7.452   4.214  1.3340 -0.5861 -1.3467
13077SOL    HW240365   5.061   7.477   4.084 -0.4169 -0.4226 -0.3397
13078SOL     OW40366   3.890   2.587   5.339 -0.0527  0.4378 -0.1122
13078SOL    HW140367   3.879   2.518   5.272 -0.0483  0.8555 -0.5498
13078SOL    HW240368   3.841   2.661   5.304 -0.8683  0.3568  0.8108
13079SOL     OW40369   4.385   5.325   6.308  0.0168  0.4634  0.9066
13079SOL    HW140370   4.434   5.249   6.279  1.2073  0.3428  3.0479
13079SOL    HW240371   4.452   5.386   6.340 -1.0808  1.0129  2.2939
13080SOL     OW40372   7.285   8.769   2.882 -0.2943 -0.1355  0.6386
13080SOL    HW140373   7.378   8.774   2.860  0.4701 -2.0510  2.9492
13080SOL    HW240374   7.266   8.675   2.886 -2.1053  0.2043  1.1087
13081SOL     OW40375   0.273   8.993   8.591  0.3697  0.5980 -0.3216
13081SOL    HW140376   0.184   8.996   8.625 -0.0950  1.8213 -1.5332
13081SOL    HW240377   0.274   9.057   8.520  2.2237  0.6359 -0.3310
13082SOL     OW40378   5.235   5.681   1.109 -0.7460 -0.1286  0.3311
13082SOL    HW140379   5.321   5.640   1.111 -0.9821 -0.7042 -0.5791
13082SOL    HW240380   5.196   5.659   1.194  0.0580  0.2986  0.8264
13083SOL     OW40381   1.723   7.539   3.411 -0.4618 -0.2435 -0.6098
13083SOL    HW140382   1.801   7.484   3.415 -1.2172 -1.5573 -2.5578
13083SOL    HW240383   1.739   7.599   3.338 -0.8566  0.2082 -0.3348
13084SOL     OW40384   7.606   1.348   6.913  0.2776  0.2855 -0.3457
13084SOL    HW140385   7.635   1.340   6.822 -1.5686 -0.9777 -0.8843
13084SOL    HW240386   7.682   1.324   6.965  0.6247 -1.6318 -1.6384
13085SOL     OW40387   4.464   6.190   3.512 -0.5204  0.2357  0.9200
13085SOL    HW140388   4.378   6.162   3.544 -0.1951 -2.0020  0.0149
13085SOL    HW240389   4.458   6.181   3.416  0.7024  0.0879  0.8429
13086SOL     OW40390   3.594   1.650   6.840 -0.4420  0.2345  0.1519
13086SOL    HW140391   3.515   1.702   6.857 -0.4568  0.1531  0.3330
13086SOL    HW240392   3.662   1.716   6.824 -0.7256  0.2994 -0.8489
13087SOL     OW40393   7.652   0.453   0.343  0.1323  0.2639 -0.5374
13087SOL    HW140394   7.726   0.414   0.297  1.5834 -0.2066  2.0056
13087SOL    HW240395   7.622   0.524   0.285  2.9660  0.8862 -1.4063
13088SOL     OW40396   2.639   5.149   1.745  0.5768  0.0300 -0.0269
13088SOL    HW140397   2.615   5.064   1.782  0.8325 -0.5332 -1.1228
13088SOL    HW240398   2.601   5.148   1.657 -0.2510  1.4510  0.2853
13089SOL     OW40399   4.426   0.921   8.636 -0.2156 -0.2103  0.0846
13089SOL    HW140400   4.501   0.951   8.687 -1.0287  0.0056  1.1814
13089SOL    HW240401   4.356   0.982   8.658 -0.9961 -1.0012 -0.1412
13090SOL     OW40402   8.001   1.963   0.871 -0.1702 -0.1238  0.1335
13090SOL    HW140403   7.969   2.001   0.790  1.6122  1.6476  0.1766
13090SOL    HW240404   7.946   1.886   0.885 -0.5723 -0.4606 -2.7096
13091SOL     OW40405   7.445   7.421   4.639  0.3409 -0.2807 -0.6794
13091SOL    HW140406   7.506   7.400   4.710  0.3158 -0.7273 -0.7813
13091SOL    HW240407   7.423   7.513   4.651  1.0268 -0.1211 -0.6340
13092SOL     OW40408   3.991   1.001   6.509 -0.8427 -0.4157  0.1791
13092SOL    HW140409   4.024   0.955   6.432  0.0276  1.0671 -0.3894
13092SOL    HW240410   3.962   0.932   6.568 -0.4529 -1.6333 -1.0042
13093SOL     OW40411   0.127   6.123   3.361 -0.4386  0.2654 -0.1915
13093SOL    HW140412   0.199   6.060   3.358  0.2080  1.0233 -1.2085
13093SOL    HW240413   0.135   6.163   3.448  0.2196  0.1731 -0.2019
13094SOL     OW40414   3.673   0.080   0.861  0.1232 -0.4264 -0.2191
13094SOL    HW140415   3.684   0.034   0.778  1.4739 -0.2666 -0.1537
13094SOL    HW240416   3.763   0.093   0.893 -0.3718 -1.4647  1.8016
13095SOL     OW40417   5.033   6.013   0.675  0.3318 -0.0811  0.3370
13095SOL    HW140418   4.981   6.092   0.665 -1.7329 -1.3350  0.6600
13095SOL    HW240419   5.029   5.971   0.589  2.7861  0.8712 -0.3439
13096SOL     OW40420   6.681   5.437   5.124  0.1950  0.2513 -0.1430
13096SOL    HW140421   6.668   5.396   5.039  1.2884  0.6768 -0.5214
13096SOL    HW240422   6.750   5.501   5.110 -1.7098  2.5556  0.3305
13097SOL     OW40423   5.520   0.990   9.042  0.3558 -0.5453  0.1593
13097SOL    HW140424   5.583   1.051   9.080  0.4633 -0.2420 -0.4807
13097SOL    HW240425   5.435   1.021   9.073  0.3316  0.4596 -0.8065
13098SOL     OW40426   5.797   6.953   1.590  0.3630 -0.2329 -0.0805
13098SOL    HW140427   5.758   6.999   1.516 -0.7826 -0.5627  0.3010
13098SOL    HW240428   5.844   6.880   1.550 -1.8296 -1.5460 -0.4187
13099SOL     OW40429   7.210   3.997   8.013 -0.7745  0.3747  0.0561
13099SOL    HW140430   7.137   4.024   7.958 -0.5224  0.2698 -0.3318
13099SOL    HW240431   7.187   3.908   8.040 -0.4836  0.0962 -0.6005
13100SOL     OW40432   7.595   2.434   0.590  0.3212 -0.6146  0.0567
13100SOL    HW140433   7.635   2.359   0.633  0.9143  0.0242  0.6308
13100SOL    HW240434   7.636   2.510   0.630 -0.3147  0.0253 -0.4751
13101SOL     OW40435   6.704   3.543   6.837  0.3552  0.1757  0.1078
13101SOL    HW140436   6.770   3.600   6.877  1.4285 -0.1019 -1.1772
13101SOL    HW240437   6.621   3.589   6.849  0.9257  1.0606  0.8115
13102SOL     OW40438   0.353   0.388   5.781  0.1177  0.0679  0.6062
13102SOL    HW140439   0.290   0.333   5.828 -1.0509  0.6566 -0.2250
13102SOL    HW240440   0.326   0.383   5.689  1.4558  0.1295  0.1824
13103SOL     OW40441   4.522   6.805   4.110 -0.2665  0.0508  0.3282
13103SOL    HW140442   4.577   6.884   4.109  2.0268 -1.4470 -1.2644
13103SOL    HW240443   4.516   6.782   4.202  0.0122  1.4265  0.7202
13104SOL     OW40444   1.092   4.777   8.689 -0.6277 -0.5443  0.5387
13104SOL    HW140445   1.005   4.810   8.669 -0.0211  1.1965  0.6124
13104SOL    HW240446   1.142   4.788   8.608 -0.0927 -0.1804  0.9130
13105SOL     OW40447   0.057   4.931   3.970 -0.8399  0.3009 -0.1043
13105SOL    HW140448  -0.012   4.969   4.024 -0.5818  0.1832  0.3121
13105SOL    HW240449   0.136   4.980   3.994 -0.9598  1.1597 -1.3384
13106SOL     OW40450   2.757   8.658   1.653  0.1395  0.3167  0.1650
13106SOL    HW140451   2.698   8.612   1.593 -1.2070  0.0588  1.6235
13106SOL    HW240452   2.797   8.589   1.705  0.3902  0.6108  0.3626
13107SOL     OW40453   6.948   3.712   0.897 -0.0317  0.1105  0.3213
13107SOL    HW140454   6.867   3.664   0.911 -1.1465  1.8196  0.0010
13107SOL    HW240455   6.942   3.788   0.955  0.4928  1.2231 -1.0126
13108SOL     OW40456   7.503   5.324   0.644 -0.2224 -0.6600  0.1956
13108SOL    HW140457   7.588   5.364   0.623 -1.5368  2.2770  0.0406
13108SOL    HW240458   7.523   5.263   0.715  1.8204  1.1441  1.2983
13109SOL     OW40459   2.676   3.043   7.113  0.4838  0.2584 -0.3267
13109SOL    HW140460   2.723   3.125   7.130  0.6372 -0.2767  2.3176
13109SOL    HW240461   2.584   3.065   7.124  0.6028 -0.2281  2.6132
13110SOL     OW40462   4.473   4.575   5.685 -0.4509  0.0809 -0.0854
13110SOL    HW140463   4.440   4.547   5.771  1.6203 -2.2642  0.0369
13110SOL    HW240464   4.512   4.661   5.702 -0.1216 -0.3220  1.3082
13111SOL     OW40465   4.559   3.905   5.268 -0.7143  0.1207  0.3390
13111SOL    HW140466   4.517   3.893   5.183 -0.9502  0.6715  0.3707
13111SOL    HW240467   4.505   3.854   5.329 -1.8007  1.4100  0.5050
13112SOL     OW40468   5.118   5.542   6.594 -0.0281 -0.2629 -0.5108
13112SOL    HW140469   5.029   5.532   6.628  1.1514 -1.5867  2.4793
13112SOL    HW240470   5.137   5.457   6.555  0.8895 -1.0438  1.5201
13113SOL     OW40471   4.821   1.141   4.142 -0.1564 -0.1571 -0.2585
13113SOL    HW140472   4.859   1.151   4.054  1.9827  1.5058  0.7584
13113SOL    HW240473   4.879   1.079   4.186 -2.5569 -2.8738 -0.6089
13114SOL     OW40474   6.246   0.171   7.822  0.3552  0.6331  0.0484
13114SOL    HW140475   6.286   0.218   7.895  1.2221 -0.5306  0.3556
13114SOL    HW240476   6.316   0.116   7.788 -0.4559  0.0241 -0.6879
13115SOL     OW40477   0.204   3.997   4.214 -0.3129 -0.1622  0.3180
13115SOL    HW140478   0.206   3.979   4.120  0.2882 -0.2263  0.3414
13115SOL    HW240479   0.185   3.912   4.254 -1.1363 -0.0307  0.2320
13116SOL     OW40480   0.420   7.689   7.719  0.2273  0.2150 -0.3376
13116SOL    HW140481   0.425   7.640   7.637  0.8495  1.4348 -1.0566
13116SOL    HW240482   0.329   7.718   7.725 -0.7113 -2.6298  1.1163
13117SOL     OW40483   4.084   3.250   3.789  0.3053 -0.1782 -0.5500
13117SOL    HW140484   4.155   3.241   3.725  1.7637 -0.0107  0.9749
13117SOL    HW240485   4.052   3.161   3.802  1.6860 -0.5898  0.2708
13118SOL     OW40486   3.933   5.195   0.327  0.1043 -0.6249 -0.5115
13118SOL    HW140487   3.938   5.155   0.413 -0.5733 -0.0281 -0.1855
13118SOL    HW240488   3.840   5.214   0.314  0.3040  0.0729 -1.0071
13119SOL     OW40489   8.011   2.327   0.680  0.0870 -0.4907 -0.2130
13119SOL    HW140490   8.098   2.291   0.698  0.3171  0.0445 -0.2373
13119SOL    HW240491   8.012   2.413   0.721 -0.5110 -0.5738 -0.0277
13120SOL     OW40492   4.073   8.947   7.169 -0.3777 -0.2125  0.0450
13120SOL    HW140493   4.058   8.860   7.204 -1.2330 -0.3933 -0.7310
13120SOL    HW240494   3.986   8.981   7.149 -0.0253  0.6037 -0.1729
13121SOL     OW40495   3.852   0.855   0.100  0.7240  0.0736 -0.0925
13121SOL    HW140496   3.843   0.849   0.196  2.2516 -0.4901  0.0466
13121SOL    HW240497   3.928   0.912   0.087  1.0995 -0.5918 -0.9325
13122SOL     OW40498   2.147   8.068   5.777 -0.2142 -0.0788  0.1409
13122SOL    HW140499   2.188   8.027   5.701  0.2699  2.5778 -1.1433
13122SOL    HW240500   2.190   8.028   5.852  1.2837 -0.8124 -1.0585
13123SOL     OW40501   4.587   4.727   1.492  0.6431 -0.3653  0.3870
13123SOL    HW140502   4.592   4.814   1.531  0.9331 -0.0574 -0.3171
13123SOL    HW240503   4.644   4.732   1.415  0.8358 -1.2425  0.4626
13124SOL     OW40504   4.880   2.438   6.481 -0.0148  0.4981 -0.1080
13124SOL    HW140505   4.923   2.429   6.566 -0.5068  0.8918  0.1935
13124SOL    HW240506   4.935   2.388   6.420 -0.9167 -1.8676  0.8671
13125SOL     OW40507   6.212   3.946   4.065  0.2702  0.4260 -0.2705
13125SOL    HW140508   6.221   4.039   4.045 -2.0752  0.7020 -0.4159
13125SOL    HW240509   6.117   3.930   4.061  0.4376 -1.5470  1.6257
13126SOL     OW40510   6.281   2.672   3.931 -0.2286 -0.2843 -0.0682
13126SOL    HW140511   6.375   2.676   3.952 -0.1936 -1.9369  0.1945
13126SOL    HW240512   6.241   2.737   3.989  0.8380  1.1617 -0.8745
13127SOL     OW40513   3.921   4.022   4.528 -0.2469 -0.1821 -0.3090
13127SOL    HW140514   3.850   4.081   4.554 -0.2212  0.0862 -0.8230
13127SOL    HW240515   3.945   3.977   4.608  1.9169  2.8315  0.9367
13128SOL     OW40516   3.596   2.713   5.958 -0.5894 -0.2110 -0.0663
13128SOL    HW140517   3.630   2.725   5.869 -0.2393 -0.9904 -0.0478
13128SOL    HW240518   3.649   2.771   6.012  0.9529 -1.5927 -0.0002
13129SOL     OW40519   9.075   8.147   6.938  0.4009  0.0015 -0.3681
13129SOL    HW140520   9.063   8.217   7.002  0.8495  0.2269 -0.5296
13129SOL    HW240521   9.091   8.192   6.855  2.2094 -0.2646 -0.2116
13130SOL     OW40522   3.887   0.878   5.020 -0.2270  0.6313 -0.0457
13130SOL    HW140523   3.978   0.852   5.030  0.0492 -0.0294 -3.3662
13130SOL    HW240524   3.885   0.970   5.048  1.0522  0.2197  1.5480
13131SOL     OW40525   4.559   8.027   5.448  0.1149  0.6386 -0.0811
13131SOL    HW140526   4.527   8.092   5.385  0.7603  0.8306 -0.2220
13131SOL    HW240527   4.654   8.024   5.433 -0.0598 -1.4705 -1.1768
13132SOL     OW40528   7.734   0.133   9.007  0.1418 -0.2791  0.0932
13132SOL    HW140529   7.744   0.074   8.933 -0.9774  0.3677 -0.6031
13132SOL    HW240530   7.646   0.170   8.997 -0.2672 -0.5947  2.0596
13133SOL     OW40531   2.669   5.479   3.689 -0.4554  0.4782  0.0839
13133SOL    HW140532   2.751   5.527   3.683 -0.7533  0.8628 -1.0683
13133SOL    HW240533   2.612   5.518   3.623 -0.9747 -0.9251 -0.3502
13134SOL     OW40534   3.624   4.573   6.753  0.9628 -0.0710 -0.1814
13134SOL    HW140535   3.558   4.512   6.785 -0.1640  0.5445 -1.2372
13134SOL    HW240536   3.677   4.594   6.830 -0.3460 -0.2584  0.7997
13135SOL     OW40537   0.728   0.869   1.362 -0.0429 -0.0913 -0.1457
13135SOL    HW140538   0.648   0.818   1.375  0.7846 -1.9621 -1.9044
13135SOL    HW240539   0.773   0.826   1.290  1.4203  2.3557 -0.8148
13136SOL     OW40540   2.471   4.823   3.086  0.1263 -0.4011 -0.2029
13136SOL    HW140541   2.464   4.772   3.005 -1.0612  0.4216 -0.6292
13136SOL    HW240542   2.397   4.795   3.139 -0.2989  0.5644 -0.2689
13137SOL     OW40543   2.733   4.605   4.060  0.6070  0.4780  0.2647
13137SOL    HW140544   2.792   4.532   4.041 -1.9112 -1.2705 -1.5629
13137SOL    HW240545   2.751   4.670   3.992  0.3181 -0.1598 -0.4379
13138SOL     OW40546   6.765   7.761   8.267  0.2117  0.0354  0.5437
13138SOL    HW140547   6.721   7.676   8.272 -1.4750  0.8768  0.6495
13138SOL    HW240548   6.793   7.769   8.176 -0.4681 -0.2213  0.3152
13139SOL     OW40549   4.518   7.050   6.408 -0.1205  0.2217  0.4428
13139SOL    HW140550   4.611   7.042   6.430  0.3352 -1.8188 -1.7913
13139SOL    HW240551   4.488   6.960   6.397 -2.1123  0.8778  0.0993
13140SOL     OW40552   7.735   2.661   0.657  0.1136  0.0672  0.2889
13140SOL    HW140553   7.777   2.737   0.617 -1.0079  0.5804  0.0337
13140SOL    HW240554   7.790   2.640   0.732  0.7850  0.7474  0.0013
13141SOL     OW40555   8.617   1.756   9.016  0.4124 -0.3147  0.2552
13141SOL    HW140556   8.705   1.720   9.026  0.5769  0.2714  0.9561
13141SOL    HW240557   8.560   1.691   9.057  0.5220 -0.6210 -0.0650
13142SOL     OW40558   1.775   4.673   2.063  0.3116  0.2952  0.5514
13142SOL    HW140559   1.726   4.653   1.983  0.6308 -0.7447  0.6024
13142SOL    HW240560   1.825   4.751   2.041 -0.2307  0.4937  0.0031
13143SOL     OW40561   5.008   4.539   8.446 -0.2395 -0.2252 -0.5891
13143SOL    HW140562   4.947   4.465   8.447 -3.0773  1.9121 -0.8465
13143SOL    HW240563   4.955   4.613   8.477  1.8412  2.0984 -2.1967
13144SOL     OW40564   8.036   4.088   5.689 -0.2581  0.6256  0.2237
13144SOL    HW140565   8.037   4.025   5.761 -0.0970 -2.0979 -2.0002
13144SOL    HW240566   7.949   4.128   5.694 -0.6815 -0.3566  1.1972
13145SOL     OW40567   0.422   1.923   1.777 -0.1034 -0.4480  0.0143
13145SOL    HW140568   0.369   1.867   1.719  0.1249 -1.9909  1.2209
13145SOL    HW240569   0.512   1.894   1.762  0.1950  0.6690 -0.4383
13146SOL     OW40570   6.348   1.790   5.802  0.0068 -0.0142  0.1751
13146SOL    HW140571   6.352   1.732   5.878 -2.6616 -0.0974  0.3525
13146SOL    HW240572   6.379   1.874   5.834  1.5129 -0.6873  0.5794
13147SOL     OW40573   8.926   4.392   1.661 -0.2509 -0.5359  0.1376
13147SOL    HW140574   8.894   4.482   1.659  1.1403  0.0013  0.5843
13147SOL    HW240575   8.976   4.386   1.742 -0.2923 -1.7032  0.0880
13148SOL     OW40576   4.419   3.896   6.541 -0.1375 -0.2707  0.2859
13148SOL    HW140577   4.504   3.895   6.497 -0.0206 -0.3457  0.5094
13148SOL    HW240578   4.439   3.917   6.632 -0.5284  1.5758 -0.0139
13149SOL     OW40579   6.395   1.979   3.869  0.2575 -0.5705  0.2102
13149SOL    HW140580   6.301   1.966   3.860  0.1062 -0.1891  1.0965
13149SOL    HW240581   6.424   1.906   3.924  0.7079 -1.3859 -1.0540
13150SOL     OW40582   5.360   4.896   4.433 -0.2731  0.6733 -0.2196
13150SOL    HW140583   5.442   4.866   4.395 -1.5558 -1.9852 -1.1538
13150SOL    HW240584   5.293   4.870   4.370 -2.1311 -0.2587  1.9797
13151SOL     OW40585   8.953   3.332   5.252 -0.5678  0.3342  0.0767
13151SOL    HW140586   9.012   3.399   5.218 -1.5000  1.6867  1.0101
13151SOL    HW240587   8.871   3.379   5.269 -2.0266 -1.5001 -1.3677
13152SOL     OW40588   7.987   6.475   6.869  0.5174  0.3180  0.0385
13152SOL    HW140589   7.960   6.520   6.788 -0.9974 -0.3769  0.1307
13152SOL    HW240590   7.961   6.384   6.857 -0.2177  0.3018  1.5185
13153SOL     OW40591   1.927   1.197   7.185 -0.1875 -0.0443 -0.3248
13153SOL    HW140592   1.979   1.191   7.105  0.5502 -0.3185  0.1625
13153SOL    HW240593   1.886   1.111   7.194 -2.1984  0.7055 -1.6543
13154SOL     OW40594   3.281   6.129   4.593 -0.0042 -0.0903 -0.1439
13154SOL    HW140595   3.196   6.090   4.574  1.3032 -2.0973 -2.4118
13154SOL    HW240596   3.333   6.056   4.628  1.0963  0.8381  0.2221
13155SOL     OW40597   3.878   3.983   7.025  0.1677  0.2598  0.2624
13155SOL    HW140598   3.871   3.918   6.955  0.0078  0.9282 -0.3542
13155SOL    HW240599   3.970   4.007   7.027  0.1314  0.4090  0.1275
13156SOL     OW40600   5.680   6.451   7.933  0.1452  0.0505  0.6158
13156SOL    HW140601   5.679   6.483   8.023  0.9413 -1.3915  1.1691
13156SOL    HW240602   5.735   6.373   7.936  1.2385  0.6764 -1.3641
13157SOL     OW40603   9.105   4.869   1.309 -0.5413 -0.0643  0.6119
13157SOL    HW140604   9.145   4.898   1.228  0.0756 -1.1159  0.5180
13157SOL    HW240605   9.092   4.949   1.360  1.1786  0.3969  0.4112
13158SOL     OW40606   0.155   2.469   3.637 -0.0868 -0.3023  0.5415
13158SOL    HW140607   0.149   2.564   3.630  0.0800 -0.1964  1.6820
13158SOL    HW240608   0.242   2.448   3.604 -0.1966 -0.0829  0.1034
13159SOL     OW40609   5.408   6.350   0.000 -0.1957 -0.9049 -0.6096
13159SOL    HW140610   5.390   6.313  -0.086  2.2233  2.4011 -2.7904
13159SOL    HW240611   5.502   6.342   0.010 -0.0504  1.2949  0.3714
13160SOL     OW40612   8.407   8.450   1.351  0.1532  0.0975 -0.3308
13160SOL    HW140613   8.407   8.387   1.422 -0.7990  0.7121  0.2204
13160SOL    HW240614   8.353   8.523   1.382  0.4808  0.7873 -1.3109
13161SOL     OW40615   5.378   7.526   0.753 -0.4351 -0.1393 -0.0536
13161SOL    HW140616   5.345   7.607   0.715 -3.5407  0.3311  3.2136
13161SOL    HW240617   5.332   7.457   0.705 -2.0734  0.3118  0.8168
13162SOL     OW40618   2.403   0.673   1.007 -0.0263  0.3744 -0.6236
13162SOL    HW140619   2.350   0.635   1.077  1.2723 -1.1379 -0.4061
13162SOL    HW240620   2.483   0.702   1.051  1.2505 -1.5084 -1.5428
13163SOL     OW40621   5.721   7.800   3.323  0.1317 -0.4669 -0.2827
13163SOL    HW140622   5.740   7.859   3.396  0.9642  2.1058 -2.4268
13163SOL    HW240623   5.789   7.819   3.259 -0.9494 -2.1507 -2.0269
13164SOL     OW40624   2.372   6.839   0.387 -0.0740  0.1390 -0.3850
13164SOL    HW140625   2.322   6.920   0.399  1.1026  0.8547 -0.2473
13164SOL    HW240626   2.308   6.778   0.349 -1.6238  0.3766  1.6874
13165SOL     OW40627   7.522   7.371   2.351  0.3068  0.2226 -0.0992
13165SOL    HW140628   7.525   7.280   2.320  1.9656  0.0210  0.6087
13165SOL    HW240629   7.515   7.364   2.446 -1.5406  0.8609 -0.1474
13166SOL     OW40630   7.645   8.677   1.889  0.1655  0.1471 -0.2718
13166SOL    HW140631   7.728   8.637   1.864 -0.3415 -1.1881  0.1195
13166SOL    HW240632   7.623   8.636   1.973 -1.1962  0.0087 -0.6705
13167SOL     OW40633   4.172   2.588   2.801  0.3228  0.0600 -0.1983
13167SOL    HW140634   4.133   2.675   2.814  1.1469  0.2844  0.9117
13167SOL    HW240635   4.123   2.551   2.728 -0.9173  0.9383  0.1516
13168SOL     OW40636   5.766   1.259   6.094 -0.3101  0.3055  0.1153
13168SOL    HW140637   5.700   1.319   6.129 -1.5252  0.6147 -2.4523
13168SOL    HW240638   5.755   1.179   6.145 -2.3894  0.5052  0.0884
13169SOL     OW40639   7.173   9.097   4.343 -0.2608 -0.5322  0.3900
13169SOL    HW140640   7.131   9.020   4.305  0.4261  0.1969 -2.0175
13169SOL    HW240641   7.227   9.063   4.415 -2.0162 -1.9125  1.1130
13170SOL     OW40642   0.257   3.022   2.799  0.3037 -0.2046  0.2822
13170SOL    HW140643   0.216   3.103   2.829 -0.1452 -0.4865  0.4327
13170SOL    HW240644   0.338   3.051   2.756  0.6644  0.2507  1.2391
13171SOL     OW40645   7.876   8.366   4.390 -0.2628 -0.5535  0.1374
13171SOL    HW140646   7.800   8.379   4.447 -0.8198  1.8101 -1.0038
13171SOL    HW240647   7.854   8.414   4.310  1.6377 -1.4547 -1.0014
13172SOL     OW40648   6.745   4.302   8.685  0.3359 -0.4883 -0.2086
13172SOL    HW140649   6.656   4.334   8.702  0.4123 -1.2671  2.0091
13172SOL    HW240650   6.732   4.221   8.637 -0.2160 -0.8646  0.5471
13173SOL     OW40651   5.986   4.835   2.161 -0.1182 -0.3106 -0.8164
13173SOL    HW140652   6.057   4.772   2.171  0.5749  0.3159 -1.6590
13173SOL    HW240653   5.955   4.851   2.250  2.4110  1.2465 -0.1268
13174SOL     OW40654   5.082   4.986   9.014 -0.0982 -0.1047  0.6803
13174SOL    HW140655   5.018   4.919   9.037  1.6349 -2.0809  0.0485
13174SOL    HW240656   5.061   5.009   8.923  1.3895 -2.4327 -0.3239
13175SOL     OW40657   3.435   0.448   5.640 -0.0812  0.6667  0.2719
13175SOL    HW140658   3.409   0.468   5.550  0.7913 -1.8724 -0.6416
13175SOL    HW240659   3.490   0.522   5.666 -1.1472  1.9170 -0.9075
13176SOL     OW40660   0.529   8.831   5.201  0.3591 -0.1569  0.8367
13176SOL    HW140661   0.479   8.760   5.161  0.1140 -0.1646  1.1520
13176SOL    HW240662   0.469   8.905   5.204  0.7723  0.2234  0.0494
13177SOL     OW40663   4.958   5.118   0.838 -0.2664 -0.8422  0.1847
13177SOL    HW140664   4.931   5.096   0.749  0.5762 -0.0953 -0.2741
13177SOL    HW240665   4.902   5.192   0.862 -0.5630 -1.1071  0.3250
13178SOL     OW40666   3.297   0.357   4.478 -0.2966  0.1685  0.1493
13178SOL    HW140667   3.235   0.316   4.539  0.1213  1.2398  1.3067
13178SOL    HW240668   3.309   0.446   4.510  0.5590  0.5147 -1.0394
13179SOL     OW40669   7.954   7.491   4.686  0.2308  0.6420  0.3351
13179SOL    HW140670   7.881   7.444   4.645  0.3216 -0.9107  1.8309
13179SOL    HW240671   7.912   7.554   4.743  0.0427  0.1285  0.7755
13180SOL     OW40672   8.572   6.346   4.748 -0.0461 -0.6285 -0.1948
13180SOL    HW140673   8.581   6.309   4.660 -1.1024 -1.3832 -0.0040
13180SOL    HW240674   8.652   6.396   4.761  0.4952 -1.1738 -1.2722
13181SOL     OW40675   3.025   4.314   0.233 -0.3550  0.4278  0.1595
13181SOL    HW140676   2.970   4.310   0.311 -0.8838  2.0375 -0.0808
13181SOL    HW240677   3.114   4.326   0.266 -0.6245  1.5195  0.5536
13182SOL     OW40678   6.778   6.567   3.217  0.5110  0.2057 -0.7724
13182SOL    HW140679   6.741   6.655   3.212 -2.8550 -1.0795 -0.6528
13182SOL    HW240680   6.830   6.568   3.298  0.2841  1.9665 -0.6079
13183SOL     OW40681   1.871   8.380   3.655  0.1780 -0.0315  0.4169
13183SOL    HW140682   1.841   8.447   3.594  1.5183  1.4842  1.3164
13183SOL    HW240683   1.940   8.333   3.607  1.4849  1.3915  0.8129
13184SOL     OW40684   7.331   1.178   0.596 -0.2885  0.5392 -0.1346
13184SOL    HW140685   7.410   1.139   0.559 -0.1419 -0.1750  0.8996
13184SOL    HW240686   7.303   1.117   0.664 -0.3061  1.9890  1.2243
13185SOL     OW40687   3.767   3.882   6.795  0.0775  0.1114  0.2480
13185SOL    HW140688   3.829   3.839   6.736  0.2327  1.2067 -0.4178
13185SOL    HW240689   3.722   3.810   6.840  1.4383 -0.7162  0.3432
13186SOL     OW40690   6.084   2.425   7.067  0.2067 -0.4664  0.4581
13186SOL    HW140691   6.104   2.500   7.123  0.4672 -0.8742  0.9160
13186SOL    HW240692   6.041   2.464   6.991  2.8760  0.4772 -0.6762
13187SOL     OW40693   3.465   0.927   6.984 -0.4859 -0.4723  0.6828
13187SOL    HW140694   3.441   0.972   6.903 -0.6494 -0.8288  0.5297
13187SOL    HW240695   3.533   0.981   7.023  0.1323 -0.7039 -0.0710
13188SOL     OW40696   0.013   7.652   4.615 -0.6955  0.5550  0.3987
13188SOL    HW140697  -0.032   7.570   4.594  0.1570 -0.1153  1.1381
13188SOL    HW240698  -0.034   7.687   4.691 -0.1361 -0.0159  1.0140
13189SOL     OW40699   6.975   8.064   1.665 -0.0626 -0.2593 -0.3130
13189SOL    HW140700   6.992   8.006   1.739  1.2268 -0.4568 -0.7489
13189SOL    HW240701   7.038   8.136   1.676 -1.0470  0.6250 -0.2625
13190SOL     OW40702   3.427   4.847   1.565 -0.1886  0.0270 -0.3389
13190SOL    HW140703   3.404   4.857   1.472 -2.6100  0.2171  0.2107
13190SOL    HW240704   3.449   4.935   1.594 -2.2016  0.5276 -0.1390
13191SOL     OW40705   4.627   0.724   2.372  0.5836 -0.3844  0.1118
13191SOL    HW140706   4.556   0.784   2.395 -0.1164 -1.1195 -0.0956
13191SOL    HW240707   4.681   0.773   2.310 -0.8192 -0.4673 -1.2313
13192SOL     OW40708   1.291   0.345   1.382  0.4324  0.3319 -0.4057
13192SOL    HW140709   1.370   0.323   1.333  1.7681 -1.0962  2.1535
13192SOL    HW240710   1.268   0.264   1.428 -1.2918  1.3014  0.5532
13193SOL     OW40711   0.613   0.250   7.720 -0.0010  0.3387  0.2810
13193SOL    HW140712   0.583   0.261   7.630  1.9296  2.7758 -0.1724
13193SOL    HW240713   0.538   0.212   7.766 -1.4981  0.2726 -2.0571
13194SOL     OW40714   0.444   7.989   2.486 -0.4082 -0.4431  0.1914
13194SOL    HW140715   0.531   7.957   2.463 -0.7736 -0.7744 -0.7830
13194SOL    HW240716   0.448   8.084   2.470 -0.4438 -0.5679 -0.5833
13195SOL     OW40717   0.578   6.167   5.100 -0.2874 -0.0123 -0.2223
13195SOL    HW140718   0.554   6.222   5.026 -2.2942 -0.1131  0.2867
13195SOL    HW240719   0.625   6.093   5.061  2.3040  1.8637 -0.9302
13196SOL     OW40720   2.560   6.110   4.262 -0.1606  0.5016  0.1436
13196SOL    HW140721   2.531   6.021   4.282 -0.4583  0.1635 -1.6177
13196SOL    HW240722   2.645   6.099   4.221 -0.1470  1.0384  0.0186
13197SOL     OW40723   3.400   4.993   0.820  0.1128  0.2284 -0.0221
13197SOL    HW140724   3.368   4.966   0.734  0.8023 -0.3810 -0.0992
13197SOL    HW240725   3.418   5.087   0.810 -0.9403  0.4289 -0.1801
13198SOL     OW40726   5.146   1.024   1.923 -0.2917 -0.0199  0.5961
13198SOL    HW140727   5.195   0.993   1.847  0.4504 -0.3019  1.1701
13198SOL    HW240728   5.128   1.116   1.905 -2.7638 -0.7746 -1.2601
13199SOL     OW40729   6.056   4.347   5.728 -0.4410 -0.8902  0.0083
13199SOL    HW140730   6.094   4.423   5.683  1.8318 -0.6801  2.0752
13199SOL    HW240731   6.078   4.273   5.671 -0.3958 -0.3121 -0.7475
13200SOL     OW40732   4.414   2.131   7.021 -0.0075  0.1274 -0.7866
13200SOL    HW140733   4.365   2.115   6.941 -0.2074  2.6722 -1.2341
13200SOL    HW240734   4.504   2.147   6.991  0.1922 -0.1849 -0.3659
13201SOL     OW40735   2.006   2.857   7.988  0.2433 -0.6978 -0.4271
13201SOL    HW140736   2.086   2.865   7.935 -1.3518  0.3834 -2.8123
13201SOL    HW240737   1.960   2.940   7.975 -0.4400 -0.4865  2.4785
13202SOL     OW40738   6.500   1.118   7.614 -0.2732  0.1362 -0.0455
13202SOL    HW140739   6.458   1.071   7.687 -0.1299  0.9954  0.6088
13202SOL    HW240740   6.435   1.116   7.544  0.1429 -1.9855 -0.4439
13203SOL     OW40741   7.898   8.538   1.833 -0.0594  0.4787 -0.0783
13203SOL    HW140742   7.935   8.603   1.772 -0.3683  0.2463 -0.5207
13203SOL    HW240743   7.974   8.491   1.867  0.0717  0.0388 -0.9433
13204SOL     OW40744   6.748   8.069   8.225  0.1068 -0.3780  0.1389
13204SOL    HW140745   6.738   8.110   8.311 -1.5423  0.6604 -0.4961
13204SOL    HW240746   6.757   7.976   8.245  0.1528 -0.1178  1.4635
13205SOL     OW40747   0.218   9.081   5.977  0.3895  0.7586 -0.1742
13205SOL    HW140748   0.186   9.082   6.067  0.6551  0.8174 -0.0780
13205SOL    HW240749   0.206   8.991   5.948  0.6668  0.6448  0.0556
13206SOL     OW40750   5.945   0.386   1.299  0.1677  0.1117 -0.1804
13206SOL    HW140751   6.010   0.394   1.230 -0.1894 -0.0147 -0.5356
13206SOL    HW240752   5.946   0.471   1.344  0.7280  0.0369 -0.0417
13207SOL     OW40753   0.596   3.214   6.524  0.1585 -0.2424 -0.1522
13207SOL    HW140754   0.687   3.223   6.496  0.4161  0.4778  0.8610
13207SOL    HW240755   0.601   3.210   6.620 -0.7367 -1.9429 -0.1285
13208SOL     OW40756   4.014   2.721   3.732 -0.2489  0.0404  0.4943
13208SOL    HW140757   4.051   2.709   3.644 -1.9045  0.6201 -0.3148
13208SOL    HW240758   3.926   2.684   3.726  0.0766 -1.1986  2.3391
13209SOL     OW40759   6.745   8.168   3.523  0.4759  0.0939 -0.1349
13209SOL    HW140760   6.711   8.080   3.509 -3.1055  1.0334  1.3174
13209SOL    HW240761   6.756   8.204   3.435 -0.1710 -1.0771 -0.7167
13210SOL     OW40762   1.671   8.326   6.657  0.5504  0.0102 -0.0364
13210SOL    HW140763   1.696   8.301   6.568 -0.0481  1.8075 -0.7667
13210SOL    HW240764   1.719   8.408   6.672  1.5820 -0.8651  1.7919
13211SOL     OW40765   8.406   2.717   4.109 -0.1964 -0.9399 -0.3187
13211SOL    HW140766   8.345   2.760   4.170  0.0351  0.8206 -1.2864
13211SOL    HW240767   8.366   2.631   4.093 -1.3867 -0.5931  0.5997
13212SOL     OW40768   1.868   2.428   3.409  0.2278 -0.1028  0.2399
13212SOL    HW140769   1.792   2.370   3.415  1.1810 -1.4112  0.3203
13212SOL    HW240770   1.868   2.476   3.492 -0.5389 -0.0697  0.2187
13213SOL     OW40771   7.901   8.846   3.548 -0.3365 -0.0003  0.1691
13213SOL    HW140772   7.891   8.916   3.612  0.3326  1.9368 -1.7204
13213SOL    HW240773   7.992   8.852   3.520 -0.7093 -0.5147 -1.2479
13214SOL     OW40774   0.797   5.530   5.322  0.2294 -0.6349  1.4288
13214SOL    HW140775   0.775   5.437   5.313 -1.4564 -0.1651  0.1686
13214SOL    HW240776   0.805   5.561   5.232 -0.5637  0.7345  1.8116
13215SOL     OW40777   3.480   5.040   5.369  0.1504 -0.2386  0.2801
13215SOL    HW140778   3.423   5.047   5.292  0.2162 -0.4150  0.2159
13215SOL    HW240779   3.429   4.990   5.432  0.6610 -1.3741 -0.1826
13216SOL     OW40780   4.540   6.123   4.583  0.3278  0.2249  0.6366
13216SOL    HW140781   4.501   6.153   4.665  0.9733 -1.0088  1.4211
13216SOL    HW240782   4.525   6.195   4.522 -0.2589  1.1254  1.7980
13217SOL     OW40783   2.846   5.295   1.884  0.2311 -0.0939 -0.0430
13217SOL    HW140784   2.769   5.253   1.846  0.8479 -3.1518  1.7580
13217SOL    HW240785   2.814   5.336   1.964  0.2283 -0.0191 -0.0817
13218SOL     OW40786   0.892   8.346   6.040  0.0448  0.3073  0.4535
13218SOL    HW140787   0.939   8.421   6.004  2.3142 -0.7429  1.0544
13218SOL    HW240788   0.878   8.369   6.132  3.1373 -0.9414  1.3748
13219SOL     OW40789   1.333   6.257   5.438  0.4658 -0.1986 -0.3425
13219SOL    HW140790   1.399   6.261   5.369  0.2478  0.3439 -0.5274
13219SOL    HW240791   1.273   6.329   5.417  0.3834 -0.0501  0.4013
13220SOL     OW40792   3.010   3.371   5.502  0.2328  0.5938 -0.2415
13220SOL    HW140793   3.094   3.325   5.496 -0.7630 -1.5078  1.0251
13220SOL    HW240794   2.956   3.333   5.433 -0.1500  0.8781 -0.1049
13221SOL     OW40795   4.323   2.531   1.532  0.4882  0.3193 -0.2651
13221SOL    HW140796   4.294   2.475   1.460  2.6833 -0.8504 -0.3179
13221SOL    HW240797   4.353   2.611   1.490 -1.2051  0.9698 -0.3205
13222SOL     OW40798   1.862   0.617   0.683  0.1001  0.1893 -0.0548
13222SOL    HW140799   1.913   0.639   0.605  0.3221 -1.2149 -0.3478
13222SOL    HW240800   1.924   0.623   0.755 -0.1044  1.4922  0.0209
13223SOL     OW40801   5.614   3.701   6.925 -0.1347  0.3178 -0.0876
13223SOL    HW140802   5.706   3.712   6.946 -0.1642 -0.0189  0.2124
13223SOL    HW240803   5.568   3.752   6.992 -0.2173 -0.5614  0.5410
13224SOL     OW40804   1.546   6.619   0.933  0.1464  0.1440  0.2077
13224SOL    HW140805   1.534   6.680   1.006  0.0602  1.3841 -0.8155
13224SOL    HW240806   1.464   6.625   0.883 -0.5916 -2.1155  0.9874
13225SOL     OW40807   5.256   0.891   6.900  0.3398  0.2073  0.2982
13225SOL    HW140808   5.334   0.867   6.950  1.3880  2.4723 -0.1176
13225SOL    HW240809   5.267   0.848   6.816 -0.6387 -2.3014  1.3530
13226SOL     OW40810   1.612   3.363   5.174 -0.2659  0.2568  0.4260
13226SOL    HW140811   1.569   3.390   5.255 -0.6187 -1.1615  0.7472
13226SOL    HW240812   1.543   3.365   5.108  0.0230  1.4180  0.1417
13227SOL     OW40813   7.589   3.170   5.105  0.1897 -0.0416 -0.3706
13227SOL    HW140814   7.516   3.174   5.167 -0.6341  1.0936 -1.3644
13227SOL    HW240815   7.667   3.164   5.160 -0.6198 -0.8736  0.7284
13228SOL     OW40816   2.172   8.445   7.143 -0.5728 -0.0667 -0.4347
13228SOL    HW140817   2.261   8.478   7.139 -1.6550  3.2131 -0.3669
13228SOL    HW240818   2.141   8.468   7.230 -2.0948  0.7147 -1.1407
13229SOL     OW40819   7.348   3.436   3.101 -0.3755  0.3382  0.0195
13229SOL    HW140820   7.323   3.344   3.110  0.5929  0.1286  0.7331
13229SOL    HW240821   7.267   3.480   3.074 -1.0297 -0.6065  0.3573
13230SOL     OW40822   7.402   6.057   0.414  0.4568  0.1299 -0.2940
13230SOL    HW140823   7.461   6.009   0.472 -0.0474  0.5378  0.5839
13230SOL    HW240824   7.409   6.148   0.443 -0.9898  0.1153  0.1725
13231SOL     OW40825   7.690   3.163   6.722 -0.3090  0.1751 -0.0201
13231SOL    HW140826   7.668   3.193   6.634 -0.7307 -0.7360 -0.2337
13231SOL    HW240827   7.709   3.244   6.771 -2.0580  0.8457 -0.3980
13232SOL     OW40828   1.751   8.231   7.974  0.3249  0.4904  0.2684
13232SOL    HW140829   1.705   8.148   7.970  0.5650  0.4115 -1.3468
13232SOL    HW240830   1.835   8.210   8.015 -0.5248  0.4171  2.0874
13233SOL     OW40831   0.410   4.770   6.423  0.2659  0.3882  0.0890
13233SOL    HW140832   0.344   4.790   6.489 -1.0811 -0.5561 -0.9257
13233SOL    HW240833   0.371   4.801   6.341  1.3488  0.3585 -0.4473
13234SOL     OW40834   4.218   2.840   5.813  0.1924  0.1309  0.1251
13234SOL    HW140835   4.305   2.838   5.775  0.5993 -1.2166  1.0732
13234SOL    HW240836   4.232   2.858   5.906 -0.5210 -0.3194  0.3325
13235SOL     OW40837   8.650   8.603   2.358  0.0580  0.1589 -0.1969
13235SOL    HW140838   8.582   8.667   2.381  0.6811  0.8268 -0.1638
13235SOL    HW240839   8.699   8.644   2.287  2.1009  0.9145  1.5272
13236SOL     OW40840   6.829   2.051   0.337  0.3923  0.3916 -0.2186
13236SOL    HW140841   6.777   2.122   0.376 -1.3587 -0.8660 -0.1796
13236SOL    HW240842   6.914   2.058   0.380 -0.0602  1.8499  0.5175
13237SOL     OW40843   7.209   5.447   4.057 -0.6151 -0.7900  0.3352
13237SOL    HW140844   7.216   5.469   4.150 -0.6060  0.2403  0.1068
13237SOL    HW240845   7.300   5.440   4.027 -0.4815  2.0592 -0.2691
13238SOL     OW40846   4.605   7.243   3.980  0.0626  1.0565 -0.6052
13238SOL    HW140847   4.524   7.293   3.968 -1.4800 -1.4232 -1.1828
13238SOL    HW240848   4.640   7.233   3.892 -0.1403  0.3475 -0.6085
13239SOL     OW40849   4.237   0.278   2.684  0.5696 -0.4039 -0.6573
13239SOL    HW140850   4.206   0.277   2.775 -0.8515  0.5327 -1.1017
13239SOL    HW240851   4.326   0.312   2.690  0.6263 -0.7120  0.4172
13240SOL     OW40852   0.942   4.776   5.918 -0.7348 -0.1633  0.0152
13240SOL    HW140853   0.978   4.690   5.940 -0.4814  0.4788  2.4238
13240SOL    HW240854   0.861   4.756   5.870 -0.6982 -1.7557  0.5465
13241SOL     OW40855   4.039   4.563   0.792  0.1661 -0.3261 -0.2326
13241SOL    HW140856   3.964   4.517   0.753 -0.5934 -0.8763  1.7060
13241SOL    HW240857   4.035   4.538   0.885  1.2563  1.6645  0.3958
13242SOL     OW40858   6.392   8.422   8.704 -0.1917  0.0968 -0.4116
13242SOL    HW140859   6.435   8.420   8.789 -0.7487 -2.4805 -0.0978
13242SOL    HW240860   6.445   8.365   8.649 -0.3141  1.0602 -1.5706
13243SOL     OW40861   1.008   8.431   1.107 -0.0973 -0.0396 -0.0556
13243SOL    HW140862   1.044   8.368   1.170 -0.4044  0.9080  1.1031
13243SOL    HW240863   0.915   8.438   1.131 -0.6555 -1.0011 -1.7748
13244SOL     OW40864   8.581   3.257   7.165 -0.2444 -0.1533 -0.4881
13244SOL    HW140865   8.515   3.289   7.226 -0.5478  1.4493 -1.5936
13244SOL    HW240866   8.553   3.291   7.079  1.5577 -0.1101 -1.1052
13245SOL     OW40867   4.010   3.038   4.549 -0.0650 -0.3641 -0.0701
13245SOL    HW140868   4.078   3.060   4.613 -0.1826 -2.7884  0.9579
13245SOL    HW240869   4.013   3.111   4.487  1.0413  1.3653  1.8646
13246SOL     OW40870   7.596   0.532   5.522  0.2345 -0.0444  0.5453
13246SOL    HW140871   7.637   0.590   5.586 -2.0754  0.1791  1.9500
13246SOL    HW240872   7.512   0.574   5.502  0.0785 -1.0864 -1.1944
13247SOL     OW40873   2.113   0.907   5.028 -0.2363 -0.1398  0.1175
13247SOL    HW140874   2.145   0.843   4.964  0.3467  0.0148  0.2576
13247SOL    HW240875   2.023   0.879   5.045 -0.6754  0.2651 -1.3516
13248SOL     OW40876   6.710   4.610   4.809 -0.4465  0.1280  0.4469
13248SOL    HW140877   6.758   4.532   4.835 -2.3466 -1.3130 -0.1382
13248SOL    HW240878   6.704   4.604   4.714 -1.1416  0.6337  0.4474
13249SOL     OW40879   0.666   3.030   7.284 -0.1434  0.4489  0.4242
13249SOL    HW140880   0.623   2.960   7.333  1.9850  0.0576  1.8624
13249SOL    HW240881   0.753   3.038   7.324  0.6719  2.0664 -1.4916
13250SOL     OW40882   5.765   5.526   5.845  0.0778  0.0231 -0.2282
13250SOL    HW140883   5.785   5.610   5.805  0.5705  0.5968  1.1562
13250SOL    HW240884   5.850   5.490   5.870 -0.2419 -0.0279  0.8355
13251SOL     OW40885   0.063   2.363   0.819  0.3335 -0.1618  0.2745
13251SOL    HW140886   0.128   2.405   0.875  0.5233  1.9834 -1.4424
13251SOL    HW240887   0.105   2.282   0.791  0.8259 -0.5254  1.9639
13252SOL     OW40888   6.335   4.065   2.849 -0.2320  0.4523 -0.3903
13252SOL    HW140889   6.309   4.152   2.880 -0.7591  0.5166 -0.9841
13252SOL    HW240890   6.252   4.019   2.836  0.0722 -0.6128  1.2250
13253SOL     OW40891   2.860   4.118   2.175  0.6953 -0.2757  0.2710
13253SOL    HW140892   2.781   4.160   2.142  1.1753  0.4445  0.0017
13253SOL    HW240893   2.922   4.123   2.103  1.0993 -0.5307  0.5926
13254SOL     OW40894   6.647   6.330   3.264 -0.2929  0.4553  0.0489
13254SOL    HW140895   6.682   6.417   3.283 -1.4663  0.6607  1.4886
13254SOL    HW240896   6.696   6.300   3.187  0.2122  2.3312 -0.4080
13255SOL     OW40897   3.144   2.058   1.854 -0.0824  0.1415 -0.0664
13255SOL    HW140898   3.088   1.987   1.884 -1.1692  0.4092 -1.3909
13255SOL    HW240899   3.186   2.090   1.934 -1.3704 -0.4481  0.8848
13256SOL     OW40900   6.642   6.010   7.410 -0.3099  0.0699  0.1907
13256SOL    HW140901   6.657   5.942   7.344 -1.2533  0.3950 -0.3793
13256SOL    HW240902   6.726   6.055   7.418  0.6343 -1.7724  1.3143
13257SOL     OW40903   7.072   0.674   7.418 -0.5291  0.0759  0.4925
13257SOL    HW140904   7.017   0.743   7.382 -2.7635 -1.3965  0.9369
13257SOL    HW240905   7.088   0.701   7.509  0.0102  0.7793  0.2034
13258SOL     OW40906   3.895   5.723   5.957 -0.7668 -0.6228 -0.1253
13258SOL    HW140907   3.815   5.680   5.986 -1.7615  0.8985 -0.5123
13258SOL    HW240908   3.951   5.725   6.034 -2.0314  0.3586  0.8037
13259SOL     OW40909   0.752   8.893   5.832 -0.1598 -0.1281  0.3785
13259SOL    HW140910   0.801   8.973   5.848  1.5308 -0.7432 -1.2666
13259SOL    HW240911   0.661   8.920   5.834  0.3722  2.0170 -0.8517
13260SOL     OW40912   0.173   8.674   1.051 -0.5502 -0.1599  0.0334
13260SOL    HW140913   0.163   8.755   1.000 -2.2713 -1.4324 -1.7987
13260SOL    HW240914   0.268   8.667   1.065 -0.3260  1.9729 -0.0502
13261SOL     OW40915   0.088   8.309   2.879 -0.8921  0.3306  0.2424
13261SOL    HW140916   0.109   8.336   2.968 -0.4834  0.2145  0.1816
13261SOL    HW240917   0.045   8.385   2.840 -1.9793  0.0550  0.8493
13262SOL     OW40918   4.313   2.413   2.410  0.2816 -0.4267  0.4695
13262SOL    HW140919   4.359   2.357   2.348  0.3302 -0.9918  1.0107
13262SOL    HW240920   4.379   2.436   2.476  0.2019  0.0748  0.3799
13263SOL     OW40921   0.231   5.344   0.456 -0.3295 -0.2074 -0.0512
13263SOL    HW140922   0.176   5.394   0.516 -0.5643  0.6702 -0.9672
13263SOL    HW240923   0.176   5.271   0.427  0.0118 -1.0248  1.2853
13264SOL     OW40924   4.777   1.462   5.855 -0.2643 -0.2163 -0.4707
13264SOL    HW140925   4.731   1.522   5.914 -1.5499 -1.9579  0.4184
13264SOL    HW240926   4.814   1.518   5.787 -0.9465  1.6055  0.5786
13265SOL     OW40927   1.130   7.703   8.219 -0.2202 -0.0033  0.3821
13265SOL    HW140928   1.047   7.714   8.174  0.1062 -0.6360 -0.3875
13265SOL    HW240929   1.175   7.787   8.207 -0.1750 -0.1323 -0.3988
13266SOL     OW40930   3.149   4.606   6.117  0.4340 -0.7828  0.3259
13266SOL    HW140931   3.138   4.516   6.148  0.3843 -0.8008  0.2553
13266SOL    HW240932   3.207   4.599   6.042  2.5262 -0.5016  1.8201
13267SOL     OW40933   3.357   5.925   6.989 -0.5831 -0.2522 -0.0664
13267SOL    HW140934   3.331   5.963   7.073 -0.8499 -0.2061 -0.1669
13267SOL    HW240935   3.442   5.964   6.970 -0.4867 -0.3229  0.2200
13268SOL     OW40936   5.390   7.677   5.425  0.2917  0.6251  0.2563
13268SOL    HW140937   5.470   7.683   5.373  0.3933 -0.0034  0.3406
13268SOL    HW240938   5.335   7.747   5.391  0.5795  0.5813 -0.3133
13269SOL     OW40939   0.966   6.519   6.136 -0.0693 -0.3958 -1.1098
13269SOL    HW140940   0.971   6.455   6.206  1.4812 -0.0120 -0.8314
13269SOL    HW240941   0.931   6.471   6.061  1.2945 -1.6525 -0.9803
13270SOL     OW40942   3.489   4.112   3.585  0.1838 -0.3247  0.4496
13270SOL    HW140943   3.500   4.175   3.656 -1.5865  0.7730 -0.1921
13270SOL    HW240944   3.420   4.053   3.616 -0.6470  0.2014 -0.3408
13271SOL     OW40945   7.365   6.825   6.370 -0.0948  0.3909 -0.9181
13271SOL    HW140946   7.300   6.873   6.318 -0.2931  0.7243 -0.3698
13271SOL    HW240947   7.427   6.791   6.305  0.2382  1.6773 -1.3059
13272SOL     OW40948   0.747   0.266   1.818 -0.1178  0.3584 -0.3499
13272SOL    HW140949   0.736   0.171   1.822  0.3222  0.2605 -1.2159
13272SOL    HW240950   0.660   0.301   1.839 -0.0585 -0.2075  0.8841
13273SOL     OW40951   0.429   6.957   3.325 -0.6570 -0.0888 -0.4414
13273SOL    HW140952   0.508   7.011   3.324 -0.3451 -0.5464 -0.8258
13273SOL    HW240953   0.461   6.867   3.323 -1.0746 -0.4447  3.1266
13274SOL     OW40954   8.035   1.384   1.174  0.0840 -0.0175  0.1160
13274SOL    HW140955   8.050   1.325   1.100 -0.2566  0.1548 -0.0941
13274SOL    HW240956   8.061   1.333   1.251  1.1101  0.0545 -0.1791
13275SOL     OW40957   0.215   6.118   5.404 -0.1359 -0.3356  0.2187
13275SOL    HW140958   0.179   6.040   5.447 -1.4941  1.2754  2.2254
13275SOL    HW240959   0.144   6.182   5.407  1.7020  1.8054  0.9677
13276SOL     OW40960   5.727   1.791   4.883 -0.5403 -0.3804 -0.0579
13276SOL    HW140961   5.783   1.851   4.834 -0.3250  0.1889  0.8604
13276SOL    HW240962   5.731   1.822   4.974  0.0928 -2.1578  0.5791
13277SOL     OW40963   8.389   5.679   3.948  0.1914  0.5774  0.8415
13277SOL    HW140964   8.398   5.703   4.040  1.5562  1.4139  0.5108
13277SOL    HW240965   8.458   5.614   3.933  1.6021  2.2429 -0.1584
13278SOL     OW40966   5.721   2.079   2.564 -0.8313  0.0035  0.1474
13278SOL    HW140967   5.663   2.111   2.633 -1.1576  0.2482 -0.2414
13278SOL    HW240968   5.808   2.112   2.589 -0.1603 -3.1975  2.6034
13279SOL     OW40969   2.804   7.599   7.217  0.3658 -0.5066  0.5016
13279SOL    HW140970   2.761   7.582   7.301  0.3674 -3.6505 -0.0203
13279SOL    HW240971   2.754   7.548   7.153  1.7759 -0.0864 -1.0153
13280SOL     OW40972   1.504   4.112   8.751 -0.0274  0.0613 -0.2063
13280SOL    HW140973   1.559   4.056   8.697  0.1459  0.2323 -0.2069
13280SOL    HW240974   1.445   4.052   8.795  1.6530 -0.3801  1.5764
13281SOL     OW40975   5.752   7.984   8.816 -0.7272 -0.2262 -0.1780
13281SOL    HW140976   5.688   7.915   8.797 -1.9183  0.4988  0.9965
13281SOL    HW240977   5.737   8.049   8.747 -0.5826 -0.4866 -0.4597
13282SOL     OW40978   4.537   3.255   2.153  0.1896  0.1021 -0.0758
13282SOL    HW140979   4.578   3.174   2.183  0.5727  1.0657  2.1326
13282SOL    HW240980   4.474   3.277   2.221 -0.8019  1.0564 -1.2372
13283SOL     OW40981   5.200   1.339   7.403  0.2233 -0.3142  0.1386
13283SOL    HW140982   5.183   1.414   7.346  2.2703  0.7595  0.8499
13283SOL    HW240983   5.119   1.328   7.453  0.3006  2.2873  0.9442
13284SOL     OW40984   2.305   1.615   5.215 -0.2909 -0.6179  0.4241
13284SOL    HW140985   2.211   1.604   5.226 -0.1846 -1.7076  0.3575
13284SOL    HW240986   2.319   1.610   5.121 -0.3309  1.1168  0.3012
13285SOL     OW40987   3.938   4.911   7.642 -0.1889 -0.1115 -0.1645
13285SOL    HW140988   3.883   4.858   7.585  1.2238 -1.3896 -0.4110
13285SOL    HW240989   3.877   4.954   7.702 -1.4911 -0.7819 -0.9769
13286SOL     OW40990   3.593   5.433   1.253 -0.1703  0.4333 -0.0095
13286SOL    HW140991   3.680   5.471   1.251 -0.5456  1.3376 -2.7442
13286SOL    HW240992   3.548   5.481   1.322  0.9068  1.3464  0.0901
13287SOL     OW40993   2.275   1.237   1.707  0.0656  0.0258 -0.4068
13287SOL    HW140994   2.190   1.276   1.723 -0.0422  0.2994 -1.5427
13287SOL    HW240995   2.265   1.192   1.623  0.8462 -0.5034 -0.2274
13288SOL     OW40996   2.005   5.626   1.765 -0.2783  0.4726 -0.2840
13288SOL    HW140997   1.931   5.646   1.821 -0.1723  1.2561 -0.4153
13288SOL    HW240998   2.038   5.711   1.737 -0.1524  0.0971 -1.3061
13289SOL     OW40999   6.961   1.541   8.845 -0.0540 -0.0934 -0.2045
13289SOL    HW141000   6.940   1.535   8.752  0.2811 -0.8504 -0.2393
13289SOL    HW241001   6.992   1.631   8.857 -1.6617  0.5300 -0.4855
13290SOL     OW41002   8.717   1.824   0.450 -0.2983 -0.0359 -0.5708
13290SOL    HW141003   8.783   1.852   0.513 -0.2180  0.6753 -0.9589
13290SOL    HW241004   8.634   1.826   0.498 -0.3325  1.1270 -0.6526
13291SOL     OW41005   1.466   1.498   0.235 -0.1854 -0.1675 -0.0907
13291SOL    HW141006   1.536   1.435   0.255  0.8331  1.2266  0.9286
13291SOL    HW241007   1.410   1.453   0.172  2.8173 -0.5723 -2.6799
13292SOL     OW41008   6.400   7.460   3.983 -0.5334 -0.2830 -0.4520
13292SOL    HW141009   6.403   7.416   3.898  0.4666  0.2585 -0.7129
13292SOL    HW241010   6.325   7.420   4.028 -1.2541 -0.3799 -1.6884
13293SOL     OW41011   6.888   3.176   4.191 -0.3260  0.6583 -0.2773
13293SOL    HW141012   6.795   3.153   4.188  0.0793 -1.1274 -1.2372
13293SOL    HW241013   6.899   3.222   4.274 -1.8886  0.0312  0.3263
13294SOL     OW41014   4.721   8.552   8.132 -0.3998  0.4174  0.5372
13294SOL    HW141015   4.802   8.520   8.091 -1.8021 -3.7197  0.5787
13294SOL    HW241016   4.652   8.529   8.071 -1.9286  0.2462  2.2386
13295SOL     OW41017   0.406   6.174   6.184 -0.1830 -0.2003  0.3592
13295SOL    HW141018   0.426   6.213   6.269  0.7854  0.9301 -0.3454
13295SOL    HW241019   0.362   6.244   6.135  1.6465  0.1099 -0.9551
13296SOL     OW41020   2.759   7.160   2.493 -0.0880 -0.2357  0.4080
13296SOL    HW141021   2.855   7.166   2.489  0.1117  1.5505  3.7580
13296SOL    HW241022   2.740   7.067   2.483  2.2039 -0.8908  1.4893
13297SOL     OW41023   5.949   4.059   0.193 -0.6987  0.7084 -0.7708
13297SOL    HW141024   5.901   3.990   0.239  1.2615 -1.2635 -1.5231
13297SOL    HW241025   6.025   4.077   0.248  0.3666  0.0928 -1.9838
13298SOL     OW41026   2.442   4.975   2.364 -0.1824  0.3795  0.3015
13298SOL    HW141027   2.358   4.938   2.389 -1.1807  2.0151 -0.4452
13298SOL    HW241028   2.427   5.070   2.365  1.5819  0.6930 -0.0903
13299SOL     OW41029   7.172   3.122   7.892 -0.3370  0.5166 -0.1428
13299SOL    HW141030   7.162   3.069   7.813  0.8180 -0.6046  0.4255
13299SOL    HW241031   7.096   3.100   7.946 -0.1840 -0.1238 -0.1775
13300SOL     OW41032   5.588   3.593   0.616 -0.1341 -0.0789  0.0382
13300SOL    HW141033   5.591   3.627   0.706  0.4470 -0.3314  0.1225
13300SOL    HW241034   5.545   3.661   0.566  1.0153  0.8038  0.2046
13301SOL     OW41035   2.841   3.316   1.366 -0.2289  0.4778  0.0052
13301SOL    HW141036   2.906   3.281   1.305 -0.0536 -0.3070  0.6265
13301SOL    HW241037   2.890   3.333   1.446 -1.2756 -3.4793  1.7686
13302SOL     OW41038   7.012   3.667   6.305 -0.3937 -0.3380  0.0132
13302SOL    HW141039   6.934   3.670   6.360 -1.0659 -1.1351 -0.8712
13302SOL    HW241040   7.084   3.649   6.366 -1.0584 -0.7305  0.6925
13303SOL     OW41041   1.084   5.622   2.179 -0.2353  0.3716  0.2942
13303SOL    HW141042   0.992   5.599   2.168 -0.1195  0.3740 -0.7955
13303SOL    HW241043   1.108   5.666   2.097  1.0144 -0.5842  0.1117
13304SOL     OW41044   3.326   1.167   1.657  0.4492 -0.0864 -0.4995
13304SOL    HW141045   3.257   1.233   1.654 -0.2495 -0.8223 -1.8059
13304SOL    HW241046   3.286   1.090   1.616  1.2920 -1.2769  0.8248
13305SOL     OW41047   2.046   3.656   5.215  0.2837  0.2763 -0.7722
13305SOL    HW141048   2.042   3.657   5.310 -0.3354 -0.2698 -0.7906
13305SOL    HW241049   2.063   3.747   5.191  0.8962  0.3409 -0.1304
13306SOL     OW41050   3.317   6.260   2.052 -0.1377  0.4535 -0.4837
13306SOL    HW141051   3.234   6.305   2.060 -0.9182 -0.9456 -0.3990
13306SOL    HW241052   3.332   6.254   1.957 -0.9003 -0.5982 -0.5555
13307SOL     OW41053   6.777   4.707   5.717  0.2122  0.1324 -0.3149
13307SOL    HW141054   6.706   4.770   5.703  0.7763  1.0486  0.8101
13307SOL    HW241055   6.802   4.678   5.629 -3.0946 -2.0205 -0.7245
13308SOL     OW41056   0.744   5.801   0.674  0.1447 -0.2453  0.3139
13308SOL    HW141057   0.694   5.739   0.727 -0.2203  1.0970  1.6241
13308SOL    HW241058   0.688   5.879   0.668  0.0261 -0.4363 -2.3800
13309SOL     OW41059   2.464   6.503   7.675  0.5805  0.4028 -0.2921
13309SOL    HW141060   2.377   6.478   7.645  0.7540 -1.8962  0.8609
13309SOL    HW241061   2.519   6.495   7.598  0.0979 -0.0481 -0.5999
13310SOL     OW41062   7.645   8.866   7.081 -0.3217  0.0210  0.1769
13310SOL    HW141063   7.735   8.840   7.061 -0.3621  0.3139 -0.3945
13310SOL    HW241064   7.591   8.794   7.049 -0.2905 -0.2114  0.6307
13311SOL     OW41065   9.012   0.882   8.912 -0.5751 -0.6558 -0.2105
13311SOL    HW141066   9.063   0.937   8.852 -2.9631  1.3331 -0.5618
13311SOL    HW241067   8.933   0.861   8.863 -1.0215 -1.9864  1.0182
13312SOL     OW41068   2.697   1.495   8.226  0.4404 -0.0696  0.8828
13312SOL    HW141069   2.709   1.573   8.172 -0.3907  0.2559  1.1507
13312SOL    HW241070   2.763   1.434   8.194 -0.4125 -0.1162 -0.9049
13313SOL     OW41071   8.654   1.949   0.142 -0.4755 -0.1968  1.0670
13313SOL    HW141072   8.561   1.932   0.159 -1.0189 -0.9797 -2.1061
13313SOL    HW241073   8.655   2.004   0.064  1.7224 -1.9276 -0.2476
13314SOL     OW41074   7.372   1.760   1.721 -0.1422  0.0812 -0.2649
13314SOL    HW141075   7.299   1.719   1.674 -0.9685  0.2080  0.8675
13314SOL    HW241076   7.449   1.744   1.666 -0.9079 -0.6745 -1.1304
13315SOL     OW41077   3.192   5.016   7.876 -0.4984 -0.0226  0.3235
13315SOL    HW141078   3.137   5.084   7.914 -1.0597 -1.0778  1.4723
13315SOL    HW241079   3.130   4.951   7.844  0.0531 -0.6421  0.4988
13316SOL     OW41080   7.187   7.353   8.109  0.4923 -0.0863  0.1383
13316SOL    HW141081   7.139   7.270   8.116 -2.5186  1.4802 -0.5279
13316SOL    HW241082   7.201   7.380   8.199 -0.0031 -0.5171  0.3494
13317SOL     OW41083   3.896   7.068   2.926 -0.0709  0.3225  0.5130
13317SOL    HW141084   3.963   7.004   2.950  0.3916  1.3962  2.2614
13317SOL    HW241085   3.839   7.072   3.003  0.0963  2.2402  0.5675
13318SOL     OW41086   1.489   9.028   1.268 -0.2030 -0.3879  0.6750
13318SOL    HW141087   1.510   9.106   1.217 -0.9471  0.2939  1.3992
13318SOL    HW241088   1.449   8.968   1.205 -1.0553  0.4215  0.4327
13319SOL     OW41089   7.128   2.324   5.002  0.5365  0.0857 -0.1977
13319SOL    HW141090   7.135   2.229   4.998 -1.3124 -0.0678 -1.3387
13319SOL    HW241091   7.179   2.356   4.927 -0.1697 -0.1492 -0.7990
13320SOL     OW41092   8.789   0.258   4.595 -0.0344 -0.4554 -0.3822
13320SOL    HW141093   8.742   0.341   4.596 -0.9177 -0.9417  0.6280
13320SOL    HW241094   8.768   0.217   4.679  0.5712 -1.5988 -0.7575
13321SOL     OW41095   3.866   4.680   2.426  0.1275 -0.2442 -0.2734
13321SOL    HW141096   3.887   4.687   2.519 -2.1145  3.4008  0.1720
13321SOL    HW241097   3.907   4.757   2.387 -2.2513  0.5446 -1.4465
13322SOL     OW41098   5.458   3.258   8.774 -0.1070 -0.2515  0.3950
13322SOL    HW141099   5.397   3.204   8.723 -2.3821  1.1047  1.5166
13322SOL    HW241100   5.410   3.338   8.792  1.9155  0.7608  1.7005
13323SOL     OW41101   3.806   1.714   6.476 -0.8698 -0.0558  0.1833
13323SOL    HW141102   3.765   1.639   6.434  0.9716 -0.5607 -0.8411
13323SOL    HW241103   3.825   1.684   6.565 -0.9695 -0.4745  0.0657
13324SOL     OW41104   1.080   8.020   8.344  0.2028 -0.0247  0.0949
13324SOL    HW141105   1.068   7.974   8.427  1.7046  1.8367  1.4426
13324SOL    HW241106   0.993   8.022   8.305 -0.1774 -2.6227  0.6558
13325SOL     OW41107   1.366   0.424   2.884  0.5105  0.4202 -0.2924
13325SOL    HW141108   1.450   0.443   2.842  0.1317  0.0301 -1.2628
13325SOL    HW241109   1.359   0.328   2.881  0.7003  0.3425  1.1416
13326SOL     OW41110   5.374   5.667   0.433 -0.3745 -0.0186 -0.9361
13326SOL    HW141111   5.462   5.660   0.472 -0.6105  0.3326 -0.3196
13326SOL    HW241112   5.380   5.743   0.376 -0.2339 -0.0927 -1.0227
13327SOL     OW41113   2.730   5.223   4.447 -0.1547 -0.4840 -0.1074
13327SOL    HW141114   2.709   5.293   4.510  1.4468 -0.1680  0.1069
13327SOL    HW241115   2.686   5.250   4.366  0.8538  1.0587 -0.1798
13328SOL     OW41116   1.613   3.568   4.558 -0.3192 -0.0796  0.7235
13328SOL    HW141117   1.544   3.546   4.496  2.4756  0.4537 -2.9568
13328SOL    HW241118   1.665   3.488   4.565  1.2200  0.7696 -0.3544
13329SOL     OW41119   3.090   1.590   8.492 -0.3043 -0.3565 -0.1044
13329SOL    HW141120   3.096   1.684   8.477  2.3397 -0.4618 -0.1493
13329SOL    HW241121   3.157   1.552   8.436 -0.8463 -2.2260  0.4186
13330SOL     OW41122   5.955   2.143   6.528  0.4309  0.5876  0.3708
13330SOL    HW141123   6.029   2.097   6.488 -0.5544 -0.9161  0.1557
13330SOL    HW241124   5.947   2.224   6.478  0.4972 -0.3197 -1.1961
13331SOL     OW41125   7.650   4.745   0.995 -0.3319 -0.0036 -0.2104
13331SOL    HW141126   7.705   4.807   1.042 -0.1560  1.1539 -1.8402
13331SOL    HW241127   7.712   4.682   0.958 -0.3014  0.0913 -0.3219
13332SOL     OW41128   5.355   2.298   6.754 -0.2162  0.5458  0.7519
13332SOL    HW141129   5.410   2.348   6.695 -0.5490  0.3910  0.3037
13332SOL    HW241130   5.393   2.210   6.755 -0.2586  0.5265  0.6987
13333SOL     OW41131   6.649   6.543   8.432 -0.2654 -0.3274 -0.1911
13333SOL    HW141132   6.713   6.515   8.367  2.6080  2.0021  1.4251
13333SOL    HW241133   6.593   6.605   8.385 -0.5209 -1.3331 -1.2705
13334SOL     OW41134   7.201   0.144   4.121 -0.9588  0.3707 -0.6595
13334SOL    HW141135   7.121   0.185   4.087 -0.9717 -0.2749 -1.4215
13334SOL    HW241136   7.170   0.078   4.183 -0.9252  1.8326  1.0101
13335SOL     OW41137   5.773   7.805   3.651 -0.1437 -0.3109  0.7977
13335SOL    HW141138   5.764   7.888   3.605  1.4953 -1.7958 -2.5249
13335SOL    HW241139   5.864   7.802   3.678 -0.7467 -0.1082  3.0955
13336SOL     OW41140   3.860   3.284   2.115  0.1275 -0.0262 -0.7492
13336SOL    HW141141   3.897   3.368   2.088  0.0661 -0.2816 -1.6630
13336SOL    HW241142   3.919   3.218   2.078 -0.6443 -0.4120 -1.3261
13337SOL     OW41143   7.003   7.766   0.423  0.3572  0.2746  0.1858
13337SOL    HW141144   6.914   7.779   0.456  0.0667 -0.8836 -0.0683
13337SOL    HW241145   7.022   7.674   0.444  0.2641 -0.4656 -2.5672
13338SOL     OW41146   8.909   9.037   6.367 -0.0494  0.5024 -0.3445
13338SOL    HW141147   8.826   9.003   6.399 -0.2380  2.6853  1.8400
13338SOL    HW241148   8.976   8.984   6.411 -0.2770 -0.4010 -1.0747
13339SOL     OW41149   0.036   8.146   7.862  0.0593  0.6373 -0.0576
13339SOL    HW141150   0.088   8.109   7.790 -0.2739  0.0433  0.0025
13339SOL    HW241151  -0.038   8.086   7.872  0.5565  0.2037  1.3667
13340SOL     OW41152   0.044   8.391   6.399 -0.5487 -0.1143 -0.1251
13340SOL    HW141153   0.073   8.458   6.461  1.4397 -0.8146 -0.2531
13340SOL    HW241154   0.118   8.377   6.341 -1.6896 -0.8919 -1.4671
13341SOL     OW41155   3.332   4.989   5.081  0.9798 -0.0337  0.2535
13341SOL    HW141156   3.358   5.079   5.103  0.6765 -0.3487  2.0697
13341SOL    HW241157   3.241   4.997   5.051  1.4003  0.4109 -0.9787
13342SOL     OW41158   0.437   7.456   2.779 -0.3998 -0.0748 -0.2885
13342SOL    HW141159   0.360   7.404   2.805  0.8635 -1.6726  0.5133
13342SOL    HW241160   0.480   7.403   2.712  0.9972 -0.1774  0.6334
13343SOL     OW41161   7.270   7.800   2.314 -0.6085 -0.4525  0.1203
13343SOL    HW141162   7.181   7.811   2.346 -0.2092 -0.1013  1.1539
13343SOL    HW241163   7.299   7.717   2.350 -0.6802 -0.8130 -0.6297
13344SOL     OW41164   5.584   4.786   6.418 -0.1436 -0.4762 -0.2240
13344SOL    HW141165   5.607   4.718   6.481  0.1707 -0.2323 -0.0738
13344SOL    HW241166   5.495   4.763   6.390  0.5679 -1.9161 -1.4575
13345SOL     OW41167   6.626   8.908   4.561 -0.0627  0.4411 -0.4581
13345SOL    HW141168   6.698   8.929   4.501  0.7568 -0.3856  0.2077
13345SOL    HW241169   6.663   8.921   4.648 -0.6132 -0.3086 -0.1006
13346SOL     OW41170   3.538   9.001   4.348  0.1373 -0.3564 -0.2681
13346SOL    HW141171   3.525   9.012   4.442 -0.4593  0.3230 -0.4241
13346SOL    HW241172   3.633   8.994   4.337  0.1749 -1.2538  0.4621
13347SOL     OW41173   6.981   4.208   1.132 -0.3353  0.1142 -0.3270
13347SOL    HW141174   6.965   4.263   1.209  1.7158 -0.0102  0.2595
13347SOL    HW241175   6.941   4.255   1.059 -1.3036  0.8161  0.6178
13348SOL     OW41176   7.119   6.743   4.543 -0.3908  0.5210 -0.6990
13348SOL    HW141177   7.199   6.710   4.585 -0.8029 -1.2103 -1.1998
13348SOL    HW241178   7.073   6.789   4.613  0.2951  0.1791 -0.0057
13349SOL     OW41179   7.553   6.925   6.745  0.3102 -0.7453  0.3668
13349SOL    HW141180   7.646   6.904   6.748  0.6574  0.7599  0.8271
13349SOL    HW241181   7.547   6.999   6.684 -0.8171 -1.8400 -0.9268
13350SOL     OW41182   2.037   3.727   8.271  0.0772  0.1654  0.1708
13350SOL    HW141183   2.117   3.767   8.235  0.2800  0.4111  0.8770
13350SOL    HW241184   2.045   3.635   8.248  0.8671  0.0800  0.7534
13351SOL     OW41185   1.169   3.439   3.318 -0.1927  0.3164  0.8615
13351SOL    HW141186   1.181   3.379   3.245  0.7608 -0.0141  1.2675
13351SOL    HW241187   1.095   3.495   3.293 -0.6621 -0.5954  0.1957
13352SOL     OW41188   8.897   8.557   1.036  0.5475  0.0419 -0.4838
13352SOL    HW141189   8.927   8.601   0.956 -1.1385  0.0840 -1.1298
13352SOL    HW241190   8.821   8.506   1.008 -1.1079  1.3608  1.3864
13353SOL     OW41191   3.560   2.897   3.525 -0.3141 -0.0491  0.2545
13353SOL    HW141192   3.571   2.991   3.509 -1.6904 -0.1076 -1.2452
13353SOL    HW241193   3.490   2.891   3.589 -1.5823 -0.0548 -1.0716
13354SOL     OW41194   5.084   6.898   0.340  0.3139 -0.1192 -0.4030
13354SOL    HW141195   5.064   6.817   0.294  1.0356  0.1863 -1.2761
13354SOL    HW241196   5.176   6.916   0.318 -0.5533  2.3771 -2.4958
13355SOL     OW41197   1.496   2.656   1.491 -0.5244  0.2103  0.7498
13355SOL    HW141198   1.422   2.596   1.484 -1.0726  0.8061  1.2654
13355SOL    HW241199   1.462   2.740   1.460 -0.8438  1.1087  3.2998
13356SOL     OW41200   5.990   3.351   8.207 -0.0099 -0.0527 -0.8667
13356SOL    HW141201   5.965   3.319   8.293 -1.7175  1.4940 -0.7135
13356SOL    HW241202   5.915   3.330   8.151 -0.8641  2.7588 -0.9309
13357SOL     OW41203   5.150   3.668   0.411 -0.0354 -0.1670 -0.1669
13357SOL    HW141204   5.075   3.658   0.352 -0.0445 -2.8857  0.1533
13357SOL    HW241205   5.115   3.712   0.488 -0.7201  0.7008 -0.9516
13358SOL     OW41206   5.025   2.338   6.706  0.2117  0.6066  0.0430
13358SOL    HW141207   5.021   2.386   6.789  0.6006  0.8708 -0.0933
13358SOL    HW241208   5.117   2.315   6.696 -0.1313 -1.1979  0.6890
13359SOL     OW41209   8.831   6.157   7.593  0.5143  0.1201 -0.5795
13359SOL    HW141210   8.843   6.077   7.542  0.6655 -1.3721  1.6679
13359SOL    HW241211   8.737   6.160   7.611  0.7213 -0.4856  0.7139
13360SOL     OW41212   1.873   8.712   2.060  0.2247 -0.5047 -0.2501
13360SOL    HW141213   1.857   8.723   1.966  0.1030  0.0008 -0.1708
13360SOL    HW241214   1.934   8.782   2.083  1.1966 -1.3473 -0.1860
13361SOL     OW41215   6.944   4.291   3.612 -0.7920  0.2389 -0.6087
13361SOL    HW141216   6.929   4.225   3.543 -1.0528  0.7422 -1.0377
13361SOL    HW241217   6.999   4.357   3.569 -3.5374  2.1951 -1.3534
13362SOL     OW41218   5.074   1.997   1.893  0.6465 -0.0467 -0.1314
13362SOL    HW141219   5.066   1.953   1.809  0.7078 -0.4822  0.0871
13362SOL    HW241220   5.158   1.967   1.928  0.6814  0.2313  0.0313
13363SOL     OW41221   0.504   6.879   5.590 -0.4811  0.0710 -0.2274
13363SOL    HW141222   0.446   6.837   5.527  0.3914 -0.1717 -0.8851
13363SOL    HW241223   0.571   6.813   5.608 -1.4554 -0.4005  2.0402
13364SOL     OW41224   2.890   3.589   5.596 -0.0779  0.3332  0.0610
13364SOL    HW141225   2.860   3.632   5.515 -2.1601  0.3529  0.7695
13364SOL    HW241226   2.943   3.515   5.566 -0.7555  0.3772 -1.3334
13365SOL     OW41227   1.243   6.146   3.550  0.3905 -0.4546 -0.1938
13365SOL    HW141228   1.284   6.173   3.632  1.9983 -1.5019 -0.6075
13365SOL    HW241229   1.306   6.086   3.510 -1.9304 -2.9934 -0.3932
13366SOL     OW41230   0.140   1.951   4.297 -0.1753 -0.1493 -0.0319
13366SOL    HW141231   0.143   2.002   4.378 -0.1526 -0.7261  0.3379
13366SOL    HW241232   0.050   1.920   4.291  0.0288 -0.8280  0.2375
13367SOL     OW41233   5.266   4.125   5.598  0.5256 -0.2163  0.2696
13367SOL    HW141234   5.182   4.127   5.552  1.8303 -2.5627 -2.5756
13367SOL    HW241235   5.271   4.037   5.636  1.0405  0.4729  1.8837
13368SOL     OW41236   8.548   1.630   4.464  0.1985  0.1424  0.1863
13368SOL    HW141237   8.627   1.682   4.475  1.9907 -1.6325 -2.9187
13368SOL    HW241238   8.488   1.686   4.415  0.6230  0.5675  0.1474
13369SOL     OW41239   6.940   8.444   8.303 -0.0318  0.2031  0.4129
13369SOL    HW141240   6.970   8.353   8.312  0.5949  0.3798  0.1755
13369SOL    HW241241   6.896   8.463   8.386 -1.3370 -0.7301 -0.0200
13370SOL     OW41242   2.398   7.014   6.346 -0.0031 -0.0486 -0.2009
13370SOL    HW141243   2.461   6.961   6.395  1.4220  1.0521 -0.7599
13370SOL    HW241244   2.451   7.059   6.281 -1.4892  0.4557 -1.1083
13371SOL     OW41245   7.248   2.331   2.799 -0.6496 -0.7184 -0.1677
13371SOL    HW141246   7.207   2.371   2.875  0.9968 -1.0454  0.9516
13371SOL    HW241247   7.328   2.382   2.785 -0.4291 -1.2787 -1.0688
13372SOL     OW41248   0.881   6.054   7.242  0.7343 -0.1890  0.2734
13372SOL    HW141249   0.825   6.112   7.293  0.8135 -1.0553  1.3716
13372SOL    HW241250   0.822   5.987   7.208  0.7601  0.1224 -0.4151
13373SOL     OW41251   7.416   5.780   0.342 -0.0283  0.3360 -0.0713
13373SOL    HW141252   7.418   5.734   0.426  3.2978  0.0132 -0.2268
13373SOL    HW241253   7.412   5.872   0.366  0.9209  0.2487  0.4429
13374SOL     OW41254   4.526   4.774   6.583  0.1036 -0.3787  0.1277
13374SOL    HW141255   4.463   4.806   6.518  0.0448  0.6875  0.7027
13374SOL    HW241256   4.595   4.840   6.586  0.7014 -0.9935  0.3152
13375SOL     OW41257   1.316   7.196   7.788 -0.0549  0.2969 -0.1527
13375SOL    HW141258   1.250   7.127   7.780  2.6354 -2.5025 -0.2080
13375SOL    HW241259   1.371   7.168   7.861  1.4932  2.0884 -0.5572
13376SOL     OW41260   4.044   7.586   7.066  1.1591 -0.2064 -0.4117
13376SOL    HW141261   3.950   7.590   7.081  1.0915  1.1174 -1.0387
13376SOL    HW241262   4.066   7.493   7.073 -0.0250 -0.4221  0.6651
13377SOL     OW41263   8.456   8.346   3.201  0.0031  0.2393 -0.3791
13377SOL    HW141264   8.510   8.362   3.123  1.5972 -0.3642  0.5581
13377SOL    HW241265   8.439   8.251   3.199  0.0030  0.2299 -0.0164
13378SOL     OW41266   2.706   6.673   2.462 -0.8709  0.1907 -0.1610
13378SOL    HW141267   2.746   6.614   2.399 -0.2032  0.7127 -0.2316
13378SOL    HW241268   2.706   6.623   2.544  0.0404  0.2218 -0.1306
13379SOL     OW41269   0.390   1.410   3.134  0.3760  0.1190 -0.8017
13379SOL    HW141270   0.380   1.347   3.063  0.2149  0.1942 -0.8470
13379SOL    HW241271   0.320   1.474   3.120  1.5188  1.2348 -1.6917
13380SOL     OW41272   3.441   0.221   0.942  0.4373 -0.4711  0.3499
13380SOL    HW141273   3.446   0.235   1.036  0.1617 -2.1806  0.6397
13380SOL    HW241274   3.520   0.173   0.920  0.5450 -0.0049 -0.3192
13381SOL     OW41275   0.303   5.995   0.316  0.1450 -0.5317  0.6977
13381SOL    HW141276   0.395   5.973   0.328 -0.0522 -2.2012 -0.4574
13381SOL    HW241277   0.259   5.956   0.391  0.3109 -0.2413  0.9460
13382SOL     OW41278   4.173   1.902   6.463 -0.4906  0.4017  0.0263
13382SOL    HW141279   4.116   1.871   6.533 -2.8318  0.2913 -1.7947
13382SOL    HW241280   4.121   1.969   6.418  1.8209  2.1170 -0.2588
13383SOL     OW41281   7.778   5.684   2.933  0.2200 -0.0259  0.3269
13383SOL    HW141282   7.739   5.767   2.905 -1.1693 -0.2621  1.4377
13383SOL    HW241283   7.764   5.625   2.859 -1.0826  0.0559  0.4722
13384SOL     OW41284   3.465   8.451   2.264 -0.1833  0.3832 -0.2639
13384SOL    HW141285   3.516   8.370   2.270 -1.8534 -0.8106 -1.2923
13384SOL    HW241286   3.424   8.460   2.349  0.0887  0.1971 -0.1104
13385SOL     OW41287   6.632   2.732   8.679  0.2176  0.1206 -0.3946
13385SOL    HW141288   6.682   2.693   8.751 -1.0095 -0.0110  0.4023
13385SOL    HW241289   6.582   2.659   8.643 -1.2615  0.7080  0.4028
13386SOL     OW41290   3.949   7.255   6.941  0.6370 -0.1901  0.3527
13386SOL    HW141291   4.013   7.278   6.874  0.4716 -3.3005 -1.0262
13386SOL    HW241292   3.991   7.279   7.024  1.8490  1.5456 -0.7018
13387SOL     OW41293   0.617   0.384   6.915  0.0388  0.4053  0.5217
13387SOL    HW141294   0.592   0.317   6.851 -0.1678 -1.0706  2.0729
13387SOL    HW241295   0.612   0.466   6.867  1.2658 -0.7492 -1.7583
13388SOL     OW41296   7.208   2.485   7.578  0.0806  0.0070 -0.0056
13388SOL    HW141297   7.144   2.439   7.523  0.4420 -1.4271  0.7046
13388SOL    HW241298   7.292   2.445   7.553  0.7434  1.8909 -0.9613
13389SOL     OW41299   7.045   7.001   5.790  0.4071  0.5937 -0.3229
13389SOL    HW141300   7.055   6.908   5.770  0.4277 -0.2972  3.2176
13389SOL    HW241301   6.970   7.029   5.736 -2.0799 -2.4925  1.1872
13390SOL     OW41302   2.380   1.852   1.189 -0.6592  0.5841 -0.6008
13390SOL    HW141303   2.394   1.828   1.281 -0.9863  1.4005 -0.3278
13390SOL    HW241304   2.320   1.927   1.193 -0.8734  0.4671 -1.4940
13391SOL     OW41305   0.119   0.585   7.407  0.2655  0.4268  0.0243
13391SOL    HW141306   0.128   0.499   7.449 -0.8755  0.3491  0.1628
13391SOL    HW241307   0.090   0.643   7.478 -0.6010  0.5402 -0.4083
13392SOL     OW41308   7.486   6.478   3.503 -0.1126  0.1360 -0.2108
13392SOL    HW141309   7.397   6.500   3.474  0.3335  2.3987 -0.0199
13392SOL    HW241310   7.480   6.477   3.599  0.1900  1.0284 -0.1701
13393SOL     OW41311   6.751   4.020   3.792 -0.0913  0.3586 -0.0111
13393SOL    HW141312   6.726   4.082   3.723 -2.4618  0.3013  0.7397
13393SOL    HW241313   6.735   4.067   3.874  1.5878 -0.0019  0.5769
13394SOL     OW41314   0.504   2.681   1.839  0.0422  0.0384 -0.4097
13394SOL    HW141315   0.437   2.748   1.842 -0.7396 -0.5961 -2.2604
13394SOL    HW241316   0.539   2.677   1.928 -0.8687  1.8749  0.0604
13395SOL     OW41317   3.149   0.862   8.835 -0.2439  0.0870  0.5696
13395SOL    HW141318   3.155   0.766   8.837 -0.5332  0.0731  0.7919
13395SOL    HW241319   3.101   0.881   8.755  0.8945  0.1045 -0.1247
13396SOL     OW41320   4.818   5.159   4.140  0.4195  0.3495  0.3106
13396SOL    HW141321   4.773   5.077   4.119 -1.2397  1.3988 -0.4323
13396SOL    HW241322   4.754   5.209   4.191  1.5657  1.0306  1.1207
13397SOL     OW41323   3.557   6.630   6.576 -0.3003 -0.3249 -0.2828
13397SOL    HW141324   3.499   6.567   6.619  0.0024  0.1375  0.8303
13397SOL    HW241325   3.572   6.593   6.489 -0.3319 -1.6553  0.2571
13398SOL     OW41326   3.011   4.356   6.230 -1.1221  0.0896 -0.4944
13398SOL    HW141327   2.951   4.360   6.305 -1.4676 -0.3311 -0.7458
13398SOL    HW241328   2.996   4.270   6.192  1.4553 -1.1040  0.9086
13399SOL     OW41329   6.080   3.120   7.108  0.4044  0.2185 -0.5256
13399SOL    HW141330   5.996   3.089   7.073 -0.1862  0.2182  0.8322
13399SOL    HW241331   6.057   3.165   7.189  1.9519 -1.8841  1.1802
13400SOL     OW41332   3.306   4.180   1.288  0.2119  0.1370 -0.0233
13400SOL    HW141333   3.393   4.144   1.303  1.8942  3.4243 -0.9844
13400SOL    HW241334   3.278   4.142   1.205  0.3241 -1.5371  0.6681
13401SOL     OW41335   3.234   0.478   2.627  0.7384  0.1241 -0.8560
13401SOL    HW141336   3.194   0.461   2.713 -0.5072 -0.1483 -1.4614
13401SOL    HW241337   3.293   0.552   2.642  1.0776 -0.3699  0.3796
13402SOL     OW41338   0.341   8.995   2.911 -0.5780  0.2710  0.0880
13402SOL    HW141339   0.279   9.032   2.847  0.9310  0.0639 -1.5503
13402SOL    HW241340   0.343   9.060   2.981 -0.6403  1.5997 -1.0965
13403SOL     OW41341   8.690   3.581   0.356  0.2779 -0.2273 -0.0770
13403SOL    HW141342   8.595   3.574   0.366  0.3922 -0.0499  1.2700
13403SOL    HW241343   8.724   3.503   0.400  0.7190 -1.1583 -1.9504
13404SOL     OW41344   1.017   0.771   2.102  0.1557 -0.7848  0.3765
13404SOL    HW141345   0.986   0.838   2.041  1.3510 -1.1954 -0.7138
13404SOL    HW241346   1.010   0.812   2.188 -1.8818 -0.3073  0.0433
13405SOL     OW41347   4.361   7.297   5.840  0.0897 -0.6151  0.2404
13405SOL    HW141348   4.356   7.357   5.766  1.0907 -0.2010  0.4915
13405SOL    HW241349   4.448   7.312   5.877  0.0540 -1.6574  0.7858
13406SOL     OW41350   4.829   4.725   2.621 -0.1097 -0.1253  0.2127
13406SOL    HW141351   4.844   4.630   2.617 -0.0241 -0.0890 -0.3395
13406SOL    HW241352   4.915   4.763   2.603  0.0745  0.0598  1.3915
13407SOL     OW41353   4.301   0.836   9.048 -0.9909  0.1249 -0.0338
13407SOL    HW141354   4.310   0.928   9.021 -0.8997  0.6492  1.6400
13407SOL    HW241355   4.261   0.841   9.135 -1.1210 -1.4412  0.0168
13408SOL     OW41356   5.076   5.618   4.405 -0.2347 -0.1626 -1.0707
13408SOL    HW141357   5.054   5.578   4.489 -1.6125 -0.0872 -1.3722
13408SOL    HW241358   5.025   5.699   4.403  1.4787  0.9691 -1.0515
13409SOL     OW41359   3.059   6.124   4.140  0.3422 -0.5082  0.0647
13409SOL    HW141360   3.133   6.184   4.128 -0.8229  0.7097 -1.5023
13409SOL    HW241361   3.080   6.050   4.083  0.1214  0.0942 -0.8243
13410SOL     OW41362   8.097   8.346   7.046 -0.3648 -0.0351  0.2051
13410SOL    HW141363   8.160   8.285   7.007 -0.6544 -0.0387 -0.2620
13410SOL    HW241364   8.128   8.357   7.136  1.2566  1.2208 -0.4402
13411SOL     OW41365   4.015   7.981   8.055 -0.0351  0.3539  0.0884
13411SOL    HW141366   4.090   7.921   8.058  0.1568  0.5629 -0.4105
13411SOL    HW241367   3.954   7.940   7.995 -0.4860  0.0057  0.7705
13412SOL     OW41368   8.686   0.263   5.546  0.0957  0.1281 -0.0244
13412SOL    HW141369   8.624   0.224   5.608  2.4869 -1.0726  1.8105
13412SOL    HW241370   8.648   0.246   5.460 -0.7274 -3.2899  0.8546
13413SOL     OW41371   1.644   0.288   4.573 -0.7362  0.0303 -0.1069
13413SOL    HW141372   1.737   0.311   4.567 -0.7699  0.1036 -0.3409
13413SOL    HW241373   1.615   0.330   4.654 -0.5976  0.1250 -0.1054
13414SOL     OW41374   6.188   2.668   8.360  0.1313  0.4658 -0.3949
13414SOL    HW141375   6.170   2.584   8.320 -1.6693  1.3800 -1.6566
13414SOL    HW241376   6.126   2.674   8.433  0.5445  0.5353 -0.0437
13415SOL     OW41377   1.600   1.295   6.741  0.0937  0.0846 -0.8087
13415SOL    HW141378   1.637   1.340   6.817 -0.1635  1.4250 -1.4531
13415SOL    HW241379   1.675   1.275   6.686  0.2689 -0.7958 -0.2852
13416SOL     OW41380   7.822   3.376   0.050  0.0280  0.4138 -0.5662
13416SOL    HW141381   7.797   3.294   0.093  0.1539 -0.6438 -2.3885
13416SOL    HW241382   7.741   3.426   0.044 -0.0505  0.4312  0.5626
13417SOL     OW41383   8.401   3.670   4.751  0.1336 -0.0231  0.2777
13417SOL    HW141384   8.480   3.656   4.805  0.4741  0.4999 -0.0776
13417SOL    HW241385   8.430   3.655   4.661 -0.0035  0.8444  0.0816
13418SOL     OW41386   1.547   4.193   1.252 -0.1902 -0.0720  0.1562
13418SOL    HW141387   1.575   4.269   1.201 -0.3856  0.2965  0.5857
13418SOL    HW241388   1.476   4.154   1.200 -0.8698  0.7139  0.4684
13419SOL     OW41389   7.407   0.476   4.412 -0.2730 -0.2851  0.2314
13419SOL    HW141390   7.374   0.508   4.496  0.1443 -0.7935  0.5998
13419SOL    HW241391   7.349   0.403   4.390  0.2422 -0.8071  0.5908
13420SOL     OW41392   1.756   0.274   4.921 -0.5140 -0.7358 -0.3177
13420SOL    HW141393   1.792   0.192   4.889  0.5323 -0.2812 -0.3374
13420SOL    HW241394   1.794   0.341   4.865  1.7379  0.1311  2.0555
13421SOL     OW41395   0.440   4.105   0.276  0.2548 -0.0429  0.3229
13421SOL    HW141396   0.494   4.121   0.199 -1.4331 -0.4985 -1.0117
13421SOL    HW241397   0.477   4.163   0.343  0.9533  1.3609 -1.2027
13422SOL     OW41398   0.933   2.673   6.274  0.5399  0.1509 -0.0271
13422SOL    HW141399   0.936   2.595   6.218 -2.3170 -0.6569  0.7458
13422SOL    HW241400   0.903   2.640   6.359 -0.6508  2.0591  0.3553
13423SOL     OW41401   4.442   4.674   8.451 -0.1549 -0.4527  0.0717
13423SOL    HW141402   4.406   4.589   8.474  0.5378  0.0532  3.6127
13423SOL    HW241403   4.534   4.670   8.478  0.0434  1.2342 -0.2166
13424SOL     OW41404   2.396   5.181   7.034 -0.3641 -0.3463  0.3965
13424SOL    HW141405   2.324   5.239   7.057 -0.3437 -0.0399 -0.2892
13424SOL    HW241406   2.426   5.213   6.949  1.1510  0.0792  1.0667
13425SOL     OW41407   0.547   8.778   2.631 -0.6108 -0.4905  1.2411
13425SOL    HW141408   0.574   8.810   2.717 -2.5663 -0.2152  1.8032
13425SOL    HW241409   0.487   8.844   2.598 -0.3881 -0.9097 -0.0692
13426SOL     OW41410   2.852   6.120   0.556 -0.1063  0.3642  0.0514
13426SOL    HW141411   2.850   6.205   0.599  0.0853 -0.2225  1.2552
13426SOL    HW241412   2.884   6.139   0.467 -1.7596  1.7576 -0.2845
13427SOL     OW41413   6.147   6.833   7.513  0.0294 -0.3464  0.0300
13427SOL    HW141414   6.074   6.871   7.563 -0.5755 -2.1925  0.6160
13427SOL    HW241415   6.107   6.801   7.432  0.6119  0.5862 -0.6501
13428SOL     OW41416   1.496   7.617   8.049  0.4679  0.1062  0.1611
13428SOL    HW141417   1.468   7.704   8.020  1.2348  0.2299 -0.2254
13428SOL    HW241418   1.415   7.565   8.049  0.4515  0.0017 -2.5515
13429SOL     OW41419   2.001   2.244   6.718 -0.2100  0.0051 -0.5869
13429SOL    HW141420   2.006   2.302   6.641  0.2151  1.2715  0.3570
13429SOL    HW241421   2.084   2.197   6.719  0.7984  1.6914  0.3474
13430SOL     OW41422   4.659   2.348   8.993  0.4423 -0.0314 -0.0126
13430SOL    HW141423   4.568   2.371   8.976  0.4170 -0.0791  0.0618
13430SOL    HW241424   4.707   2.430   8.979  0.5390 -0.2708 -1.2356
13431SOL     OW41425   0.950   5.242   5.809  0.9338  0.2287 -0.6912
13431SOL    HW141426   0.942   5.156   5.851 -1.2103  1.2060  1.1034
13431SOL    HW241427   1.045   5.254   5.797  1.3767 -1.7576  0.3351
13432SOL     OW41428   1.310   5.163   5.389  0.5547 -0.0471  0.0875
13432SOL    HW141429   1.263   5.127   5.464 -0.3240  1.1791  0.1589
13432SOL    HW241430   1.260   5.131   5.313  0.9201 -0.5561  0.0560
13433SOL     OW41431   1.425   3.535   0.115 -0.0735 -0.2226  0.0113
13433SOL    HW141432   1.412   3.629   0.109  1.6336  0.0137 -0.5108
13433SOL    HW241433   1.413   3.502   0.026  1.0562 -0.2284 -0.1536
13434SOL     OW41434   2.295   5.159   5.141  0.6057  0.6854  0.7300
13434SOL    HW141435   2.221   5.101   5.122  1.8246 -0.7413  0.1200
13434SOL    HW241436   2.324   5.132   5.228 -1.3973  3.3140  2.3560
13435SOL     OW41437   5.762   6.658   5.933  0.0518 -0.1367  0.2640
13435SOL    HW141438   5.724   6.663   6.021  0.4899  0.1599  0.4390
13435SOL    HW241439   5.811   6.576   5.932 -0.2054 -0.2911  0.1918
13436SOL     OW41440   8.815   1.754   8.580 -0.1411  0.1413  0.0693
13436SOL    HW141441   8.885   1.819   8.583 -1.0327  1.1018  1.0868
13436SOL    HW241442   8.855   1.675   8.616  0.7419  0.3473 -0.4325
13437SOL     OW41443   3.835   2.341   0.191  0.0934  0.3596  0.3446
13437SOL    HW141444   3.762   2.284   0.167 -0.1577  1.0274 -0.5494
13437SOL    HW241445   3.876   2.363   0.107  3.8380 -3.1506  0.9243
13438SOL     OW41446   7.266   3.271   8.453 -0.0864 -0.2971  0.1987
13438SOL    HW141447   7.228   3.314   8.377  0.4808 -0.4655 -0.1916
13438SOL    HW241448   7.361   3.277   8.438  0.0193 -2.3724 -0.2939
13439SOL     OW41449   3.946   1.652   7.710  0.6132  0.2911  0.4795
13439SOL    HW141450   3.951   1.708   7.633  1.1814  0.5502  0.6968
13439SOL    HW241451   3.892   1.700   7.772 -0.3594 -0.1923  0.0242
13440SOL     OW41452   2.074   0.470   5.252  0.5427  0.7089 -0.3937
13440SOL    HW141453   1.996   0.415   5.243  1.3286 -0.4632 -0.2809
13440SOL    HW241454   2.088   0.508   5.165  0.1723  0.4677 -0.5583
13441SOL     OW41455   7.955   4.358   7.418  0.1429  0.0501  0.2507
13441SOL    HW141456   7.973   4.349   7.512  1.4150  1.6842  0.2061
13441SOL    HW241457   7.860   4.365   7.413 -0.0534 -1.3019  1.2714
13442SOL     OW41458   0.835   1.835   3.508 -0.7659 -0.4414 -0.1635
13442SOL    HW141459   0.919   1.875   3.528  0.0767 -1.4742 -1.4962
13442SOL    HW241460   0.771   1.905   3.522  0.3829  0.5720  0.1313
13443SOL     OW41461   8.841   7.696   8.573 -0.6354 -0.1850  0.1105
13443SOL    HW141462   8.772   7.720   8.511 -1.5413 -0.8649  0.8255
13443SOL    HW241463   8.836   7.601   8.579 -0.9449 -0.1091  1.6092
13444SOL     OW41464   2.217   7.865   7.477 -0.1727 -0.2077  0.1909
13444SOL    HW141465   2.236   7.917   7.399 -0.9915  0.2207  0.2576
13444SOL    HW241466   2.170   7.788   7.444 -1.0676  0.2734  0.2961
13445SOL     OW41467   3.586   3.440   5.563  0.0848  0.0775 -0.6777
13445SOL    HW141468   3.622   3.501   5.627 -0.8534 -0.6779  0.6176
13445SOL    HW241469   3.499   3.476   5.543 -0.1456 -0.3961 -0.5286
13446SOL     OW41470   2.100   8.700   1.728  0.1187 -0.1366 -0.3576
13446SOL    HW141471   2.078   8.628   1.788  0.3162  0.2423  0.1726
13446SOL    HW241472   2.152   8.659   1.659  1.4638 -0.2549  0.7005
13447SOL     OW41473   6.681   7.404   3.909 -0.0067  0.5703  0.2006
13447SOL    HW141474   6.697   7.496   3.929  1.8601  1.0213 -2.6855
13447SOL    HW241475   6.594   7.403   3.870 -0.3650  0.9512  0.9716
13448SOL     OW41476   4.215   5.218   8.619 -0.0095 -0.1208 -0.0461
13448SOL    HW141477   4.169   5.275   8.557  0.4618 -1.8372 -2.0502
13448SOL    HW241478   4.216   5.132   8.577 -1.3985 -1.9207  3.1936
13449SOL     OW41479   5.059   1.775   8.132  0.0228 -0.4509 -0.3138
13449SOL    HW141480   5.015   1.847   8.176 -0.3995 -0.0656 -1.3298
13449SOL    HW241481   5.000   1.700   8.144  1.3466 -1.1796  2.3891
13450SOL     OW41482   3.923   0.488   6.538  0.0793  0.1161 -0.1508
13450SOL    HW141483   4.012   0.488   6.573  0.6826 -0.7885 -1.6474
13450SOL    HW241484   3.919   0.413   6.480 -1.5711  0.3418 -0.3831
13451SOL     OW41485   5.078   0.570   8.570  0.1129  0.3190  0.3077
13451SOL    HW141486   5.141   0.588   8.500  0.8525  0.3331  0.9645
13451SOL    HW241487   5.132   0.538   8.643 -0.5378  1.1303  1.1727
13452SOL     OW41488   8.926   1.589   1.409 -0.0783  0.5372 -0.2358
13452SOL    HW141489   8.873   1.640   1.347 -1.4739  0.7167  1.0369
13452SOL    HW241490   8.953   1.652   1.475  0.7121  0.1920 -0.2242
13453SOL     OW41491   5.719   0.418   4.593  0.4543 -0.6294  0.0718
13453SOL    HW141492   5.710   0.435   4.499  0.3995  1.4221  0.4034
13453SOL    HW241493   5.806   0.452   4.615 -0.0199  0.0395  0.9748
13454SOL     OW41494   6.534   1.847   5.593  0.6664 -0.4848  0.4268
13454SOL    HW141495   6.523   1.938   5.566  0.5900 -0.3232  0.9774
13454SOL    HW241496   6.448   1.807   5.580  1.0380 -0.8512 -1.1178
13455SOL     OW41497   5.458   4.400   1.445 -0.7152  0.3855  0.7651
13455SOL    HW141498   5.521   4.410   1.516 -1.0503  0.3935  1.0591
13455SOL    HW241499   5.502   4.342   1.383 -0.5096  0.2022  1.0800
13456SOL     OW41500   2.371   0.947   8.650  0.0395  0.5725 -0.2301
13456SOL    HW141501   2.435   0.923   8.716  0.4080 -0.4801 -0.9547
13456SOL    HW241502   2.299   0.986   8.700 -0.5493 -1.9375  1.0219
13457SOL     OW41503   3.732   4.536   1.453 -0.6854  0.0213 -0.4954
13457SOL    HW141504   3.653   4.482   1.455  0.1075 -1.2189 -0.8899
13457SOL    HW241505   3.703   4.622   1.422 -1.9948 -0.1674  0.1683
13458SOL     OW41506   6.005   3.586   8.068 -0.4965  0.4008 -0.1636
13458SOL    HW141507   6.097   3.607   8.058 -0.4318  0.2865  0.1803
13458SOL    HW241508   6.005   3.499   8.109 -0.7488 -0.2419 -1.4729
13459SOL     OW41509   5.510   5.291   1.458  0.5915 -0.5148  0.2699
13459SOL    HW141510   5.438   5.308   1.396  0.5903 -0.3004  0.3297
13459SOL    HW241511   5.541   5.204   1.434  0.7857 -0.3162 -0.2318
13460SOL     OW41512   4.048   1.622   1.236  0.1225 -0.0321  0.8647
13460SOL    HW141513   3.970   1.567   1.238  1.8202 -2.8858 -1.8624
13460SOL    HW241514   4.036   1.678   1.159  1.1401 -1.2345 -0.2037
13461SOL     OW41515   0.695   8.781   8.099 -0.5063  0.3829  0.0736
13461SOL    HW141516   0.788   8.759   8.089 -0.4156  1.3335 -1.5748
13461SOL    HW241517   0.668   8.737   8.180  1.5627  0.7081  0.9883
13462SOL     OW41518   5.155   3.035   3.620  0.1154 -0.2148  0.5920
13462SOL    HW141519   5.118   2.990   3.544 -1.5836  0.9902  0.6579
13462SOL    HW241520   5.096   3.014   3.692 -1.0423  2.3876  0.5298
13463SOL     OW41521   5.500   7.032   8.510 -0.8444  0.2747  0.1892
13463SOL    HW141522   5.504   6.944   8.471  0.9466  1.2658 -2.0761
13463SOL    HW241523   5.515   7.017   8.604  0.4700 -1.7625 -0.2782
13464SOL     OW41524   1.372   1.673   7.335  0.2095 -0.1071 -0.0955
13464SOL    HW141525   1.466   1.656   7.326  0.1671  0.7033 -2.7561
13464SOL    HW241526   1.329   1.596   7.298 -0.1957 -0.1857  0.5130
13465SOL     OW41527   9.100   1.203   6.090 -0.1618  0.0205 -0.3213
13465SOL    HW141528   9.033   1.162   6.144 -0.8164  0.3890 -0.8276
13465SOL    HW241529   9.181   1.158   6.113 -0.9019 -1.8007 -1.1079
13466SOL     OW41530   2.136   4.404   4.114  0.1674  0.0929 -0.3783
13466SOL    HW141531   2.107   4.495   4.129 -2.2180 -0.8296  1.2384
13466SOL    HW241532   2.216   4.396   4.166 -0.9433  0.6500  1.5420
13467SOL     OW41533   4.484   6.508   2.603 -0.6081  0.2368 -0.2558
13467SOL    HW141534   4.495   6.417   2.631 -2.2622 -0.0551 -0.4011
13467SOL    HW241535   4.515   6.561   2.676 -0.1466 -0.4487  0.0492
13468SOL     OW41536   4.832   2.363   0.750  0.3458  0.0759 -0.2013
13468SOL    HW141537   4.770   2.291   0.736 -1.2243  0.6797  2.9035
13468SOL    HW241538   4.845   2.367   0.844  4.8750  0.3343 -0.6106
13469SOL     OW41539   2.180   0.805   1.689 -0.0296  0.4671  0.4053
13469SOL    HW141540   2.144   0.801   1.778 -2.8450  0.6785 -0.6050
13469SOL    HW241541   2.129   0.875   1.647  3.6523  2.8947 -0.4546
13470SOL     OW41542   0.940   6.677   8.552 -0.0448 -0.1317  0.5452
13470SOL    HW141543   0.972   6.736   8.620  1.3755  1.6726 -1.5730
13470SOL    HW241544   1.009   6.612   8.542  0.0944  0.0596  0.2775
13471SOL     OW41545   3.142   5.370   7.953 -0.1975 -0.0090 -0.1898
13471SOL    HW141546   3.168   5.440   7.894  0.3213 -0.5027 -0.5597
13471SOL    HW241547   3.049   5.386   7.971 -0.0178  0.9205 -0.0472
13472SOL     OW41548   3.218   8.215   1.212 -0.8773  0.0630 -0.3929
13472SOL    HW141549   3.182   8.198   1.125 -0.3857  1.8521 -0.9859
13472SOL    HW241550   3.194   8.306   1.231  0.7922  0.3781  0.4380
13473SOL     OW41551   6.997   1.678   1.178  0.6310 -0.3440 -0.1689
13473SOL    HW141552   6.912   1.680   1.222 -0.0921  0.6345 -1.5133
13473SOL    HW241553   6.998   1.757   1.125  1.4535 -1.4296 -1.8710
13474SOL     OW41554   2.499   4.318   5.221  0.7742 -0.3182 -0.1480
13474SOL    HW141555   2.566   4.355   5.164  1.9385 -0.3455  1.1443
13474SOL    HW241556   2.537   4.237   5.254  0.7905  0.4201  1.8024
13475SOL     OW41557   7.602   1.844   0.467  0.1744 -0.1210 -0.4633
13475SOL    HW141558   7.600   1.852   0.562 -0.1969  1.4099 -0.5580
13475SOL    HW241559   7.613   1.751   0.450  0.4453 -0.3950  1.0751
13476SOL     OW41560   6.380   5.834   1.200 -0.3840 -0.3050 -0.2371
13476SOL    HW141561   6.331   5.915   1.183  0.0565  0.2643  1.0407
13476SOL    HW241562   6.358   5.812   1.291  0.3476 -1.0283 -0.2234
13477SOL     OW41563   3.145   6.399   8.844  0.0774 -0.1448  0.4550
13477SOL    HW141564   3.112   6.310   8.839 -0.7181  0.1636 -0.1388
13477SOL    HW241565   3.163   6.413   8.937  0.3275 -0.9595  0.5317
13478SOL     OW41566   1.922   2.347   4.027 -0.9184 -0.0525  0.4651
13478SOL    HW141567   1.982   2.411   3.990  0.7372 -1.2063  1.0228
13478SOL    HW241568   1.874   2.395   4.094  0.7306  0.5026  1.2983
13479SOL     OW41569   6.425   0.168   0.882  0.5393  0.9051  0.2165
13479SOL    HW141570   6.400   0.091   0.830  3.0661  0.6385 -0.7427
13479SOL    HW241571   6.479   0.133   0.953 -0.5976  1.5633  1.4454
13480SOL     OW41572   5.300   4.373   7.451  0.1491  0.2773 -0.0584
13480SOL    HW141573   5.273   4.465   7.458  1.0721  0.5650 -0.0672
13480SOL    HW241574   5.384   4.377   7.405  1.3714 -0.3433  1.9625
13481SOL     OW41575   0.787   6.626   1.579  0.2635 -0.9529 -0.4434
13481SOL    HW141576   0.735   6.679   1.518 -0.0630 -2.2597 -1.3536
13481SOL    HW241577   0.867   6.606   1.530 -0.0101 -2.0265 -0.4746
13482SOL     OW41578   1.782   7.715   8.290 -0.0330 -1.0278  0.6766
13482SOL    HW141579   1.697   7.758   8.292  0.0333 -0.9221  1.7134
13482SOL    HW241580   1.763   7.624   8.269 -0.7273 -1.6542  3.5612
13483SOL     OW41581   4.020   0.546   5.133 -0.4896 -0.0617 -0.0300
13483SOL    HW141582   4.089   0.567   5.197  1.1615 -2.4365 -0.8860
13483SOL    HW241583   3.942   0.531   5.187  0.7341 -1.5225  1.4324
13484SOL     OW41584   1.733   8.398   0.917 -0.7981 -0.7471 -0.2203
13484SOL    HW141585   1.707   8.422   0.828 -0.4115  1.2476  0.1587
13484SOL    HW241586   1.664   8.434   0.973  0.2417  0.2844  0.4434
13485SOL     OW41587   3.836   3.837   7.413 -0.3810 -0.4935 -0.4546
13485SOL    HW141588   3.868   3.824   7.502  1.7709 -2.0234 -1.3908
13485SOL    HW241589   3.882   3.914   7.381  1.1238 -1.6470 -1.1866
13486SOL     OW41590   3.744   3.820   8.962 -0.0952 -0.8395  0.2630
13486SOL    HW141591   3.760   3.800   9.054  0.8154  0.0160  0.3022
13486SOL    HW241592   3.797   3.897   8.944 -1.1071 -0.3407 -0.7045
13487SOL     OW41593   7.253   4.532   0.122  0.4366  0.5243  0.4533
13487SOL    HW141594   7.305   4.542   0.042  0.2396  3.2890  0.5662
13487SOL    HW241595   7.232   4.622   0.148 -1.6942 -0.3908  2.2013
13488SOL     OW41596   5.374   1.438   5.040  0.4210 -0.0508  0.8659
13488SOL    HW141597   5.446   1.497   5.060 -0.4472  0.9534  1.0684
13488SOL    HW241598   5.348   1.402   5.125  1.6257 -1.5919  0.6473
13489SOL     OW41599   3.927   8.807   5.862  0.1241 -0.5541 -0.2790
13489SOL    HW141600   3.983   8.732   5.883 -0.0164 -1.0096 -1.4484
13489SOL    HW241601   3.969   8.848   5.787  0.2250  0.5822  0.3909
13490SOL     OW41602   2.409   8.250   3.633 -0.6481  0.3437 -0.1413
13490SOL    HW141603   2.450   8.232   3.718  1.2250 -1.2913 -1.3014
13490SOL    HW241604   2.376   8.166   3.604 -1.0956  0.8469 -1.1277
13491SOL     OW41605   6.310   0.617   4.913  0.2293 -0.2394  0.2061
13491SOL    HW141606   6.348   0.539   4.952 -1.4728 -0.6678  1.0815
13491SOL    HW241607   6.357   0.628   4.830  3.4616  0.2959  1.9313
13492SOL     OW41608   0.604   3.793   0.757  0.1232 -0.1181  0.0411
13492SOL    HW141609   0.553   3.715   0.778  0.4536 -0.3642 -0.0508
13492SOL    HW241610   0.551   3.841   0.693 -0.0463 -0.3036  0.0436
13493SOL     OW41611   7.628   4.956   7.050 -0.0516 -0.3870  0.0235
13493SOL    HW141612   7.596   5.039   7.087  1.6440  0.1408  0.4024
13493SOL    HW241613   7.599   4.958   6.959 -2.3777 -0.6762  0.6903
13494SOL     OW41614   6.139   6.794   5.124 -0.4560  0.1407  0.3256
13494SOL    HW141615   6.089   6.800   5.205  0.5191 -0.2184  0.9719
13494SOL    HW241616   6.110   6.869   5.072 -1.0059  0.4442  1.0547
13495SOL     OW41617   4.723   7.525   3.320  0.2520 -0.1652  0.1902
13495SOL    HW141618   4.705   7.473   3.242 -1.9434  0.0526  0.4971
13495SOL    HW241619   4.818   7.539   3.317  0.4543 -1.4622 -1.5865
13496SOL     OW41620   1.421   7.409   6.813 -0.1181 -0.0320  0.7196
13496SOL    HW141621   1.325   7.405   6.822 -0.5089  0.8101 -2.1468
13496SOL    HW241622   1.444   7.495   6.850 -0.8328  0.8094 -0.7039
13497SOL     OW41623   1.403   1.856   5.621 -0.0474 -0.2423  0.4060
13497SOL    HW141624   1.364   1.933   5.579  2.1248  0.8756  0.2910
13497SOL    HW241625   1.348   1.783   5.592 -0.1077  0.7849 -2.4781
13498SOL     OW41626   0.439   0.109   6.372 -0.0819 -0.3990  0.7124
13498SOL    HW141627   0.466   0.027   6.331 -1.6980 -0.4378 -0.3813
13498SOL    HW241628   0.413   0.165   6.299  0.7012  0.9868  1.4668
13499SOL     OW41629   6.318   6.620   0.280  0.1263  0.3298  0.6044
13499SOL    HW141630   6.411   6.598   0.271 -0.5714 -2.5251 -0.9887
13499SOL    HW241631   6.310   6.706   0.239  1.8646  0.1176 -0.3007
13500SOL     OW41632   7.197   4.777   2.309  0.0889  0.1227 -0.2453
13500SOL    HW141633   7.164   4.866   2.297  3.7028  1.7204  0.3739
13500SOL    HW241634   7.277   4.774   2.257  0.4671 -2.5432  0.3458
13501SOL     OW41635   3.990   1.546   7.317 -0.2674  0.1883 -0.3923
13501SOL    HW141636   4.040   1.521   7.395  2.7811  0.2802 -2.1649
13501SOL    HW241637   3.977   1.463   7.270 -1.4830  0.2307 -0.1597
13502SOL     OW41638   6.799   0.710   8.025 -0.1443 -0.2906  0.0641
13502SOL    HW141639   6.781   0.687   7.935  1.8444 -2.1235  0.0486
13502SOL    HW241640   6.827   0.802   8.021 -1.6296  0.1516 -0.8982
13503SOL     OW41641   7.649   6.036   6.044 -0.6077  0.1890 -0.1355
13503SOL    HW141642   7.671   5.970   6.110  1.1453  1.2750  0.4300
13503SOL    HW241643   7.591   6.097   6.091 -0.7464  0.0426 -0.1152
13504SOL     OW41644   8.671   6.848   6.643  0.8757  0.4735 -0.4494
13504SOL    HW141645   8.647   6.796   6.720 -0.6283  2.2328  0.3662
13504SOL    HW241646   8.600   6.831   6.581 -0.1691  2.2160  0.2028
13505SOL     OW41647   8.182   1.894   7.774 -0.0768 -0.1918 -0.1859
13505SOL    HW141648   8.239   1.906   7.698  0.5591 -0.5916  0.2194
13505SOL    HW241649   8.105   1.949   7.756  0.5132  0.4899 -0.6605
13506SOL     OW41650   1.328   7.106   2.189 -0.5902  0.2931 -0.1472
13506SOL    HW141651   1.236   7.083   2.198 -0.5218  0.4846  1.3266
13506SOL    HW241652   1.330   7.175   2.123 -1.4076 -0.2337 -0.7385
13507SOL     OW41653   6.145   7.765   5.022  0.1192 -0.1427  0.2565
13507SOL    HW141654   6.141   7.860   5.027  0.4837 -0.1024 -0.1451
13507SOL    HW241655   6.238   7.745   5.009 -0.1757 -0.4370 -1.7498
13508SOL     OW41656   0.064   5.889   5.497 -0.1227 -0.2905  0.0789
13508SOL    HW141657   0.052   5.877   5.403  0.0484  0.0555  0.0119
13508SOL    HW241658  -0.021   5.866   5.535  0.0799 -1.3255 -0.0717
13509SOL     OW41659   5.906   6.187   1.304  0.0411 -0.6464 -0.8969
13509SOL    HW141660   5.964   6.122   1.265 -1.1788 -2.3565  0.0166
13509SOL    HW241661   5.935   6.192   1.396  0.6760  0.7957 -1.1387
13510SOL     OW41662   3.706   4.656   8.671  0.2190 -0.3172  0.6013
13510SOL    HW141663   3.790   4.684   8.635 -0.3842  0.5645 -0.1620
13510SOL    HW241664   3.666   4.603   8.603 -1.2777  2.0197 -0.4887
13511SOL     OW41665   8.329   2.080   3.820 -0.0371 -0.2349  0.1278
13511SOL    HW141666   8.366   2.052   3.904 -1.6137  1.5613  1.5117
13511SOL    HW241667   8.235   2.063   3.828 -0.1987 -0.1934 -1.3681
13512SOL     OW41668   9.109   6.584   0.792 -0.5040 -0.7241  0.6370
13512SOL    HW141669   9.137   6.529   0.719  4.1385  0.1936  1.4156
13512SOL    HW241670   9.088   6.522   0.862 -0.1555 -1.5489  0.0266
13513SOL     OW41671   5.483   4.456   3.486 -0.1521  0.1119 -0.3324
13513SOL    HW141672   5.513   4.544   3.465  1.2076  0.1458  1.4586
13513SOL    HW241673   5.423   4.467   3.560 -0.2721 -0.4371 -0.3369
13514SOL     OW41674   1.887   3.887   8.459 -0.4159  0.5612 -0.1547
13514SOL    HW141675   1.943   3.957   8.494 -2.0524  1.3401  1.0642
13514SOL    HW241676   1.944   3.837   8.401  2.1574  0.0196  2.5811
13515SOL     OW41677   1.698   4.746   5.969  0.2575  0.1309  0.7443
13515SOL    HW141678   1.607   4.750   5.999  0.4028 -0.4494  1.2723
13515SOL    HW241679   1.693   4.695   5.888  0.1106  0.1363  0.7488
13516SOL     OW41680   6.122   6.434   8.726  0.1140  0.2218  0.6370
13516SOL    HW141681   6.190   6.500   8.711 -0.2720  0.9463  1.9245
13516SOL    HW241682   6.129   6.413   8.819  0.7745 -2.2168  0.1025
13517SOL     OW41683   4.142   4.121   6.448  0.0451 -0.1692 -0.4206
13517SOL    HW141684   4.236   4.104   6.436  0.8043  2.0538  1.6360
13517SOL    HW241685   4.134   4.147   6.540 -1.8375  4.0159 -1.5447
13518SOL     OW41686   8.836   4.768   5.552  0.2908  0.7536 -0.6007
13518SOL    HW141687   8.926   4.740   5.536 -0.0320 -0.3393 -0.5667
13518SOL    HW241688   8.812   4.727   5.635 -0.6512  0.0138 -1.2164
13519SOL     OW41689   1.793   4.764   0.393 -0.4758 -0.2185  0.1724
13519SOL    HW141690   1.851   4.840   0.390  0.4607 -0.8790  0.8152
13519SOL    HW241691   1.738   4.772   0.315  0.5108  0.4045 -0.4835
13520SOL     OW41692   5.581   2.276   4.005  0.5473 -0.0112  0.3683
13520SOL    HW141693   5.529   2.307   3.931 -2.4958 -3.2822  0.8755
13520SOL    HW241694   5.525   2.289   4.081  1.9356 -0.4816  1.5243
13521SOL     OW41695   4.113   0.437   6.296  0.2953 -0.0635 -0.3853
13521SOL    HW141696   4.126   0.342   6.293  2.3657  0.2089 -1.5374
13521SOL    HW241697   4.141   0.468   6.210  0.8079  1.7139  0.3862
13522SOL     OW41698   5.212   4.158   0.183  0.0574 -0.7296 -0.7274
13522SOL    HW141699   5.210   4.206   0.100 -1.9207 -0.8488 -0.7833
13522SOL    HW241700   5.209   4.066   0.157  0.6471 -0.8145 -0.5257
13523SOL     OW41701   1.906   4.243   4.383 -0.3445  0.4033  0.1434
13523SOL    HW141702   1.992   4.285   4.390  0.5010 -1.1012 -0.5580
13523SOL    HW241703   1.923   4.151   4.404 -2.1303  0.3793  1.6967
13524SOL     OW41704   4.572   2.567   1.025  0.3517 -0.4752 -0.6946
13524SOL    HW141705   4.482   2.568   1.057  0.6935  2.0661  0.3645
13524SOL    HW241706   4.575   2.493   0.963 -1.8476 -1.9468  0.8428
13525SOL     OW41707   0.410   2.639   6.198 -0.1439  0.4077 -0.1311
13525SOL    HW141708   0.472   2.587   6.249 -0.0952  1.9037  1.4177
13525SOL    HW241709   0.426   2.612   6.107  1.0402 -1.0210  0.4537
13526SOL     OW41710   8.978   9.102   4.874  0.0685 -0.5161 -0.0250
13526SOL    HW141711   8.969   9.019   4.919  0.3493 -1.3444 -1.4469
13526SOL    HW241712   8.903   9.154   4.904 -1.2993 -2.0277 -0.7097
13527SOL     OW41713   6.613   6.654   2.744  0.4217  0.2752 -0.2797
13527SOL    HW141714   6.677   6.593   2.709  0.0099  0.0184 -0.5916
13527SOL    HW241715   6.664   6.715   2.798  0.7424 -0.8771  0.7743
13528SOL     OW41716   3.709   5.222   5.248  0.5300 -0.8096  0.4043
13528SOL    HW141717   3.633   5.185   5.292 -1.3292  1.3545 -0.7924
13528SOL    HW241718   3.725   5.305   5.294 -0.0038  0.3743 -1.4666
13529SOL     OW41719   5.135   0.029   4.419  0.7075 -0.1423  0.2701
13529SOL    HW141720   5.152  -0.046   4.477 -1.2044 -1.1670 -0.4043
13529SOL    HW241721   5.162  -0.002   4.333  1.7558  0.6998  0.2722
13530SOL     OW41722   1.516   0.326   0.654  0.0532  0.5032 -0.6927
13530SOL    HW141723   1.566   0.384   0.711  1.4107 -0.7694 -0.5160
13530SOL    HW241724   1.569   0.247   0.648 -0.9958 -0.1383 -2.1675
13531SOL     OW41725   2.482   3.239   6.805  0.3048  0.6604  0.0409
13531SOL    HW141726   2.433   3.157   6.806 -0.9020  1.3614 -0.0087
13531SOL    HW241727   2.479   3.268   6.714  0.3301  0.9854  0.1411
13532SOL     OW41728   8.094   5.579   3.984  0.2737  0.1121 -0.0202
13532SOL    HW141729   8.174   5.617   3.948 -0.5770  0.5190 -1.5843
13532SOL    HW241730   8.073   5.508   3.924  0.4899 -1.2738  1.4776
13533SOL     OW41731   9.047   8.879   1.821  0.1440 -0.2223  0.5051
13533SOL    HW141732   8.988   8.848   1.753  0.9769 -1.6934  0.4211
13533SOL    HW241733   9.009   8.962   1.850 -1.8273 -1.0103  0.2965
13534SOL     OW41734   6.917   2.842   2.493  0.1982  0.1537 -0.0202
13534SOL    HW141735   6.951   2.886   2.571 -0.4109 -1.7541  1.4027
13534SOL    HW241736   6.822   2.846   2.502  0.1234 -0.2746 -0.5548
13535SOL     OW41737   3.440   8.939   6.830  0.1614  0.1889 -0.1831
13535SOL    HW141738   3.464   8.899   6.913 -1.4217  1.4564  0.9451
13535SOL    HW241739   3.522   8.970   6.793  1.2312 -2.5924 -0.3419
13536SOL     OW41740   7.849   8.776   2.970  0.6070 -0.7599 -0.1487
13536SOL    HW141741   7.872   8.850   2.913 -2.1376  0.1596 -0.2055
13536SOL    HW241742   7.833   8.703   2.910 -1.7227  0.0563 -0.6310
13537SOL     OW41743   4.183   9.079   2.925 -0.7420 -0.1746  0.1494
13537SOL    HW141744   4.117   9.028   2.878  0.8208 -1.4609 -0.7580
13537SOL    HW241745   4.200   9.029   3.005  0.3336 -0.7792 -0.4361
13538SOL     OW41746   6.547   2.280   1.631 -0.0422 -0.5770  0.0013
13538SOL    HW141747   6.513   2.300   1.718  1.4687  1.8946  0.1514
13538SOL    HW241748   6.618   2.217   1.646  1.8508  1.6141  1.0181
13539SOL     OW41749   3.740   6.827   0.323 -0.6200  0.3579  0.1834
13539SOL    HW141750   3.682   6.771   0.375 -0.0866  1.7058  2.3557
13539SOL    HW241751   3.807   6.857   0.385  1.2428  0.4814 -1.7769
13540SOL     OW41752   3.148   6.181   6.232  0.2151 -0.1780  0.0603
13540SOL    HW141753   3.120   6.253   6.175 -0.5727  0.1844  0.8799
13540SOL    HW241754   3.116   6.102   6.188  0.1048  0.0525 -0.2790
13541SOL     OW41755   5.071   3.577   8.869 -0.8186  0.1364  0.5540
13541SOL    HW141756   5.074   3.576   8.965 -0.0646 -0.2615  0.5329
13541SOL    HW241757   4.981   3.601   8.849 -1.0399  0.0338  1.3664
13542SOL     OW41758   2.943   0.190   8.697 -0.2697 -0.2367 -0.1527
13542SOL    HW141759   2.859   0.231   8.676 -0.2862  0.6527  1.4553
13542SOL    HW241760   2.924   0.129   8.768  0.2513 -0.9653 -0.6174
13543SOL     OW41761   7.942   5.936   1.836  0.0507 -0.3674  0.3039
13543SOL    HW141762   7.938   5.853   1.789 -3.0741  0.7105 -1.6493
13543SOL    HW241763   7.987   5.995   1.775  0.9604 -0.2279  1.0839
13544SOL     OW41764   6.901   6.115   1.266 -0.7523  0.2522 -0.4645
13544SOL    HW141765   6.868   6.098   1.355 -1.4276  1.8467 -0.3722
13544SOL    HW241766   6.931   6.206   1.269  0.8649 -0.2208 -1.4045
13545SOL     OW41767   7.739   6.519   3.484 -0.9367 -0.7462  0.3769
13545SOL    HW141768   7.744   6.580   3.411 -0.7528  0.6580  1.5024
13545SOL    HW241769   7.646   6.497   3.492 -1.2587  0.7181  0.9658
13546SOL     OW41770   2.917   6.598   1.056  0.6399 -0.0616 -0.1934
13546SOL    HW141771   2.958   6.600   0.969  2.3584 -3.5285  0.3440
13546SOL    HW241772   2.877   6.511   1.060 -0.4437  0.4791  2.0981
13547SOL     OW41773   7.536   8.163   7.845  0.2487 -0.0851  0.2062
13547SOL    HW141774   7.592   8.120   7.780  2.4153  0.9664  1.2489
13547SOL    HW241775   7.534   8.255   7.817  1.2481  0.3907  1.5873
13548SOL     OW41776   1.448   6.826   3.394 -0.4355  0.7300 -0.1591
13548SOL    HW141777   1.474   6.797   3.482 -0.7039  2.3189  0.4778
13548SOL    HW241778   1.402   6.751   3.357  2.2390 -1.0796 -0.1381
13549SOL     OW41779   0.594   3.774   4.897  0.6716 -0.2306  0.1042
13549SOL    HW141780   0.560   3.827   4.969 -0.1031  0.0220 -0.4377
13549SOL    HW241781   0.652   3.710   4.940  1.0624  0.5956  0.8334
13550SOL     OW41782   5.376   7.019   2.470  0.3435  0.4581 -1.2516
13550SOL    HW141783   5.382   6.968   2.389 -0.1694 -1.9625  0.1395
13550SOL    HW241784   5.301   7.076   2.456  0.3613  0.2021 -2.5502
13551SOL     OW41785   3.441   7.801   4.061 -0.8294  0.0789  0.3364
13551SOL    HW141786   3.389   7.725   4.087  0.3639 -1.5856 -1.8067
13551SOL    HW241787   3.531   7.770   4.065 -0.2096  1.8709  0.8163
13552SOL     OW41788   8.683   0.229   0.148 -0.6054 -0.7370  0.3413
13552SOL    HW141789   8.669   0.279   0.068  0.0428  0.8597  1.1641
13552SOL    HW241790   8.768   0.187   0.136 -0.0004  0.3737  0.5864
13553SOL     OW41791   0.972   5.341   7.488 -0.1973 -0.3262 -1.1568
13553SOL    HW141792   1.060   5.348   7.450  0.0071  1.3647 -0.4465
13553SOL    HW241793   0.984   5.362   7.580 -1.3313 -0.2777 -1.0112
13554SOL     OW41794   3.874   2.225   0.863 -0.0902  0.0276  0.7244
13554SOL    HW141795   3.948   2.207   0.805  0.7241 -1.7784  2.2098
13554SOL    HW241796   3.914   2.246   0.947 -1.2463 -0.8139  1.5178
13555SOL     OW41797   5.773   2.913   7.691 -0.5506 -0.2425  0.4946
13555SOL    HW141798   5.741   2.829   7.723  0.4328 -0.9137 -0.1967
13555SOL    HW241799   5.707   2.942   7.628  0.6238 -2.2024 -1.8407
13556SOL     OW41800   0.310   2.913   0.314 -0.3054  0.2594 -0.4012
13556SOL    HW141801   0.340   2.831   0.273 -2.4373 -1.4648  1.2510
13556SOL    HW241802   0.254   2.953   0.248  2.1149  1.3902 -1.9026
13557SOL     OW41803   3.820   7.480   0.737  0.2218 -0.4036 -0.1853
13557SOL    HW141804   3.869   7.460   0.657  1.3676  2.0335 -0.1974
13557SOL    HW241805   3.759   7.549   0.711  0.2776  0.0851  0.9350
13558SOL     OW41806   5.132   7.192   6.240 -0.4816 -0.5444  0.1589
13558SOL    HW141807   5.143   7.263   6.303 -1.1329  0.2121 -0.5577
13558SOL    HW241808   5.037   7.184   6.230 -0.5695 -3.0517  1.9120
13559SOL     OW41809   7.874   4.449   8.751 -0.2148  1.1724  0.3088
13559SOL    HW141810   7.934   4.402   8.694  1.6072 -0.0426  3.0674
13559SOL    HW241811   7.788   4.436   8.711  0.5006 -2.5754 -0.3026
13560SOL     OW41812   5.956   3.344   1.600 -0.5295 -0.0681  0.5643
13560SOL    HW141813   5.916   3.387   1.676 -0.4559 -1.5842  1.4909
13560SOL    HW241814   6.044   3.383   1.595 -0.7460  0.4860  0.8779
13561SOL     OW41815   0.627   2.216   1.971 -0.3350 -0.6125  0.5220
13561SOL    HW141816   0.603   2.232   2.063 -0.6848 -1.0230  0.5053
13561SOL    HW241817   0.615   2.301   1.929 -1.3981 -0.7061  0.6028
13562SOL     OW41818   7.370   2.710   8.885  0.7749  0.5948 -0.3159
13562SOL    HW141819   7.409   2.649   8.948 -0.5338  0.5710  0.4886
13562SOL    HW241820   7.342   2.655   8.812 -1.8123 -0.0696  1.0708
13563SOL     OW41821   8.570   8.527   0.745 -0.4918 -0.3432 -0.3582
13563SOL    HW141822   8.544   8.456   0.804 -1.1203 -0.7439 -1.1006
13563SOL    HW241823   8.639   8.488   0.690  0.4877  0.1966  0.4619
13564SOL     OW41824   4.622   2.592   6.129 -0.1078 -0.0632 -0.5861
13564SOL    HW141825   4.616   2.582   6.224 -0.5357  0.3200 -0.5691
13564SOL    HW241826   4.663   2.678   6.116 -2.3624  1.0842 -0.7325
13565SOL     OW41827   5.475   1.537   5.918  0.2782 -0.4886 -0.2046
13565SOL    HW141828   5.566   1.547   5.946  0.5318  2.0281 -1.6477
13565SOL    HW241829   5.441   1.626   5.917 -1.8496 -1.2640 -0.9007
13566SOL     OW41830   8.051   3.580   0.973 -0.3456 -0.4290  0.0344
13566SOL    HW141831   8.081   3.657   1.021  0.5177 -1.4149  1.1062
13566SOL    HW241832   7.975   3.549   1.021 -1.5271  0.4838 -1.1522
13567SOL     OW41833   1.406   3.089   0.319 -0.6221 -0.4287  0.0168
13567SOL    HW141834   1.451   3.052   0.395 -0.8450 -2.5366 -0.8263
13567SOL    HW241835   1.433   3.181   0.319  0.7549 -0.7652  1.6345
13568SOL     OW41836   2.893   5.653   8.852  0.0644 -0.0240  0.1924
13568SOL    HW141837   2.903   5.584   8.787  2.2730  0.9051 -0.5665
13568SOL    HW241838   2.858   5.728   8.803 -0.1600  0.0845  0.5121
13569SOL     OW41839   3.724   7.377   6.831  0.7929  0.1885 -0.2026
13569SOL    HW141840   3.802   7.337   6.871 -0.1412 -2.0557 -0.4601
13569SOL    HW241841   3.663   7.304   6.820 -0.9439  1.6861 -1.0208
13570SOL     OW41842   7.909   2.314   3.802 -0.2359 -0.0766  0.4703
13570SOL    HW141843   7.966   2.282   3.732 -0.9094  0.1103 -0.1698
13570SOL    HW241844   7.961   2.301   3.882  3.5676  5.8615 -0.3774
13571SOL     OW41845   5.576   9.051   0.714 -0.3898 -0.2385 -0.1222
13571SOL    HW141846   5.577   9.005   0.630 -2.7658 -0.2183 -0.2206
13571SOL    HW241847   5.601   8.984   0.778 -2.5280 -1.4364 -0.4194
13572SOL     OW41848   9.088   2.737   2.600  0.0722  0.3403  0.4832
13572SOL    HW141849   9.183   2.745   2.594  0.2323 -0.8758  1.1818
13572SOL    HW241850   9.068   2.655   2.556 -0.9122  1.5715 -1.5365
13573SOL     OW41851   0.639   1.289   7.796 -0.3931  0.1970 -0.1140
13573SOL    HW141852   0.671   1.235   7.868  0.1123  1.6774  0.8150
13573SOL    HW241853   0.707   1.355   7.784 -0.7064  0.2781 -1.6284
13574SOL     OW41854   1.883   3.398   7.751 -0.7461 -0.0176 -0.7360
13574SOL    HW141855   1.943   3.445   7.809 -1.3082  0.9964 -0.9587
13574SOL    HW241856   1.839   3.467   7.701  0.1991 -0.8478 -2.8664
13575SOL     OW41857   3.650   0.017   6.732 -0.0070  0.4226  0.0629
13575SOL    HW141858   3.695   0.090   6.689 -1.5186  0.3245 -1.8071
13575SOL    HW241859   3.629   0.050   6.820 -1.2717  2.5632 -0.9552
13576SOL     OW41860   4.447   7.231   5.349  0.1730  0.0331 -0.2805
13576SOL    HW141861   4.437   7.299   5.282  0.7658 -1.8351 -2.3992
13576SOL    HW241862   4.499   7.272   5.418  0.2574  1.8120 -1.3553
13577SOL     OW41863   7.090   5.901   3.464 -0.0821  0.1820 -0.6155
13577SOL    HW141864   7.140   5.833   3.418  0.9853  0.8767 -0.5307
13577SOL    HW241865   7.045   5.949   3.395 -2.0540 -1.4752 -0.5859
13578SOL     OW41866   7.896   6.020   0.878  0.3620 -0.4210  0.0147
13578SOL    HW141867   7.939   6.071   0.947 -1.7313  1.0325  0.3184
13578SOL    HW241868   7.825   5.975   0.922  0.0956 -0.9024 -0.8873
13579SOL     OW41869   1.547   4.660   6.329  0.7161  0.1151  0.0788
13579SOL    HW141870   1.606   4.597   6.288 -1.2805 -1.0346 -1.2224
13579SOL    HW241871   1.501   4.701   6.257 -0.5081  0.5089  1.0391
13580SOL     OW41872   9.060   2.478   0.619 -0.7154 -0.5024 -0.0510
13580SOL    HW141873   9.088   2.441   0.702  0.4343  4.2191  1.9792
13580SOL    HW241874   9.141   2.494   0.570 -1.2001 -1.0633 -1.0789
13581SOL     OW41875   6.363   7.830   3.204 -0.0603  0.2133  0.0161
13581SOL    HW141876   6.275   7.827   3.242 -0.4153  2.8703 -0.4426
13581SOL    HW241877   6.354   7.784   3.121 -1.5460  1.9782 -0.8848
13582SOL     OW41878   7.927   6.376   7.612  0.0064 -0.1473 -0.4110
13582SOL    HW141879   7.921   6.320   7.689 -0.8705 -0.2094 -0.5130
13582SOL    HW241880   7.896   6.321   7.540 -2.3552  0.8943 -0.2722
13583SOL     OW41881   4.306   5.713   2.299  0.3419  0.0976 -0.3916
13583SOL    HW141882   4.280   5.804   2.307 -1.6131 -0.2711 -1.8546
13583SOL    HW241883   4.249   5.666   2.359  1.1970 -0.2124  0.2032
13584SOL     OW41884   8.588   2.869   6.861 -0.0171  0.0225 -0.5559
13584SOL    HW141885   8.530   2.892   6.933 -1.5564 -0.3618 -1.6328
13584SOL    HW241886   8.582   2.774   6.855  0.2827  0.0316 -1.0473
13585SOL     OW41887   8.307   8.214   6.924  0.4313  0.3095 -0.0307
13585SOL    HW141888   8.332   8.122   6.918 -0.9197 -0.1922  1.4191
13585SOL    HW241889   8.388   8.260   6.945  0.8036 -0.7828  0.9988
13586SOL     OW41890   8.388   4.250   5.061 -0.1954 -0.4557  0.4534
13586SOL    HW141891   8.470   4.208   5.087 -0.5013 -0.9462  0.6520
13586SOL    HW241892   8.409   4.343   5.054  0.4583 -0.6190  0.1729
13587SOL     OW41893   1.946   2.602   3.642 -0.1543 -0.1902 -0.3061
13587SOL    HW141894   1.975   2.678   3.591 -0.6361  0.8470  0.8947
13587SOL    HW241895   2.024   2.576   3.691 -0.1376 -0.0823 -0.2734
13588SOL     OW41896   3.921   7.358   1.479  0.4901 -0.5149  0.4461
13588SOL    HW141897   4.005   7.385   1.516  0.1838  1.2503 -0.0242
13588SOL    HW241898   3.918   7.263   1.491  1.8258 -0.4032  1.9407
13589SOL     OW41899   0.928   1.674   7.124 -0.2724  0.6340 -0.0058
13589SOL    HW141900   0.941   1.602   7.186 -0.4142  0.3926 -0.2550
13589SOL    HW241901   1.016   1.695   7.093 -0.3089 -0.0149 -0.5851
13590SOL     OW41902   7.811   4.203   9.012 -0.1569  0.1553  0.3055
13590SOL    HW141903   7.777   4.291   9.026  2.3653  1.1125  0.8334
13590SOL    HW241904   7.791   4.184   8.920  1.3785  2.3117 -0.5618
13591SOL     OW41905   6.410   3.763   1.305  0.1136  0.0294 -0.9248
13591SOL    HW141906   6.417   3.779   1.211 -1.2619 -0.9006 -1.2116
13591SOL    HW241907   6.423   3.849   1.345 -0.5717  0.6666 -2.0394
13592SOL     OW41908   7.026   2.733   1.850  0.2292 -0.1656  0.2226
13592SOL    HW141909   6.988   2.767   1.931  2.4152  1.8769  0.5156
13592SOL    HW241910   7.115   2.707   1.874  0.5007 -0.6962 -1.2641
13593SOL     OW41911   8.661   2.787   9.027 -0.7546 -0.3964  0.0794
13593SOL    HW141912   8.714   2.867   9.023 -0.2831 -0.6588  0.8345
13593SOL    HW241913   8.593   2.800   8.961  0.3925 -0.1531 -1.0999
13594SOL     OW41914   7.196   1.751   8.690 -0.5988  0.2294 -0.3288
13594SOL    HW141915   7.255   1.794   8.628  0.5511  0.8093  1.1265
13594SOL    HW241916   7.231   1.663   8.701  0.6620  0.8820  1.2958
13595SOL     OW41917   4.421   7.655   6.415  0.2851 -0.2434  0.0792
13595SOL    HW141918   4.464   7.663   6.501  2.0445  1.6349 -0.8856
13595SOL    HW241919   4.401   7.746   6.390  0.0015 -0.7398 -1.6079
13596SOL     OW41920   3.177   9.081   0.436  0.2461  0.2061  0.0459
13596SOL    HW141921   3.233   9.133   0.494 -0.8102 -0.1185  1.4154
13596SOL    HW241922   3.233   9.060   0.361  1.5862  0.8624  0.8241
13597SOL     OW41923   0.759   3.594   6.701 -0.1515  0.0843 -0.0477
13597SOL    HW141924   0.760   3.514   6.754  1.5691  0.0868 -0.0143
13597SOL    HW241925   0.847   3.632   6.713  0.7299 -0.4189 -3.6037
13598SOL     OW41926   1.758   1.754   1.509 -0.1083 -0.1327  0.2166
13598SOL    HW141927   1.804   1.833   1.480 -1.1987  1.3576  2.2784
13598SOL    HW241928   1.702   1.730   1.435  1.9027 -0.4006 -1.3059
13599SOL     OW41929   4.196   6.911   5.749 -0.2731 -0.1685  0.0847
13599SOL    HW141930   4.191   6.827   5.703 -1.1505  0.4707 -1.0423
13599SOL    HW241931   4.152   6.972   5.690  1.3351  1.3154  0.3510
13600SOL     OW41932   9.030   2.289   5.575 -0.1841 -0.0049 -0.2548
13600SOL    HW141933   9.080   2.335   5.642 -1.1715  3.3696 -1.5813
13600SOL    HW241934   9.080   2.302   5.494 -1.5872  0.6951 -1.0525
13601SOL     OW41935   5.546   1.060   6.050  0.4983  0.2951  0.1377
13601SOL    HW141936   5.501   0.995   6.103  0.3831  0.4180  0.1900
13601SOL    HW241937   5.488   1.136   6.050 -0.0359 -0.0879 -1.0860
13602SOL     OW41938   7.481   8.051   3.190 -0.0174 -0.5952 -0.4855
13602SOL    HW141939   7.438   8.130   3.222  2.0367  0.3980  0.0086
13602SOL    HW241940   7.448   7.980   3.245 -0.6871  0.1844  0.1266
13603SOL     OW41941   7.960   3.942   7.171 -0.5007  0.6017 -0.3947
13603SOL    HW141942   7.905   3.934   7.249 -0.7437  1.5692 -0.4507
13603SOL    HW241943   7.962   4.036   7.153  0.6849  0.5172 -0.7582
13604SOL     OW41944   7.691   3.951   3.269  0.6151  0.3922  0.4227
13604SOL    HW141945   7.671   3.920   3.181  0.0702 -0.7624  0.9256
13604SOL    HW241946   7.749   4.026   3.256  0.7813  0.0580 -0.8982
13605SOL     OW41947   5.288   5.193   6.855  0.0826 -0.0913  0.1130
13605SOL    HW141948   5.347   5.265   6.834 -0.0766  0.3658  1.1956
13605SOL    HW241949   5.295   5.134   6.780  1.4493  0.2535 -0.0489
13606SOL     OW41950   0.854   0.903   2.828 -0.3337 -0.0053 -0.0451
13606SOL    HW141951   0.827   0.922   2.738  2.1696 -0.2186 -0.9332
13606SOL    HW241952   0.860   0.808   2.832 -0.0501  0.0184  0.1919
13607SOL     OW41953   6.308   1.521   6.979  0.2507  0.5351  0.3448
13607SOL    HW141954   6.246   1.491   7.045  1.0089 -1.6854  0.1311
13607SOL    HW241955   6.375   1.567   7.028 -0.0993  0.4474  0.9188
13608SOL     OW41956   2.928   6.943   4.238  0.0957 -0.2171  0.3895
13608SOL    HW141957   2.853   6.995   4.265  0.1504 -0.1505  0.4124
13608SOL    HW241958   2.893   6.881   4.174  0.0276 -0.1656  0.3778
13609SOL     OW41959   8.136   6.429   1.156 -0.6267 -0.5025 -0.0864
13609SOL    HW141960   8.185   6.511   1.169 -1.8593  0.7623 -2.6078
13609SOL    HW241961   8.065   6.434   1.220 -1.5231  1.1631 -1.1363
13610SOL     OW41962   1.418   1.992   6.436 -0.5558  0.2459 -0.5616
13610SOL    HW141963   1.436   1.899   6.428 -1.7449  0.0689 -1.5637
13610SOL    HW241964   1.504   2.033   6.442 -0.0361 -0.9740  0.9706
13611SOL     OW41965   2.966   8.052   2.863  0.5244  0.3347 -0.1666
13611SOL    HW141966   3.022   8.129   2.854  0.5112  0.3358 -0.2387
13611SOL    HW241967   3.008   7.985   2.809  0.1651  0.4950 -0.6541
13612SOL     OW41968   5.368   7.633   1.284  0.0965 -0.4120 -0.6078
13612SOL    HW141969   5.313   7.594   1.215 -0.2011  0.5222 -0.9078
13612SOL    HW241970   5.451   7.650   1.241 -0.2024  0.4992 -0.8499
13613SOL     OW41971   6.164   2.926   1.129  0.3598  0.1136 -0.2732
13613SOL    HW141972   6.200   2.862   1.191 -0.5281  0.1685  0.3176
13613SOL    HW241973   6.129   2.872   1.058 -0.5235 -0.0943  0.2949
13614SOL     OW41974   5.560   2.552   7.049  0.2471 -0.3758  0.3129
13614SOL    HW141975   5.526   2.632   7.007  0.2593  0.0442  1.0706
13614SOL    HW241976   5.572   2.578   7.140  2.2092 -0.6430  0.1566
13615SOL     OW41977   6.130   8.860   3.572 -0.0066  0.1962 -0.7225
13615SOL    HW141978   6.138   8.859   3.477 -1.4500  0.1626 -0.8705
13615SOL    HW241979   6.067   8.930   3.590  1.6674  1.5244  0.3675
13616SOL     OW41980   3.293   8.264   0.593  0.2645 -0.0489 -0.3507
13616SOL    HW141981   3.371   8.313   0.616  0.6074 -0.8383  0.2207
13616SOL    HW241982   3.317   8.172   0.606 -1.3643 -0.2457  1.8784
13617SOL     OW41983   6.608   9.074   9.034 -0.1538 -0.1459 -0.3645
13617SOL    HW141984   6.550   9.082   8.959  0.3539 -0.7495 -0.8336
13617SOL    HW241985   6.696   9.074   8.996  0.1312  0.1351  0.2829
13618SOL     OW41986   6.601   0.439   2.399 -0.1569  0.3202 -0.2579
13618SOL    HW141987   6.633   0.349   2.403 -2.7811 -0.8016 -1.4493
13618SOL    HW241988   6.538   0.445   2.471  0.2635  1.3298  0.0383
13619SOL     OW41989   5.132   3.082   6.099  0.1626 -0.1359  0.2784
13619SOL    HW141990   5.097   3.048   6.016 -1.3899 -2.1682  1.6679
13619SOL    HW241991   5.063   3.139   6.132  0.5860  0.3147  0.3871
13620SOL     OW41992   4.781   8.617   1.772 -0.0382 -0.3560  0.1384
13620SOL    HW141993   4.809   8.555   1.705 -1.0204  0.9504 -1.5429
13620SOL    HW241994   4.783   8.703   1.729  2.5439  1.0888  2.7183
13621SOL     OW41995   6.780   1.853   1.146  0.2371 -0.8844 -0.4146
13621SOL    HW141996   6.738   1.883   1.065 -0.4014 -0.8214 -0.0662
13621SOL    HW241997   6.869   1.888   1.142 -0.1112 -0.0112 -0.6080
13622SOL     OW41998   2.935   1.236   5.393  0.0749 -0.1901  0.3050
13622SOL    HW141999   3.009   1.296   5.408  1.0558 -1.5004  0.8853
13622SOL    HW242000   2.931   1.183   5.472 -1.3852 -0.2806  0.1895
13623SOL     OW42001   8.766   6.671   5.748  0.4001 -0.1851  0.3161
13623SOL    HW142002   8.826   6.711   5.685 -0.0475  0.5805  0.3612
13623SOL    HW242003   8.723   6.746   5.790  1.7884 -0.5985  2.6459
13624SOL     OW42004   2.173   0.223   3.145  0.1259  0.0719  0.2024
13624SOL    HW142005   2.178   0.171   3.225 -0.0342 -0.3381 -0.0503
13624SOL    HW242006   2.092   0.195   3.103 -1.2626  2.2671  1.2556
13625SOL     OW42007   8.114   7.434   2.040  0.1867 -0.1392  0.4366
13625SOL    HW142008   8.090   7.355   1.991 -1.5671 -0.1631  1.2777
13625SOL    HW242009   8.113   7.406   2.131  0.6898  0.5911  0.6693
13626SOL     OW42010   1.027   3.208   1.986 -0.2281 -0.3625 -0.0888
13626SOL    HW142011   1.034   3.156   2.067 -1.3777 -1.0419 -0.4132
13626SOL    HW242012   0.942   3.185   1.950  0.4712 -0.4353 -1.7605
13627SOL     OW42013   7.052   3.885   7.524  0.3145 -0.1645  0.2233
13627SOL    HW142014   6.958   3.866   7.520  0.3574 -0.3236 -0.0581
13627SOL    HW242015   7.089   3.839   7.449  1.1260 -2.9528  2.1782
13628SOL     OW42016   2.312   1.083   1.957  0.3336  0.3453  0.3355
13628SOL    HW142017   2.249   1.135   1.909  0.1614  1.0015  1.2542
13628SOL    HW242018   2.370   1.047   1.890 -1.6196 -1.1446 -0.6335
13629SOL     OW42019   4.395   7.467   0.227  0.0493 -1.1308 -0.5421
13629SOL    HW142020   4.381   7.551   0.184  1.1264 -1.0638 -0.7900
13629SOL    HW242021   4.308   7.438   0.253 -0.3548 -0.0513 -0.6625
13630SOL     OW42022   7.115   2.313   5.394  0.0131  0.0927 -0.5908
13630SOL    HW142023   7.069   2.396   5.397  0.5141  0.3456  0.2165
13630SOL    HW242024   7.100   2.273   5.479 -0.8413 -0.9935 -1.2232
13631SOL     OW42025   6.092   0.736   0.638 -0.3335 -0.5083  0.6990
13631SOL    HW142026   6.169   0.682   0.655 -0.4153 -0.1635  2.2908
13631SOL    HW242027   6.018   0.680   0.657 -0.4780 -0.6052 -0.1094
13632SOL     OW42028   5.137   8.283   8.504 -0.6847 -0.4731  0.2705
13632SOL    HW142029   5.085   8.356   8.472 -1.9397 -0.2404  2.6457
13632SOL    HW242030   5.212   8.324   8.548  1.0771 -0.7883 -2.2287
13633SOL     OW42031   1.970   3.180   4.686 -0.1911 -0.5495  0.1793
13633SOL    HW142032   2.010   3.096   4.662 -0.1909 -0.4683 -0.1119
13633SOL    HW242033   1.947   3.170   4.778 -1.4565 -1.3688 -0.1988
13634SOL     OW42034   1.402   6.810   8.347 -0.4244  0.2250  0.4300
13634SOL    HW142035   1.307   6.797   8.356 -0.2812 -0.2337  1.3645
13634SOL    HW242036   1.441   6.731   8.383  0.3065 -0.6622 -2.1072
13635SOL     OW42037   0.486   1.119   3.937 -0.1845  0.4155  0.1051
13635SOL    HW142038   0.560   1.061   3.918 -1.4367 -0.8934 -1.0676
13635SOL    HW242039   0.521   1.185   3.996  1.3513 -1.4578  1.3932
13636SOL     OW42040   1.786   6.780   1.866  0.2970  0.3239 -0.0004
13636SOL    HW142041   1.703   6.826   1.874  0.4406  0.9997 -1.9391
13636SOL    HW242042   1.823   6.783   1.954 -1.4816  0.4353  0.7926
13637SOL     OW42043   5.014   1.421   4.103 -0.3614  0.4949  0.0903
13637SOL    HW142044   5.075   1.346   4.102 -0.8118  0.1276 -0.6091
13637SOL    HW242045   5.008   1.445   4.195  1.2096  0.8457  0.1341
13638SOL     OW42046   0.147   8.382   0.978 -0.5544 -0.3792  0.1883
13638SOL    HW142047   0.085   8.344   0.916  1.0872  0.4054 -2.0615
13638SOL    HW242048   0.111   8.468   0.999 -1.0044 -0.5548  0.1453
13639SOL     OW42049   6.775   1.893   2.704 -0.4399  0.0545 -1.1097
13639SOL    HW142050   6.788   1.979   2.743 -0.1491 -1.1288  1.6392
13639SOL    HW242051   6.819   1.833   2.764 -2.2093 -2.1938 -1.9291
13640SOL     OW42052   1.237   7.604   1.653 -0.2342  0.3567 -0.0475
13640SOL    HW142053   1.329   7.578   1.657 -0.2506 -0.0249 -1.6207
13640SOL    HW242054   1.189   7.523   1.639 -0.6183  0.7622 -1.2457
13641SOL     OW42055   5.802   7.757   8.478  0.2390 -0.4193  1.0571
13641SOL    HW142056   5.788   7.833   8.535  0.3782  0.3215  0.1346
13641SOL    HW242057   5.725   7.754   8.422  0.1364 -1.1020  1.2238
13642SOL     OW42058   0.334   5.475   3.455  0.7319  0.0541  0.3824
13642SOL    HW142059   0.392   5.542   3.420 -0.0398 -0.1920 -1.4726
13642SOL    HW242060   0.375   5.392   3.430 -0.3432 -0.1223 -0.8939
13643SOL     OW42061   6.915   4.714   2.296  0.3052 -0.2561  0.3620
13643SOL    HW142062   6.839   4.673   2.338 -0.0134  1.6251  1.7579
13643SOL    HW242063   6.963   4.641   2.258 -1.3072 -1.6839  0.9197
13644SOL     OW42064   5.426   3.262   3.490 -0.4085  0.0716  0.4957
13644SOL    HW142065   5.441   3.168   3.479 -0.9865  0.2009 -1.9062
13644SOL    HW242066   5.332   3.274   3.477 -0.3005  1.0069  0.4500
13645SOL     OW42067   2.750   8.138   2.665  0.6861  0.1204 -0.5016
13645SOL    HW142068   2.822   8.079   2.641  1.0255 -0.3681  1.5198
13645SOL    HW242069   2.770   8.164   2.755 -1.3370  0.5033 -0.1193
13646SOL     OW42070   3.420   0.063   6.399 -0.3380 -0.4958 -0.0712
13646SOL    HW142071   3.397   0.133   6.460  0.0329  0.0433 -0.5417
13646SOL    HW242072   3.490   0.015   6.443  0.9708  0.7843 -0.6740
13647SOL     OW42073   8.853   2.578   5.593  0.3869  0.2016  0.1650
13647SOL    HW142074   8.850   2.538   5.680 -0.6101  0.3375  0.2038
13647SOL    HW242075   8.800   2.658   5.602 -0.7805 -0.4340 -0.8906
13648SOL     OW42076   3.259   8.986   4.569 -0.2655 -0.5873  0.3317
13648SOL    HW142077   3.279   8.893   4.571  1.0046 -0.4428 -1.9926
13648SOL    HW242078   3.169   8.992   4.537  0.4987 -1.0266 -2.0803
13649SOL     OW42079   4.830   4.456   2.685  0.2632 -0.0348  0.4042
13649SOL    HW142080   4.906   4.400   2.669  0.7846  0.1637  1.9825
13649SOL    HW242081   4.755   4.401   2.664  0.8212 -0.4527 -0.5516
13650SOL     OW42082   4.675   0.244   8.813 -0.1491  0.0810  0.1566
13650SOL    HW142083   4.725   0.171   8.849 -1.0671  0.3367  2.1426
13650SOL    HW242084   4.740   0.313   8.797  0.4022 -0.2870  0.7565
13651SOL     OW42085   3.373   7.232   1.001  0.4079 -0.2024  0.4388
13651SOL    HW142086   3.360   7.147   0.961  0.0733 -0.5682  1.2982
13651SOL    HW242087   3.327   7.227   1.085 -0.6613  1.2469 -0.0283
13652SOL     OW42088   5.208   6.109   5.909  0.4677 -0.1058  0.0790
13652SOL    HW142089   5.299   6.136   5.925  1.2642 -2.6566  0.3546
13652SOL    HW242090   5.172   6.091   5.996  0.5823 -1.5499 -0.1371
13653SOL     OW42091   2.112   7.437   8.850 -0.0286  0.1293  0.0684
13653SOL    HW142092   2.194   7.422   8.897  0.2456 -0.0391 -0.4561
13653SOL    HW242093   2.136   7.430   8.757 -0.8684 -1.2323 -0.0793
13654SOL     OW42094   4.069   4.133   1.443  0.3611  0.7750  0.0238
13654SOL    HW142095   4.162   4.143   1.463  0.0534  1.5554  1.2031
13654SOL    HW242096   4.066   4.069   1.373  1.7547  0.2647  0.3980
13655SOL     OW42097   4.991   2.685   8.784 -0.3388  0.6220 -0.2419
13655SOL    HW142098   5.027   2.758   8.834  0.7093 -1.2918  2.0306
13655SOL    HW242099   5.067   2.646   8.740 -0.4809 -0.3290  0.3208
13656SOL     OW42100   5.542   1.386   4.436 -0.1492 -0.1515 -0.4626
13656SOL    HW142101   5.458   1.406   4.395 -0.2075  0.4438 -0.0655
13656SOL    HW242102   5.596   1.464   4.421 -0.3583  0.3040  1.0548
13657SOL     OW42103   1.278   7.558   0.390 -0.3036  0.5431  0.5534
13657SOL    HW142104   1.255   7.606   0.470 -2.7344 -0.3172  0.4610
13657SOL    HW242105   1.239   7.609   0.319  0.1986  0.3148  0.1106
13658SOL     OW42106   5.523   2.480   0.981 -0.5329 -0.5201 -0.4832
13658SOL    HW142107   5.460   2.410   0.962 -2.0665  0.9414 -1.0919
13658SOL    HW242108   5.492   2.555   0.929 -0.0780  1.1776  1.5338
13659SOL     OW42109   1.988   8.203   2.163  0.0458  0.5505 -0.0045
13659SOL    HW142110   1.907   8.254   2.157  0.0797  0.9806  2.2950
13659SOL    HW242111   1.963   8.121   2.205  0.5761  0.0552 -0.6192
13660SOL     OW42112   3.182   2.561   8.326  0.5089  0.3058 -0.1877
13660SOL    HW142113   3.111   2.508   8.362  1.4102 -0.5625  0.3612
13660SOL    HW242114   3.197   2.629   8.391  1.4339 -0.6419  0.6226
13661SOL     OW42115   5.474   3.625   2.736 -0.4386 -0.1723 -0.6554
13661SOL    HW142116   5.431   3.591   2.815 -0.5022 -0.4325 -0.7991
13661SOL    HW242117   5.558   3.578   2.733 -0.6919 -0.6139 -1.0655
13662SOL     OW42118   8.415   5.729   6.219 -0.1841 -0.0545 -0.0100
13662SOL    HW142119   8.462   5.728   6.136  0.7838  0.7168  0.5140
13662SOL    HW242120   8.409   5.821   6.243 -3.3251  0.0435 -0.7885
13663SOL     OW42121   5.584   8.976   2.104  0.1169  0.0236  0.2524
13663SOL    HW142122   5.587   9.070   2.125  1.6033  0.1881 -0.5401
13663SOL    HW242123   5.664   8.940   2.143 -0.4648 -0.9317  0.5868
13664SOL     OW42124   3.254   5.165   1.373  0.0828  0.3875 -0.2685
13664SOL    HW142125   3.173   5.167   1.424  0.3185  0.5040  0.1032
13664SOL    HW242126   3.225   5.180   1.283 -0.2448  1.0436 -0.0613
13665SOL     OW42127   6.238   2.704   5.351  0.5195 -0.5645 -0.2617
13665SOL    HW142128   6.213   2.613   5.337  0.2861 -0.5196 -0.1569
13665SOL    HW242129   6.159   2.745   5.387  0.1762 -0.0127 -1.5731
13666SOL     OW42130   2.084   7.881   0.350 -0.3851 -0.6313  0.2562
13666SOL    HW142131   2.090   7.853   0.258  1.4500  0.5247 -0.0383
13666SOL    HW242132   2.166   7.850   0.389  0.0400  1.0739  0.8142
13667SOL     OW42133   9.092   2.109   3.669  0.4681 -0.4822 -0.2188
13667SOL    HW142134   9.001   2.104   3.640  0.4413 -0.4039 -0.1507
13667SOL    HW242135   9.090   2.168   3.745  0.3420 -1.6556  0.7192
13668SOL     OW42136   0.417   1.867   6.891  0.4839  0.2862  0.1736
13668SOL    HW142137   0.494   1.922   6.907  0.7886  0.5448 -1.8899
13668SOL    HW242138   0.343   1.927   6.894  0.4408  0.2104  1.1336
13669SOL     OW42139   5.725   5.307   1.173  0.2096  0.1378 -0.0731
13669SOL    HW142140   5.631   5.290   1.179  0.5251 -1.2339  1.6187
13669SOL    HW242141   5.741   5.320   1.079 -1.6691  0.5267 -0.3824
13670SOL     OW42142   2.128   0.898   8.066 -0.3499 -0.5867  0.3343
13670SOL    HW142143   2.064   0.839   8.028 -0.3887  0.7013 -1.8032
13670SOL    HW242144   2.089   0.927   8.148 -1.3751 -1.6967  0.2675
13671SOL     OW42145   7.972   3.801   0.517  0.3241 -0.4541  0.0613
13671SOL    HW142146   8.014   3.804   0.603  0.0162  2.0212  0.2043
13671SOL    HW242147   8.041   3.826   0.456 -0.0329  0.1672 -0.1016
13672SOL     OW42148   6.005   6.007   0.408 -0.1113  0.2332 -0.3806
13672SOL    HW142149   6.084   5.985   0.458 -0.8393 -2.0528 -0.1197
13672SOL    HW242150   5.964   6.078   0.458 -0.4072 -1.4423  1.9180
13673SOL     OW42151   4.175   2.752   4.300 -0.5461 -0.5927 -0.1713
13673SOL    HW142152   4.203   2.714   4.383 -0.6208 -2.0978 -0.8004
13673SOL    HW242153   4.191   2.683   4.235  0.9450  1.0747 -1.6862
13674SOL     OW42154   3.147   5.152   5.727  0.1631 -0.1340  0.5383
13674SOL    HW142155   3.084   5.132   5.659 -0.8242 -1.1567  1.7186
13674SOL    HW242156   3.116   5.105   5.804  1.6755  0.3548  1.4966
13675SOL     OW42157   0.085   4.853   2.883 -0.1947  0.4765  0.0792
13675SOL    HW142158   0.052   4.763   2.886  0.5061  0.2202  0.3699
13675SOL    HW242159   0.067   4.888   2.970 -1.0215  0.8213 -0.2304
13676SOL     OW42160   4.898   3.546   3.606  0.1862  0.0472 -0.7627
13676SOL    HW142161   4.946   3.613   3.557  1.1551  0.4699  0.6998
13676SOL    HW242162   4.907   3.467   3.554 -0.0051  0.7891 -1.9557
13677SOL     OW42163   1.018   1.904   5.000 -0.3845 -0.1992 -0.4081
13677SOL    HW142164   0.984   1.985   5.038 -0.7131  0.3178 -1.7327
13677SOL    HW242165   1.095   1.930   4.950 -1.0571 -0.5101 -1.6641
13678SOL     OW42166   3.404   6.838   3.959 -1.0997  0.0329  0.1103
13678SOL    HW142167   3.364   6.911   4.006  0.7146  1.9716 -1.1648
13678SOL    HW242168   3.392   6.861   3.866  0.0828 -0.9564 -0.3044
13679SOL     OW42169   8.024   0.711   6.842 -0.8560  0.1167  0.1366
13679SOL    HW142170   8.033   0.725   6.937 -1.8645  0.1971  0.2321
13679SOL    HW242171   8.035   0.799   6.804  2.8383 -0.3130 -0.1526
13680SOL     OW42172   4.702   3.714   4.018  0.4289 -0.2332  0.3906
13680SOL    HW142173   4.771   3.775   4.042  0.2226  0.0343  0.3142
13680SOL    HW242174   4.748   3.637   3.985  0.7000 -0.3001  0.9090
13681SOL     OW42175   5.262   5.003   8.185 -0.1021 -0.2624  0.1901
13681SOL    HW142176   5.287   4.985   8.095 -0.4995  0.2431 -0.0273
13681SOL    HW242177   5.344   5.021   8.230 -0.1046  2.4439 -0.7468
13682SOL     OW42178   7.485   3.684   7.002  0.4636  0.0900  0.1955
13682SOL    HW142179   7.564   3.681   7.057  0.8542  1.1244 -0.2769
13682SOL    HW242180   7.436   3.606   7.027  1.1541 -0.0456  1.2243
13683SOL     OW42181   7.585   0.458   6.625  0.1310 -0.4547 -0.5042
13683SOL    HW142182   7.539   0.503   6.554  0.2488 -1.4170 -1.2032
13683SOL    HW242183   7.661   0.513   6.643 -0.6954  0.6024 -0.0561
13684SOL     OW42184   4.363   0.894   1.878 -0.0211  0.5543  0.1735
13684SOL    HW142185   4.288   0.923   1.828  0.8587  0.9571 -0.9577
13684SOL    HW242186   4.435   0.891   1.815  0.6829 -0.8557  0.9713
13685SOL     OW42187   0.282   4.104   2.281  0.2905 -0.1795  0.0226
13685SOL    HW142188   0.208   4.118   2.222  0.7237 -0.9558 -0.7308
13685SOL    HW242189   0.312   4.192   2.304 -1.5753  0.1858  1.2890
13686SOL     OW42190   6.958   1.500   6.447  0.0791 -0.3305 -0.3379
13686SOL    HW142191   6.920   1.525   6.531  1.3402 -0.7524  0.3957
13686SOL    HW242192   6.921   1.414   6.429  1.0622 -0.9997  0.6586
13687SOL     OW42193   0.452   0.891   5.816 -0.6612  0.1736 -0.5575
13687SOL    HW142194   0.424   0.812   5.862 -1.4026 -0.0082 -1.2940
13687SOL    HW242195   0.394   0.960   5.849 -1.3610 -0.0068 -1.3730
13688SOL     OW42196   7.306   1.326   5.807  0.6001  0.0032 -0.4167
13688SOL    HW142197   7.258   1.351   5.729 -0.1593 -0.4923 -0.1227
13688SOL    HW242198   7.339   1.238   5.788  1.5363  0.4077 -0.6802
13689SOL     OW42199   4.679   7.369   1.942  0.4344  0.0304 -0.3060
13689SOL    HW142200   4.594   7.410   1.924  0.5761  0.0735 -0.8966
13689SOL    HW242201   4.659   7.277   1.959  0.2305  0.1154 -0.0798
13690SOL     OW42202   1.520   3.597   5.895 -0.9411 -0.0495  0.3825
13690SOL    HW142203   1.602   3.595   5.943 -1.1752  0.3396  0.8122
13690SOL    HW242204   1.454   3.619   5.961 -1.1865  1.0474 -0.2046
13691SOL     OW42205   5.142   2.839   1.027 -0.1687 -0.0568  0.1554
13691SOL    HW142206   5.190   2.766   1.066 -0.6258  0.5245  1.9180
13691SOL    HW242207   5.084   2.798   0.962 -0.2250 -1.2396  0.9215
13692SOL     OW42208   7.226   7.461   4.196 -0.1692  0.1401 -0.0888
13692SOL    HW142209   7.207   7.540   4.248 -0.2939  0.4512 -0.5910
13692SOL    HW242210   7.220   7.389   4.258  0.2396  0.5548  0.4438
13693SOL     OW42211   3.272   2.575   5.417 -0.5656 -0.3557  0.0436
13693SOL    HW142212   3.340   2.641   5.402  0.9113 -1.5729  1.0409
13693SOL    HW242213   3.266   2.527   5.334 -1.2961  0.6780 -0.5237
13694SOL     OW42214   4.452   5.317   3.680 -0.5078 -0.3188  0.1547
13694SOL    HW142215   4.476   5.325   3.772 -1.2311 -0.1422  0.3327
13694SOL    HW242216   4.476   5.401   3.641 -1.1730  0.0004  0.4158
13695SOL     OW42217   1.602   8.030   8.245 -0.3830 -0.8753 -0.3020
13695SOL    HW142218   1.567   7.947   8.277 -0.1957 -0.3424  1.3451
13695SOL    HW242219   1.598   8.022   8.149 -0.5641 -2.6838 -0.1752
13696SOL     OW42220   5.392   5.230   2.187  0.8412  0.1021 -0.4559
13696SOL    HW142221   5.321   5.173   2.216  1.6411 -0.6206  0.1295
13696SOL    HW242222   5.385   5.308   2.242 -0.5752  0.8317 -1.6097
13697SOL     OW42223   6.106   5.026   3.170  0.3705  0.6129  0.4497
13697SOL    HW142224   6.118   4.935   3.141 -2.1733 -0.9569  3.5786
13697SOL    HW242225   6.193   5.054   3.199  1.2166 -0.8121 -0.5924
13698SOL     OW42226   6.393   2.649   0.933  0.2047 -0.2176  0.6939
13698SOL    HW142227   6.401   2.577   0.871  1.1771 -0.9032  1.5783
13698SOL    HW242228   6.302   2.646   0.963  0.5323 -1.9054  1.6533
13699SOL     OW42229   3.459   8.686   6.485  0.3756  0.8363  0.5787
13699SOL    HW142230   3.488   8.722   6.401  0.1633  1.7482  0.8919
13699SOL    HW242231   3.364   8.679   6.476  0.5328 -1.3759 -0.1406
13700SOL     OW42232   5.058   5.812   8.735 -0.0017 -0.1760 -0.2683
13700SOL    HW142233   5.148   5.826   8.707 -0.3475  1.5189 -0.6772
13700SOL    HW242234   5.008   5.881   8.690 -1.4403 -0.8367  0.2436
13701SOL     OW42235   8.569   0.231   3.767 -0.0639  0.2370  0.3007
13701SOL    HW142236   8.596   0.149   3.725  2.0448  1.0438 -0.0427
13701SOL    HW242237   8.605   0.299   3.711 -0.2488  1.3865  1.5356
13702SOL     OW42238   5.383   1.280   3.402 -0.4506 -0.9885 -0.1836
13702SOL    HW142239   5.347   1.326   3.477  1.3512 -0.3753  0.3652
13702SOL    HW242240   5.331   1.200   3.395 -0.9777 -0.8130  1.4113
13703SOL     OW42241   2.845   8.545   0.675 -0.3314  0.2427 -0.4916
13703SOL    HW142242   2.896   8.617   0.712  1.9613 -0.3151 -2.3492
13703SOL    HW242243   2.886   8.466   0.710 -3.0528 -0.3079  1.8191
13704SOL     OW42244   1.311   6.711   0.746 -0.5173  0.5706  0.0335
13704SOL    HW142245   1.234   6.689   0.693 -0.4862 -2.2442  0.9741
13704SOL    HW242246   1.276   6.730   0.832 -0.2161 -1.1000  0.5672
13705SOL     OW42247   6.058   4.626   8.821  0.0488  0.1844  0.9021
13705SOL    HW142248   6.132   4.647   8.879 -1.6741  2.0748  2.5802
13705SOL    HW242249   5.987   4.682   8.852 -1.6558 -0.3928 -1.6701
13706SOL     OW42250   5.063   4.894   1.988 -0.6393 -0.0893 -0.2393
13706SOL    HW142251   5.138   4.840   2.012  0.2654  0.4515 -1.6804
13706SOL    HW242252   4.999   4.879   2.057  0.8166 -0.5107  1.0680
13707SOL     OW42253   7.268   6.613   4.781  0.4845 -0.3202  0.1416
13707SOL    HW142254   7.326   6.681   4.816 -0.3592  1.3341 -1.4925
13707SOL    HW242255   7.304   6.532   4.815  2.0531  0.8624  1.5015
13708SOL     OW42256   0.890   8.254   5.465  0.0964 -0.1020 -0.1098
13708SOL    HW142257   0.904   8.198   5.540 -1.1903  0.5339  0.6427
13708SOL    HW242258   0.806   8.227   5.429 -0.5711  1.3223  0.2871
13709SOL     OW42259   6.822   0.489   7.554 -0.2433  0.0696 -0.2927
13709SOL    HW142260   6.804   0.507   7.462  0.5162 -0.2989 -0.5181
13709SOL    HW242261   6.903   0.439   7.554 -0.0068  0.4230  0.6061
13710SOL     OW42262   2.115   8.337   4.519  0.1139  0.1383 -0.5770
13710SOL    HW142263   2.143   8.425   4.543 -1.5868  0.6076 -0.2257
13710SOL    HW242264   2.137   8.284   4.597 -0.3323  0.5696 -0.1531
13711SOL     OW42265   0.143   1.047   4.992  0.5320  0.5493 -0.3229
13711SOL    HW142266   0.124   0.960   5.027  1.2446  0.1873 -0.8254
13711SOL    HW242267   0.198   1.032   4.916 -0.5564  1.3657 -1.3120
13712SOL     OW42268   5.478   8.103   2.898  0.4762 -0.4544 -0.2134
13712SOL    HW142269   5.526   8.064   2.972 -0.0777 -0.0175  0.3822
13712SOL    HW242270   5.546   8.122   2.833  1.1583  0.3582  0.7031
13713SOL     OW42271   7.557   4.085   1.171 -0.2525  0.4147 -0.4428
13713SOL    HW142272   7.571   4.104   1.078 -0.6612  0.1030 -0.5664
13713SOL    HW242273   7.464   4.064   1.178 -0.0318 -0.4983 -0.1255
13714SOL     OW42274   5.328   6.773   0.716  0.4324  0.0602 -0.0093
13714SOL    HW142275   5.313   6.733   0.630 -0.7569  0.6396 -0.0918
13714SOL    HW242276   5.419   6.752   0.736  0.9293  0.4115 -1.6747
13715SOL     OW42277   3.428   8.693   1.428  0.1064  0.4999  0.0522
13715SOL    HW142278   3.503   8.725   1.379  0.0327  0.4826 -0.0702
13715SOL    HW242279   3.446   8.599   1.441  0.1333  0.5077  0.0733
13716SOL     OW42280   9.014   2.881   8.848 -0.4119  0.4375 -0.5374
13716SOL    HW142281   9.062   2.830   8.914 -1.9771  2.0754  2.0542
13716SOL    HW242282   8.932   2.833   8.836  0.2235 -0.3468 -2.1138
13717SOL     OW42283   5.335   7.942   8.728 -0.4721 -0.4925  0.0173
13717SOL    HW142284   5.289   8.001   8.788  0.7622  1.0324 -0.4757
13717SOL    HW242285   5.265   7.888   8.690 -1.3737 -0.9793  2.1933
13718SOL     OW42286   0.489   2.430   7.689  0.3537  0.2257 -0.4907
13718SOL    HW142287   0.523   2.483   7.762  3.7892 -0.6535 -1.2557
13718SOL    HW242288   0.536   2.347   7.696 -0.2785 -0.4037 -2.8698
13719SOL     OW42289   6.909   0.310   2.370  0.3279  0.8236  0.1370
13719SOL    HW142290   6.851   0.359   2.311  0.0376  0.4131  0.0788
13719SOL    HW242291   6.880   0.334   2.458  0.3776  0.9802  0.1114
13720SOL     OW42292   5.543   6.846   1.608 -0.0140  0.4654  0.0460
13720SOL    HW142293   5.524   6.818   1.519 -1.0702 -1.9109  0.9379
13720SOL    HW242294   5.638   6.857   1.611  0.4525 -2.5218 -0.6222
13721SOL     OW42295   4.099   5.912   3.428 -0.4042 -0.1813 -0.3307
13721SOL    HW142296   4.119   5.826   3.464  1.0045 -0.1393 -0.9567
13721SOL    HW242297   4.027   5.896   3.366  0.0043 -0.9429 -0.6114
13722SOL     OW42298   5.482   0.685   9.051 -0.7911 -0.2547  0.1693
13722SOL    HW142299   5.421   0.745   9.010  1.1412  3.4377  2.2184
13722SOL    HW242300   5.567   0.704   9.010 -0.3466 -3.1653 -0.5511
13723SOL     OW42301   7.076   5.930   5.175  0.8138  0.0422  1.1323
13723SOL    HW142302   7.018   5.856   5.193 -0.6797  0.6897 -0.7359
13723SOL    HW242303   7.065   5.988   5.250  0.2458 -0.5916  1.5502
13724SOL     OW42304   4.649   6.073   3.163 -0.1429  0.3766  0.4817
13724SOL    HW142305   4.686   6.035   3.243  1.0233  0.3409 -0.0554
13724SOL    HW242306   4.720   6.124   3.125 -0.6638  0.3706 -0.5496
13725SOL     OW42307   1.431   8.596   1.827 -0.3570  0.0513 -0.0439
13725SOL    HW142308   1.431   8.630   1.916  0.7521  1.7593 -0.6621
13725SOL    HW242309   1.464   8.667   1.773  0.5791 -1.4802 -1.6219
13726SOL     OW42310   0.175   1.612   0.590  0.1967  0.2688 -0.0494
13726SOL    HW142311   0.198   1.552   0.519 -2.2123  0.3240 -0.9547
13726SOL    HW242312   0.164   1.555   0.667  1.4308  0.0363 -0.0261
13727SOL     OW42313   0.789   7.045   2.091  0.1233 -0.1655  0.2331
13727SOL    HW142314   0.712   6.989   2.090 -0.0317 -0.0076  1.2948
13727SOL    HW242315   0.758   7.130   2.060 -0.2200 -0.0212  0.9342
13728SOL     OW42316   3.940   8.594   8.564  0.2086  0.3839 -0.1643
13728SOL    HW142317   3.954   8.502   8.539  1.5676  0.5218  0.0127
13728SOL    HW242318   4.021   8.638   8.538 -0.1695  1.4066  0.3558
13729SOL     OW42319   5.882   5.413   0.375 -0.1827  0.2505 -0.3944
13729SOL    HW142320   5.931   5.423   0.456 -1.1014 -1.6465  0.4507
13729SOL    HW242321   5.812   5.479   0.381 -0.3417  0.0197  0.4515
13730SOL     OW42322   5.108   6.143   7.799 -0.1319  0.0834  0.1022
13730SOL    HW142323   5.015   6.139   7.819 -0.0601  0.1403  0.4625
13730SOL    HW242324   5.124   6.071   7.739 -0.1938 -0.6241  0.9151
13731SOL     OW42325   5.178   7.677   8.682 -0.2080  0.0707 -0.5065
13731SOL    HW142326   5.201   7.642   8.596  0.0576  1.4134 -1.0007
13731SOL    HW242327   5.251   7.650   8.738 -0.0021 -0.1473 -0.8712
13732SOL     OW42328   1.972   4.770   5.911  0.2843  0.0579  0.1415
13732SOL    HW142329   1.878   4.749   5.912  0.5593 -1.3348  2.0472
13732SOL    HW242330   1.994   4.776   5.818 -1.4802 -0.6628 -0.3612
13733SOL     OW42331   7.928   5.005   6.474 -0.2051  0.0624  0.1383
13733SOL    HW142332   7.992   4.940   6.503  0.2295  1.4111  2.4657
13733SOL    HW242333   7.969   5.090   6.494 -1.1156  1.0775 -1.9802
13734SOL     OW42334   7.598   4.940   8.225  0.0132 -0.2059  0.1208
13734SOL    HW142335   7.579   4.884   8.300 -2.0806 -0.4336 -0.5263
13734SOL    HW242336   7.652   5.011   8.262 -0.6345 -0.5126  1.7635
13735SOL     OW42337   0.290   6.468   8.056  0.3319 -0.1476  0.4129
13735SOL    HW142338   0.332   6.524   8.122 -0.2219 -0.5074  1.0806
13735SOL    HW242339   0.362   6.416   8.020  0.6211 -0.0601  0.8507
13736SOL     OW42340   4.786   7.110   1.993 -0.4181  0.7276  0.1566
13736SOL    HW142341   4.773   7.109   2.088 -0.6105  3.3853  0.2305
13736SOL    HW242342   4.875   7.142   1.982 -0.7844  1.5098 -0.5664
13737SOL     OW42343   6.410   8.449   6.392  0.5941  0.1179 -0.0297
13737SOL    HW142344   6.335   8.451   6.453  0.1229 -0.9328 -0.5437
13737SOL    HW242345   6.424   8.356   6.376  0.8549  0.3734 -1.3510
13738SOL     OW42346   4.713   2.082   5.910  0.2807  0.0997 -0.0604
13738SOL    HW142347   4.682   2.162   5.953  0.6977 -0.5521  1.5358
13738SOL    HW242348   4.652   2.014   5.938  0.8576 -0.4356 -0.0703
13739SOL     OW42349   4.889   4.012   7.062 -0.0543 -0.2964 -0.0584
13739SOL    HW142350   4.821   4.016   7.129 -1.2756  0.4403 -1.3106
13739SOL    HW242351   4.891   4.099   7.024  2.0541 -0.1041  0.3570
13740SOL     OW42352   7.851   7.743   1.088 -0.2705 -0.5675  0.0624
13740SOL    HW142353   7.764   7.745   1.049 -1.0320 -0.8212  1.6602
13740SOL    HW242354   7.845   7.803   1.163  1.1804  0.0515 -0.2761
13741SOL     OW42355   3.898   4.000   2.724 -0.1114  0.5967  0.2254
13741SOL    HW142356   3.976   4.054   2.712 -0.0020  0.2761 -0.6006
13741SOL    HW242357   3.847   4.012   2.644  1.9105 -3.6824 -2.0837
13742SOL     OW42358   1.022   1.121   1.891  0.0744 -0.0974 -0.3831
13742SOL    HW142359   1.017   1.212   1.919 -0.3448 -0.6677  1.4908
13742SOL    HW242360   0.945   1.079   1.929  0.6517 -1.4043 -0.5970
13743SOL     OW42361   6.094   6.011   5.399  0.5571 -0.0063  0.3150
13743SOL    HW142362   6.177   5.996   5.445  2.2701  1.2671 -2.1549
13743SOL    HW242363   6.091   5.944   5.331 -1.5287 -1.3121  1.5462
13744SOL     OW42364   2.592   3.995   2.335  0.3681 -0.1192  0.6366
13744SOL    HW142365   2.684   3.982   2.360  0.2453 -1.9170  0.2487
13744SOL    HW242366   2.542   3.972   2.413  0.2351  2.4215  1.4011
13745SOL     OW42367   1.577   1.101   1.401 -0.0137  0.3082 -0.4019
13745SOL    HW142368   1.632   1.028   1.374 -1.4392 -0.8355 -0.3382
13745SOL    HW242369   1.488   1.073   1.380 -0.7291  1.4375  0.9513
13746SOL     OW42370   4.528   6.564   8.247  0.2705 -0.0834  0.4480
13746SOL    HW142371   4.456   6.582   8.188  0.5375 -1.9926 -0.5270
13746SOL    HW242372   4.544   6.647   8.292  0.1149  1.4702 -2.1936
13747SOL     OW42373   6.998   1.930   2.415  0.1415 -0.4913  0.3191
13747SOL    HW142374   7.053   1.924   2.493  1.9267  0.6845 -0.7766
13747SOL    HW242375   7.012   2.018   2.381  0.2283 -1.2649 -1.8645
13748SOL     OW42376   6.693   7.878   5.814 -0.0101 -0.5493 -0.4023
13748SOL    HW142377   6.665   7.807   5.757  0.3648  0.3423 -1.7619
13748SOL    HW242378   6.773   7.846   5.856 -0.9402 -1.6623  0.5571
13749SOL     OW42379   3.669   0.427   4.866  0.0971  0.4725  0.3832
13749SOL    HW142380   3.578   0.400   4.877  0.0523  0.5826  0.2808
13749SOL    HW242381   3.671   0.518   4.897 -0.2771  1.1883 -1.5363
13750SOL     OW42382   0.027   7.316   2.543 -0.1093 -0.1255 -0.0732
13750SOL    HW142383   0.070   7.260   2.478 -1.3650 -1.3950  0.1388
13750SOL    HW242384  -0.042   7.361   2.493 -0.5333 -0.4715  0.1897
13751SOL     OW42385   6.523   6.971   8.048 -0.0934 -0.2913 -0.0176
13751SOL    HW142386   6.544   6.898   7.990  1.7662  1.3937 -1.6470
13751SOL    HW242387   6.429   6.986   8.033 -0.5792 -2.4150  0.5438
13752SOL     OW42388   1.531   5.339   1.326  0.3444 -0.2419  0.1474
13752SOL    HW142389   1.624   5.318   1.340  0.6226  0.3056 -0.7601
13752SOL    HW242390   1.529   5.434   1.315 -0.0734 -0.4062 -1.4675
13753SOL     OW42391   1.409   8.747   9.001  0.7617  0.4331 -0.6624
13753SOL    HW142392   1.474   8.705   8.944  0.2979 -1.2833  0.0082
13753SOL    HW242393   1.329   8.696   8.987  0.2800  0.8366  0.4983
13754SOL     OW42394   0.492   6.888   5.298  0.2580  0.4758 -0.3767
13754SOL    HW142395   0.510   6.795   5.302  2.2266  0.8260 -0.4103
13754SOL    HW242396   0.463   6.903   5.207  1.3271  0.1126 -0.7907
13755SOL     OW42397   5.363   6.941   5.818  0.7049  0.3271 -0.4057
13755SOL    HW142398   5.446   6.966   5.858  0.4806  0.4934 -0.0374
13755SOL    HW242399   5.300   7.003   5.853  0.6063  0.8653 -1.5004
13756SOL     OW42400   5.525   4.221   0.811 -0.8570 -0.1413  0.0620
13756SOL    HW142401   5.576   4.297   0.786 -0.5874 -0.5678 -0.6873
13756SOL    HW242402   5.435   4.242   0.783 -0.7291 -0.2209 -0.4133
13757SOL     OW42403   6.614   6.544   7.338  0.3310 -0.0657 -0.2862
13757SOL    HW142404   6.640   6.452   7.331 -2.7099 -1.0061 -0.7829
13757SOL    HW242405   6.623   6.565   7.431 -1.8749 -1.9325  0.4421
13758SOL     OW42406   6.586   6.298   9.047  0.5045  0.4340  0.3204
13758SOL    HW142407   6.613   6.322   9.135  0.8850  0.6258  0.1564
13758SOL    HW242408   6.537   6.217   9.058 -1.2214  1.5132  0.9428
13759SOL     OW42409   7.170   7.880   3.153  0.1377 -0.0745  0.4678
13759SOL    HW142410   7.199   7.947   3.214 -2.4605  2.1247 -0.5168
13759SOL    HW242411   7.211   7.903   3.070  0.5784 -0.7358  0.4962
13760SOL     OW42412   3.439   6.920   5.005  0.0349 -0.1057 -0.3787
13760SOL    HW142413   3.449   6.939   4.911  0.3607  2.4296  0.1104
13760SOL    HW242414   3.469   6.999   5.049  1.5674 -1.8807  1.9821
13761SOL     OW42415   4.742   3.014   7.574 -0.2552  0.1432 -0.0728
13761SOL    HW142416   4.808   3.047   7.512 -0.8017 -0.5468 -1.0454
13761SOL    HW242417   4.790   3.002   7.656  0.8202 -0.3204 -0.7549
13762SOL     OW42418   5.828   2.266   5.584  0.1444  0.0491  0.0472
13762SOL    HW142419   5.879   2.290   5.662 -0.1290  4.5032 -0.9034
13762SOL    HW242420   5.737   2.281   5.609 -0.3276 -2.2668 -0.0542
13763SOL     OW42421   5.116   7.308   2.728 -0.7193 -0.0243  0.1543
13763SOL    HW142422   5.129   7.258   2.648 -0.1657  0.2476  0.0699
13763SOL    HW242423   5.075   7.389   2.699 -1.6187 -0.4261  0.2913
13764SOL     OW42424   3.942   7.129   7.303  0.2575 -0.7219  0.4450
13764SOL    HW142425   3.878   7.067   7.266  1.0109 -0.6148 -1.0904
13764SOL    HW242426   4.027   7.087   7.288  0.9509  1.4174 -2.2755
13765SOL     OW42427   5.275   3.280   2.650  0.2984 -0.3257  0.5740
13765SOL    HW142428   5.194   3.229   2.642  0.0691  0.0176  0.6900
13765SOL    HW242429   5.316   3.273   2.563 -1.4363  2.1286 -0.5616
13766SOL     OW42430   8.483   5.939   4.444  0.5773 -0.3951  0.6451
13766SOL    HW142431   8.462   5.881   4.517  0.6241 -1.2553 -0.0197
13766SOL    HW242432   8.534   5.886   4.384  0.2931  0.2174 -0.1596
13767SOL     OW42433   8.285   6.968   0.280 -0.1677  0.0308 -0.5276
13767SOL    HW142434   8.378   6.944   0.278  0.1034  0.4677  2.6276
13767SOL    HW242435   8.269   7.008   0.194  2.3411 -0.6891 -1.4253
13768SOL     OW42436   8.704   8.285   0.007 -0.2868 -0.4450  0.2489
13768SOL    HW142437   8.659   8.369   0.008 -1.0022 -0.8155 -0.0527
13768SOL    HW242438   8.771   8.293   0.075  1.2900  1.2454 -1.3942
13769SOL     OW42439   3.834   5.685   8.487  0.0730 -0.3218 -0.3031
13769SOL    HW142440   3.772   5.758   8.489 -0.1001 -0.2760 -3.2057
13769SOL    HW242441   3.785   5.613   8.447  0.6164 -1.6873  1.3887
13770SOL     OW42442   1.377   5.661   2.996  0.3612 -0.0977 -0.0642
13770SOL    HW142443   1.294   5.614   3.006  1.1823 -1.4774  0.6363
13770SOL    HW242444   1.389   5.668   2.901  0.1655 -1.2429 -0.1894
13771SOL     OW42445   5.110   0.986   6.162 -0.7819 -0.0626  0.3794
13771SOL    HW142446   5.191   0.971   6.210 -0.1381  0.7134 -0.4382
13771SOL    HW242447   5.080   0.898   6.138 -1.1780 -0.4869  2.2248
13772SOL     OW42448   3.647   9.067   5.620 -0.0333 -0.0403  0.2707
13772SOL    HW142449   3.590   9.034   5.689 -1.3908 -2.1565 -1.7061
13772SOL    HW242450   3.627   9.160   5.614 -0.7965 -0.0756  1.8388
13773SOL     OW42451   1.182   5.814   5.680 -0.0424  0.1028 -0.0894
13773SOL    HW142452   1.121   5.796   5.609 -1.6290 -0.9745  1.4662
13773SOL    HW242453   1.220   5.728   5.701  1.1301  0.5683 -0.2284
13774SOL     OW42454   3.033   4.178   5.021  0.3402  0.0842  0.3336
13774SOL    HW142455   3.075   4.221   4.946  0.5883 -1.7040 -0.6104
13774SOL    HW242456   2.959   4.235   5.042 -0.4468  0.0587 -2.0340
13775SOL     OW42457   8.620   4.131   7.726 -0.6860  0.0342 -0.5674
13775SOL    HW142458   8.531   4.155   7.750 -1.6687 -1.4870 -2.3762
13775SOL    HW242459   8.641   4.189   7.652  0.0996  0.8144  0.2447
13776SOL     OW42460   3.182   5.378   5.390  0.6770  0.1593 -0.7626
13776SOL    HW142461   3.276   5.389   5.372  0.7675  0.0564 -0.3789
13776SOL    HW242462   3.170   5.283   5.390  0.9545  0.0877  0.9836
13777SOL     OW42463   2.155   1.673   4.955 -0.2056 -1.0315 -0.0168
13777SOL    HW142464   2.107   1.755   4.942  1.5006 -0.0927 -0.6046
13777SOL    HW242465   2.104   1.627   5.022 -0.5858  1.0098  1.1905
13778SOL     OW42466   5.544   6.947   2.991 -0.0462  0.6067  0.2170
13778SOL    HW142467   5.570   6.859   2.966 -1.1031  0.6790 -1.2858
13778SOL    HW242468   5.579   6.959   3.079 -0.4885 -1.5770  0.7409
13779SOL     OW42469   7.628   5.653   7.035  0.2052  0.2169 -0.7591
13779SOL    HW142470   7.585   5.670   7.119  0.2953  0.9868 -0.8656
13779SOL    HW242471   7.709   5.608   7.059 -0.5696 -1.1550 -0.5520
13780SOL     OW42472   3.197   5.195   2.059 -0.0383  0.5481 -0.3589
13780SOL    HW142473   3.165   5.123   2.113 -0.8498 -0.0470 -1.5964
13780SOL    HW242474   3.227   5.260   2.122 -1.2656  0.0223  0.8204
13781SOL     OW42475   6.011   1.744   7.730 -0.2562  0.0711 -0.0463
13781SOL    HW142476   5.953   1.820   7.731  0.9856  1.0677 -0.9863
13781SOL    HW242477   6.098   1.779   7.750  0.4252 -1.0083 -0.9712
13782SOL     OW42478   2.550   8.424   9.015  0.1260 -0.0834 -0.6731
13782SOL    HW142479   2.599   8.499   8.980  0.2667 -0.1044 -0.5258
13782SOL    HW242480   2.616   8.373   9.063 -0.0431 -0.1087 -0.4682
13783SOL     OW42481   1.446   8.466   0.823 -0.4385 -0.9841  0.2272
13783SOL    HW142482   1.451   8.557   0.796  0.0282 -0.5247  1.7834
13783SOL    HW242483   1.375   8.429   0.770  0.5370 -0.2090 -1.7024
13784SOL     OW42484   4.199   5.615   5.278 -0.3773  0.1003 -0.1756
13784SOL    HW142485   4.247   5.532   5.277 -0.7742 -0.1824  1.0522
13784SOL    HW242486   4.107   5.589   5.270 -0.6843  0.1941  2.1392
13785SOL     OW42487   4.554   4.365   3.952  0.4012 -0.4390 -0.0676
13785SOL    HW142488   4.582   4.273   3.953 -1.0445 -0.9800 -2.3362
13785SOL    HW242489   4.606   4.405   3.883 -1.3186 -0.4283 -1.4068
13786SOL     OW42490   1.422   0.864   5.131 -0.6286 -0.2062  0.0738
13786SOL    HW142491   1.481   0.808   5.182 -1.6939 -0.9959  0.4788
13786SOL    HW242492   1.397   0.810   5.056 -1.2054 -0.0615  0.1585
13787SOL     OW42493   4.662   3.044   0.599  0.1447 -0.2749 -0.0354
13787SOL    HW142494   4.753   3.067   0.620  0.5058 -0.6761 -1.1320
13787SOL    HW242495   4.615   3.127   0.604  0.4430 -0.1562  1.1254
13788SOL     OW42496   8.197   8.161   3.166  0.0524 -0.6290  0.5814
13788SOL    HW142497   8.180   8.252   3.193 -0.3875 -0.8963  1.2260
13788SOL    HW242498   8.115   8.116   3.183 -0.3278 -0.7809 -1.4208
13789SOL     OW42499   5.205   5.942   1.055  0.2118 -0.0626 -0.0894
13789SOL    HW142500   5.203   5.847   1.067  0.3791 -0.2054 -1.1107
13789SOL    HW242501   5.294   5.968   1.080  0.7211 -0.4263 -1.4318
13790SOL     OW42502   8.002   1.550   3.965 -0.4815  0.6576  0.2044
13790SOL    HW142503   8.069   1.556   4.033 -0.8112  2.1040  0.4306
13790SOL    HW242504   8.034   1.482   3.906 -0.7830 -1.5222  2.4050
13791SOL     OW42505   6.892   1.129   9.031 -0.1248  0.0549 -0.2679
13791SOL    HW142506   6.837   1.106   9.106  0.7428 -1.1153  0.0512
13791SOL    HW242507   6.913   1.221   9.044 -1.2336  0.2733  0.0953
13792SOL     OW42508   0.406   3.041   3.745 -0.3496  0.2994 -0.1942
13792SOL    HW142509   0.375   3.113   3.690 -1.0623  0.5610  0.5305
13792SOL    HW242510   0.484   3.074   3.787 -0.7367  0.6959  0.2222
13793SOL     OW42511   8.110   7.826   5.716  0.2322 -0.1686  0.1488
13793SOL    HW142512   8.069   7.912   5.710  0.4770 -0.1345 -1.4535
13793SOL    HW242513   8.077   7.789   5.798  0.0615  1.4083  0.8177
13794SOL     OW42514   5.406   4.337   7.784  0.0884  0.3154 -0.2459
13794SOL    HW142515   5.314   4.326   7.758 -0.0525 -0.2412  0.4717
13794SOL    HW242516   5.415   4.287   7.865  1.4221 -1.0211 -1.1524
13795SOL     OW42517   2.543   8.122   7.471 -0.1362 -0.2604 -0.5213
13795SOL    HW142518   2.464   8.093   7.516  1.0724 -3.3106 -0.1128
13795SOL    HW242519   2.609   8.126   7.540  0.7397 -0.7266 -1.3103
13796SOL     OW42520   5.175   7.655   0.321  0.3049 -0.2927  0.3066
13796SOL    HW142521   5.156   7.592   0.251  1.0499  0.5341 -0.6607
13796SOL    HW242522   5.252   7.703   0.291  0.1541  0.6422  1.3272
13797SOL     OW42523   0.063   4.510   4.293 -0.6000  0.5724  0.1495
13797SOL    HW142524   0.077   4.440   4.356  0.9304 -2.3573 -3.1739
13797SOL    HW242525  -0.029   4.501   4.268 -0.8085  0.7768  0.8131
13798SOL     OW42526   6.508   8.217   1.929  0.0837 -0.4051 -0.4375
13798SOL    HW142527   6.426   8.169   1.929 -0.0120 -0.3837  1.9092
13798SOL    HW242528   6.550   8.194   1.846 -1.2842 -2.1776 -0.6911
13799SOL     OW42529   2.319   4.923   7.152  0.2052  0.8578 -0.3324
13799SOL    HW142530   2.299   4.864   7.079  0.2954  0.1996  0.1720
13799SOL    HW242531   2.348   5.004   7.109  1.4985  0.0497 -1.0427
13800SOL     OW42532   7.450   0.930   2.983 -0.2445 -0.1473 -0.8696
13800SOL    HW142533   7.409   0.887   2.908 -1.1719  1.4213 -1.3281
13800SOL    HW242534   7.484   1.012   2.948 -0.0310  0.2813  0.2856
13801SOL     OW42535   1.327   6.165   7.969  0.6368 -0.2369 -0.5671
13801SOL    HW142536   1.290   6.077   7.973 -2.3622  0.9486  1.6024
13801SOL    HW242537   1.289   6.204   7.891 -0.8865  0.1756  0.3366
13802SOL     OW42538   0.626   5.585   0.220  0.3547 -0.2558 -0.4295
13802SOL    HW142539   0.677   5.654   0.178  2.8805 -1.0370  1.0938
13802SOL    HW242540   0.675   5.504   0.201 -0.7696 -1.1832  0.4265
13803SOL     OW42541   7.067   1.962   0.449 -0.0106  0.2680  0.3858
13803SOL    HW142542   7.081   1.869   0.430 -0.3294 -0.4107  3.1224
13803SOL    HW242543   7.138   2.007   0.402  0.7283 -1.4456 -0.2100
13804SOL     OW42544   3.234   2.390   2.365 -0.0794 -0.7776  0.2524
13804SOL    HW142545   3.232   2.410   2.459  1.4242  0.2081  0.1169
13804SOL    HW242546   3.181   2.311   2.356  0.5607 -1.4805  2.1021
13805SOL     OW42547   8.629   4.842   4.852  0.0054 -0.1566 -0.0677
13805SOL    HW142548   8.537   4.823   4.836  0.2379  0.5970 -2.6953
13805SOL    HW242549   8.628   4.901   4.927 -1.4989 -1.3631  0.9254
13806SOL     OW42550   3.885   6.352   3.741  0.2110 -0.0287  0.3223
13806SOL    HW142551   3.847   6.372   3.655  0.1943  2.8338  0.8821
13806SOL    HW242552   3.825   6.288   3.779 -1.1280  0.4342 -0.8885
13807SOL     OW42553   8.793   5.878   1.758 -0.3614 -0.3245  0.2922
13807SOL    HW142554   8.795   5.813   1.828 -0.6583 -1.0167 -0.3352
13807SOL    HW242555   8.799   5.827   1.678 -1.1361  0.3872 -0.2292
13808SOL     OW42556   2.775   1.303   1.131  0.2619  0.0509 -0.6888
13808SOL    HW142557   2.847   1.338   1.182 -1.2349  0.4823  1.2595
13808SOL    HW242558   2.760   1.368   1.062  1.1410  0.4083 -0.5511
13809SOL     OW42559   7.129   1.680   3.580  0.1118  0.1186 -0.7792
13809SOL    HW142560   7.150   1.769   3.554  0.3364  0.2176 -0.2690
13809SOL    HW242561   7.161   1.673   3.670 -2.3614  0.3795  0.1765
13810SOL     OW42562   2.566   3.451   4.558 -0.2765 -0.8573  0.3870
13810SOL    HW142563   2.488   3.501   4.534 -0.2034 -0.4182  1.0657
13810SOL    HW242564   2.613   3.506   4.619  1.3432 -0.4666 -1.1205
13811SOL     OW42565   6.614   0.332   8.368 -0.4171  0.4960  0.2364
13811SOL    HW142566   6.683   0.373   8.316 -0.6901  1.5711  0.7015
13811SOL    HW242567   6.615   0.240   8.340  1.6711  0.3189  0.7469
13812SOL     OW42568   5.740   6.186   5.868  0.3924 -0.3960 -0.4191
13812SOL    HW142569   5.721   6.249   5.937 -1.4145 -1.4543  0.1186
13812SOL    HW242570   5.831   6.203   5.844  0.1655  1.9356  0.1687
13813SOL     OW42571   9.069   0.505   3.160 -0.4859 -0.5235 -0.5562
13813SOL    HW142572   9.006   0.533   3.093 -0.7089 -1.4795 -0.7557
13813SOL    HW242573   9.153   0.540   3.130 -0.7330 -0.1723 -0.8544
13814SOL     OW42574   1.764   5.341   6.533  0.0522  0.5645 -0.0295
13814SOL    HW142575   1.819   5.328   6.455 -0.5051  0.4002 -0.4013
13814SOL    HW242576   1.784   5.266   6.589 -1.3784 -0.7146 -1.1171
13815SOL     OW42577   3.123   0.074   6.237 -0.1832 -0.0227  0.5329
13815SOL    HW142578   3.073   0.019   6.297 -0.5877 -0.2457 -0.0124
13815SOL    HW242579   3.200   0.100   6.288 -0.1857 -0.7661  0.9240
13816SOL     OW42580   3.284   2.438   2.046  0.1671 -0.1942 -0.6129
13816SOL    HW142581   3.352   2.415   2.110  0.6497  0.1560 -0.9950
13816SOL    HW242582   3.212   2.378   2.066  0.5430 -0.4972 -0.1289
13817SOL     OW42583   9.047   1.619   0.116 -0.1600 -0.4989 -0.2154
13817SOL    HW142584   8.952   1.623   0.130  0.0121  0.4741  0.7866
13817SOL    HW242585   9.071   1.530   0.141 -0.6568 -0.4142  0.6134
13818SOL     OW42586   2.933   8.891   7.553  0.1832  0.0301 -0.0780
13818SOL    HW142587   2.872   8.877   7.626  0.5127  0.9011  0.3710
13818SOL    HW242588   2.902   8.832   7.485 -0.9926  0.2556  0.2474
13819SOL     OW42589   3.269   2.020   3.144  0.1439  0.1920  0.2580
13819SOL    HW142590   3.268   1.929   3.113 -0.7582 -0.4727  2.0839
13819SOL    HW242591   3.359   2.050   3.129  1.0527 -1.7146  1.5143
13820SOL     OW42592   7.449   6.221   5.757 -0.2777  0.1610 -0.1000
13820SOL    HW142593   7.473   6.282   5.688 -0.6360 -0.1676 -0.5202
13820SOL    HW242594   7.441   6.136   5.714 -2.6132  0.3178 -0.1123
13821SOL     OW42595   3.265   7.281   4.807 -0.0140  0.4643 -0.5373
13821SOL    HW142596   3.237   7.222   4.878  0.8107 -0.5267 -0.9991
13821SOL    HW242597   3.271   7.367   4.849 -2.9292  0.6337 -0.2430
13822SOL     OW42598   8.614   8.104   6.761  0.2527  0.0020 -0.0902
13822SOL    HW142599   8.674   8.173   6.789 -0.7705  0.5725  0.7628
13822SOL    HW242600   8.647   8.076   6.675  2.8640 -1.0679  1.1759
13823SOL     OW42601   3.590   1.864   5.547  0.7366 -0.8650  0.0045
13823SOL    HW142602   3.605   1.887   5.455 -0.7189  0.9473  0.1444
13823SOL    HW242603   3.642   1.786   5.562  1.8133 -0.6070 -2.0869
13824SOL     OW42604   3.483   6.055   1.157 -0.8892 -0.2980 -0.1875
13824SOL    HW142605   3.483   6.018   1.069 -0.3731 -2.6854  0.7355
13824SOL    HW242606   3.412   6.009   1.202 -1.6342  1.4136  0.4910
13825SOL     OW42607   6.004   0.468   7.834 -0.8240 -0.2793 -0.4944
13825SOL    HW142608   6.059   0.461   7.912 -0.9898  0.9922 -0.2382
13825SOL    HW242609   5.932   0.525   7.860 -0.9407  0.0793 -1.5388
13826SOL     OW42610   7.923   3.273   6.162 -0.3425 -0.0884 -0.0300
13826SOL    HW142611   7.886   3.359   6.182 -0.7701 -0.3543  0.3334
13826SOL    HW242612   7.891   3.216   6.232  0.6071 -0.3692  0.1894
13827SOL     OW42613   0.680   2.695   5.978  0.3188  0.4082 -0.4186
13827SOL    HW142614   0.726   2.664   6.055  0.0566 -1.4752 -0.9730
13827SOL    HW242615   0.684   2.791   5.984  0.3682  0.3076  1.8643
13828SOL     OW42616   2.008   3.475   8.207 -0.1330  0.2339 -0.0805
13828SOL    HW142617   1.915   3.463   8.187 -0.8610  0.5773  2.7002
13828SOL    HW242618   2.015   3.456   8.301  2.2506  2.0580  0.2114
13829SOL     OW42619   0.535   6.318   3.264  0.2218  0.7932  0.0762
13829SOL    HW142620   0.471   6.292   3.329  0.4682 -1.5064 -0.5283
13829SOL    HW242621   0.618   6.280   3.294  0.1698 -1.1790 -1.9740
13830SOL     OW42622   9.117   8.870   2.834 -0.2629 -0.7215  0.0855
13830SOL    HW142623   9.162   8.933   2.777  0.8136  0.2145  1.8986
13830SOL    HW242624   9.164   8.788   2.819  1.6641  0.0666  1.3814
13831SOL     OW42625   1.030   6.938   4.074  0.4265  0.3081 -0.7172
13831SOL    HW142626   1.047   6.898   4.159  0.6879  0.7223 -0.5763
13831SOL    HW242627   0.972   6.875   4.030 -0.5480  0.5642  0.1456
13832SOL     OW42628   7.721   8.892   7.482 -0.4546  0.2882 -0.1703
13832SOL    HW142629   7.772   8.892   7.401  1.0685  3.3363  0.6436
13832SOL    HW242630   7.785   8.872   7.551 -0.6060  2.6389  0.7210
13833SOL     OW42631   2.372   2.424   2.089  0.3888  0.2140  0.1011
13833SOL    HW142632   2.449   2.477   2.070 -0.1049  1.0982  0.4601
13833SOL    HW242633   2.351   2.446   2.180  0.4964 -1.0387  0.4469
13834SOL     OW42634   1.611   7.773   9.022  0.0516  0.2542 -0.1885
13834SOL    HW142635   1.561   7.789   9.102  0.6799  1.5004 -0.0252
13834SOL    HW242636   1.604   7.854   8.972  0.3803 -0.2049 -1.0103
13835SOL     OW42637   2.218   6.458   3.945  0.3543  0.1920 -0.1306
13835SOL    HW142638   2.221   6.441   4.039 -1.3982  1.5528  0.2229
13835SOL    HW242639   2.131   6.496   3.930  0.2364 -0.7998 -2.4536
13836SOL     OW42640   5.484   8.690   8.414  0.1936  0.1896  0.1611
13836SOL    HW142641   5.513   8.612   8.462  1.6435  1.4953  1.5326
13836SOL    HW242642   5.394   8.704   8.443  0.6397  0.2511  1.5841
13837SOL     OW42643   6.027   7.096   0.648  0.3269 -0.5303  0.0702
13837SOL    HW142644   5.979   7.169   0.608  0.3579 -0.6888 -0.2543
13837SOL    HW242645   6.089   7.138   0.708 -0.1039 -0.3159  0.3759
13838SOL     OW42646   1.617   8.798   3.018 -0.0069 -0.3581  0.0082
13838SOL    HW142647   1.526   8.776   2.996  0.0976 -1.5929  0.7034
13838SOL    HW242648   1.633   8.880   2.971 -1.6572  0.2003  0.3266
13839SOL     OW42649   6.285   7.685   2.985 -0.4231  0.0639  0.0630
13839SOL    HW142650   6.290   7.763   2.930  0.4316 -1.2354 -1.8066
13839SOL    HW242651   6.231   7.623   2.935  1.9787 -1.8629 -0.3197
13840SOL     OW42652   2.380   3.948   5.180 -0.1998 -0.8094 -0.1210
13840SOL    HW142653   2.468   3.973   5.210 -0.6306 -0.5623  0.9880
13840SOL    HW242654   2.347   3.891   5.250 -1.7335  0.7930  0.5317
13841SOL     OW42655   1.155   8.354   6.194  0.6931  0.1439  0.6370
13841SOL    HW142656   1.094   8.418   6.230  2.5894  1.5298  1.5709
13841SOL    HW242657   1.188   8.394   6.114 -2.1223 -2.1297 -1.8845
13842SOL     OW42658   1.062   8.251   2.299  0.1012  0.6782 -0.2728
13842SOL    HW142659   1.130   8.292   2.245 -0.6999  0.3847 -1.5544
13842SOL    HW242660   1.094   8.162   2.313 -0.3919  0.2638 -1.6212
13843SOL     OW42661   1.734   7.145   1.978  0.0883 -0.3565  0.3354
13843SOL    HW142662   1.666   7.135   2.044  0.5186 -1.8173  0.5842
13843SOL    HW242663   1.802   7.196   2.022  0.4840 -1.5348  1.1455
13844SOL     OW42664   0.391   7.517   6.637 -0.3819  0.4430  0.1171
13844SOL    HW142665   0.296   7.505   6.642 -0.2221 -0.5243  1.1612
13844SOL    HW242666   0.424   7.489   6.722  0.9157  0.0537 -0.4801
13845SOL     OW42667   7.570   8.322   4.520  0.1159  0.5261  0.2169
13845SOL    HW142668   7.568   8.415   4.542 -1.0825  0.5413  0.0715
13845SOL    HW242669   7.516   8.280   4.587 -1.4673  0.2676 -1.1567
13846SOL     OW42670   8.620   3.323   5.984  0.1160  0.3217  0.1211
13846SOL    HW142671   8.690   3.258   5.972 -1.1497 -0.8761 -1.1651
13846SOL    HW242672   8.585   3.304   6.071  0.7521  0.3015  0.3814
13847SOL     OW42673   1.154   3.104   3.083  0.4610  0.0397  0.1589
13847SOL    HW142674   1.153   3.058   2.999 -1.5333  0.8465 -0.3069
13847SOL    HW242675   1.214   3.178   3.069 -1.0108  1.0456 -1.0879
13848SOL     OW42676   1.741   0.877   8.342 -0.4891 -0.3256 -0.3003
13848SOL    HW142677   1.742   0.871   8.437  0.4775  2.1074 -0.0740
13848SOL    HW242678   1.687   0.953   8.323  0.1092 -0.1974 -1.6331
13849SOL     OW42679   5.263   8.464   1.689 -0.0820 -0.2598 -0.5435
13849SOL    HW142680   5.258   8.485   1.596  1.6672  0.2041 -0.5714
13849SOL    HW242681   5.223   8.539   1.733  0.6273  0.3327 -0.8781
13850SOL     OW42682   5.613   4.045   2.440 -0.0194 -0.5152 -0.4615
13850SOL    HW142683   5.679   4.113   2.430 -0.8126  0.7851  2.1925
13850SOL    HW242684   5.531   4.088   2.414 -0.5530 -0.3422  1.3898
13851SOL     OW42685   8.588   2.980   3.663  0.3395  0.0294  0.3751
13851SOL    HW142686   8.660   2.975   3.726  1.0239  0.2784 -0.3695
13851SOL    HW242687   8.589   3.071   3.633 -1.7854  0.7014  2.0548
13852SOL     OW42688   5.152   8.519   8.998  0.2699 -0.2670 -0.1439
13852SOL    HW142689   5.223   8.528   8.934  0.5627  0.4371  0.2776
13852SOL    HW242690   5.195   8.492   9.079  0.1020  0.4173  0.1838
13853SOL     OW42691   4.828   2.717   2.163 -0.7466  0.3370 -0.2717
13853SOL    HW142692   4.854   2.722   2.071  0.1454  0.5466 -0.0169
13853SOL    HW242693   4.905   2.683   2.208 -1.0713  0.5271  0.4474
13854SOL     OW42694   4.298   2.125   6.192 -0.5845 -0.0350  0.0971
13854SOL    HW142695   4.242   2.106   6.117 -1.4509 -0.5330  0.8490
13854SOL    HW242696   4.280   2.217   6.213 -0.3021  0.1199 -0.3231
13855SOL     OW42697   5.045   2.379   7.754  0.5708 -0.3044  0.1655
13855SOL    HW142698   5.080   2.341   7.834 -0.8489 -2.4116 -0.1294
13855SOL    HW242699   4.992   2.310   7.716 -1.4626  1.7178 -0.9170
13856SOL     OW42700   6.443   8.549   0.809 -0.1797  0.2127 -0.3325
13856SOL    HW142701   6.488   8.581   0.731 -0.3997 -0.4457 -0.7478
13856SOL    HW242702   6.350   8.549   0.784 -0.1187 -1.7905 -0.7875
13857SOL     OW42703   6.148   0.410   2.365  0.0873 -0.1848  0.4907
13857SOL    HW142704   6.165   0.346   2.296 -1.8130  0.7200 -0.9051
13857SOL    HW242705   6.106   0.483   2.320  1.0949  1.5524  2.2299
13858SOL     OW42706   1.304   4.773   8.908  0.8386  0.6759 -0.3743
13858SOL    HW142707   1.299   4.688   8.952  0.0994  1.9089  2.1502
13858SOL    HW242708   1.226   4.776   8.853  1.0123 -0.3782 -0.6921
13859SOL     OW42709   8.202   4.042   6.747 -0.0907  0.3103 -0.2548
13859SOL    HW142710   8.267   4.067   6.682  1.0529 -0.8890  0.3767
13859SOL    HW242711   8.203   4.113   6.811 -0.8813  1.2667 -1.2670
13860SOL     OW42712   1.109   7.475   3.654  0.1187 -0.1766 -0.2208
13860SOL    HW142713   1.050   7.417   3.605 -0.0766 -0.1237 -0.0498
13860SOL    HW242714   1.050   7.533   3.702  0.3078 -0.4092  0.2950
13861SOL     OW42715   7.680   2.332   6.432  0.4683 -0.3389  0.1749
13861SOL    HW142716   7.775   2.334   6.441  0.5028 -1.9103  0.3752
13861SOL    HW242717   7.647   2.312   6.520  0.1316 -2.6977 -0.4365
13862SOL     OW42718   8.114   7.868   1.287 -0.5011  0.3684  0.0775
13862SOL    HW142719   8.024   7.859   1.316 -0.9717  1.1794 -1.0358
13862SOL    HW242720   8.119   7.958   1.254  0.6685  0.2751 -0.0358
13863SOL     OW42721   6.384   1.439   7.452  0.0188  0.2969  0.1664
13863SOL    HW142722   6.454   1.375   7.441 -0.6515 -0.4119 -0.0223
13863SOL    HW242723   6.335   1.436   7.369 -1.4597 -0.7195  1.0244
13864SOL     OW42724   4.620   4.661   1.962  0.7895 -0.0619  0.0783
13864SOL    HW142725   4.643   4.723   2.031  0.9929 -1.8486  1.7336
13864SOL    HW242726   4.681   4.678   1.891  2.0258  0.4393  1.2291
13865SOL     OW42727   0.089   2.145   2.817  0.6075 -0.5861  0.2992
13865SOL    HW142728   0.002   2.117   2.846  1.3765 -3.0062  0.4233
13865SOL    HW242729   0.110   2.220   2.873 -1.7194  0.6288 -0.3225
13866SOL     OW42730   4.399   4.621   3.698 -0.0952  0.1218  0.4226
13866SOL    HW142731   4.398   4.536   3.743 -0.3727  0.9609  2.0769
13866SOL    HW242732   4.307   4.648   3.696  0.1102  0.8700  0.8756
13867SOL     OW42733   3.706   6.767   1.185 -0.2512  0.1853 -0.6965
13867SOL    HW142734   3.771   6.754   1.116 -0.2388 -0.5946 -0.5497
13867SOL    HW242735   3.644   6.829   1.148  0.4788  0.8017 -0.9001
13868SOL     OW42736   2.215   5.178   2.061 -0.7025 -0.6354 -0.0845
13868SOL    HW142737   2.310   5.178   2.048 -0.6273  0.1047  0.4427
13868SOL    HW242738   2.179   5.184   1.972 -0.2254  1.7841 -0.1706
13869SOL     OW42739   2.199   7.818   2.394  0.3421  0.1345  0.1219
13869SOL    HW142740   2.206   7.818   2.490 -1.4732 -2.1477  0.3585
13869SOL    HW242741   2.246   7.740   2.366 -0.1264  0.1452 -0.7356
13870SOL     OW42742   8.344   4.822   4.923 -0.1839  0.5477  0.1219
13870SOL    HW142743   8.269   4.804   4.866 -0.6712  0.3928  0.8082
13870SOL    HW242744   8.317   4.791   5.009  1.6543 -1.9757 -0.0965
13871SOL     OW42745   1.885   2.697   7.781 -0.4450 -0.0900 -0.7802
13871SOL    HW142746   1.930   2.617   7.808 -1.8632 -0.8318 -0.4658
13871SOL    HW242747   1.934   2.768   7.823  0.9513 -0.7626 -1.2146
13872SOL     OW42748   5.316   0.056   8.758 -0.1691  0.3214 -0.0582
13872SOL    HW142749   5.343  -0.029   8.724 -1.2132 -0.9177  1.9735
13872SOL    HW242750   5.351   0.119   8.696 -2.0063 -1.6851 -3.4345
13873SOL     OW42751   5.436   1.933   2.590  0.4072 -0.3607 -0.2760
13873SOL    HW142752   5.509   1.884   2.553  1.1717  0.6118 -0.0922
13873SOL    HW242753   5.442   2.020   2.549  1.2479  0.7467  2.0145
13874SOL     OW42754   2.441   4.182   1.911 -0.1196  0.0754 -0.5667
13874SOL    HW142755   2.445   4.123   1.987  1.1542 -0.0015 -0.6599
13874SOL    HW242756   2.367   4.240   1.929  0.5714  0.5038  1.0774
13875SOL     OW42757   3.662   0.503   0.821 -0.3195 -0.1459 -0.0701
13875SOL    HW142758   3.578   0.547   0.810 -0.3543 -0.5485 -1.5786
13875SOL    HW242759   3.640   0.421   0.865 -0.4500  0.5697  1.2659
13876SOL     OW42760   8.595   4.877   7.149 -0.1929 -0.0614 -0.1070
13876SOL    HW142761   8.616   4.945   7.085  1.1872 -0.1924  0.1759
13876SOL    HW242762   8.607   4.920   7.234 -0.2248 -0.3957  0.0671
13877SOL     OW42763   8.903   1.936   2.260  0.3630  0.1003 -0.5721
13877SOL    HW142764   8.978   1.902   2.211 -0.4642 -2.1070 -0.4081
13877SOL    HW242765   8.868   1.860   2.306 -1.3134  1.3076  0.2546
13878SOL     OW42766   9.085   1.006   4.152 -0.5904  0.0382  0.3798
13878SOL    HW142767   9.046   1.011   4.239  0.1990  0.7587  0.7075
13878SOL    HW242768   9.130   1.090   4.141  1.3429 -0.9499  0.2604
13879SOL     OW42769   8.400   1.303   4.071 -0.4338  0.2383  0.1886
13879SOL    HW142770   8.388   1.236   4.138 -0.8741  1.3267  1.2487
13879SOL    HW242771   8.388   1.386   4.118 -1.5355  1.0292 -1.3901
13880SOL     OW42772   6.507   7.727   9.074 -0.6218 -0.0360 -0.2903
13880SOL    HW142773   6.574   7.673   9.033  2.2046  0.6485  2.9378
13880SOL    HW242774   6.435   7.667   9.091 -0.0932 -1.2975 -2.1602
13881SOL     OW42775   8.645   0.104   2.169  0.0843  0.0867  0.4079
13881SOL    HW142776   8.619   0.079   2.258  0.9402 -0.9062  0.3890
13881SOL    HW242777   8.583   0.058   2.112  0.1117 -0.0095  0.4558
13882SOL     OW42778   7.897   3.370   2.292 -0.3886  0.3979 -0.2500
13882SOL    HW142779   7.983   3.401   2.320 -1.2115  1.8768  0.7793
13882SOL    HW242780   7.916   3.300   2.229  1.5513  0.8218 -0.2004
13883SOL     OW42781   8.576   0.523   0.519  0.3087  0.5276  0.8040
13883SOL    HW142782   8.628   0.446   0.496 -1.1629 -0.2900  0.0289
13883SOL    HW242783   8.595   0.586   0.449  0.2475  0.2404  0.5284
13884SOL     OW42784   0.684   5.893   6.187  0.0692  0.4484 -0.1889
13884SOL    HW142785   0.729   5.975   6.166 -1.0356  0.7986 -1.3390
13884SOL    HW242786   0.594   5.906   6.154 -0.1908 -1.1219 -0.1743
13885SOL     OW42787   6.003   0.458   3.307 -0.3697 -0.2476 -0.5290
13885SOL    HW142788   5.923   0.490   3.348  0.2958 -0.0475  0.6589
13885SOL    HW242789   5.974   0.413   3.228 -1.8026 -1.6982  0.7639
13886SOL     OW42790   8.896   1.779   8.099  0.0394 -0.0485  0.4159
13886SOL    HW142791   8.885   1.723   8.177  0.1110 -0.5904  0.0456
13886SOL    HW242792   8.990   1.774   8.080 -0.0437 -0.2511  0.0534
13887SOL     OW42793   2.360   0.027   1.886 -0.2885  0.0659 -1.0016
13887SOL    HW142794   2.335   0.011   1.795  1.2257  0.9776 -1.6018
13887SOL    HW242795   2.451   0.054   1.882 -0.3616  0.6993  0.7478
13888SOL     OW42796   1.960   6.292   0.631 -0.4437 -0.1053  0.2381
13888SOL    HW142797   1.934   6.373   0.674 -1.5894 -0.5320  0.3863
13888SOL    HW242798   1.932   6.303   0.540  1.2954  0.4937 -0.2482
13889SOL     OW42799   2.490   7.153   2.916  0.6825 -0.4193  0.6702
13889SOL    HW142800   2.449   7.113   2.839 -0.2503 -0.1836  1.0301
13889SOL    HW242801   2.523   7.079   2.966  0.1871 -0.6548  0.6552
13890SOL     OW42802   7.376   5.949   6.535  0.2310 -0.0800 -0.2054
13890SOL    HW142803   7.301   5.910   6.581  0.2381 -0.3787 -0.4420
13890SOL    HW242804   7.338   6.015   6.477  0.4525  2.7643  2.6222
13891SOL     OW42805   5.353   2.031   7.341  0.3923  0.0469  0.2107
13891SOL    HW142806   5.287   2.035   7.410 -0.3536 -0.1597 -0.4661
13891SOL    HW242807   5.394   1.945   7.351 -1.1675 -0.8824 -0.8662
13892SOL     OW42808   3.073   5.325   3.513 -0.3725  0.4780  0.0118
13892SOL    HW142809   3.168   5.315   3.504 -0.3371  0.4327  0.4106
13892SOL    HW242810   3.058   5.328   3.608 -0.8556 -0.3211 -0.0265
13893SOL     OW42811   6.504   2.845   1.065 -0.2015 -0.3647 -0.2330
13893SOL    HW142812   6.481   2.784   0.995  0.6974  2.0430 -2.8382
13893SOL    HW242813   6.420   2.871   1.103 -0.9954  0.0666 -2.1445
13894SOL     OW42814   4.503   1.440   4.530  0.3525  0.1705 -0.0806
13894SOL    HW142815   4.485   1.524   4.487  1.1366 -0.2166 -1.2148
13894SOL    HW242816   4.596   1.425   4.516  0.4917 -0.3003  1.2190
13895SOL     OW42817   2.609   1.812   7.303  0.6127 -1.0665 -0.0560
13895SOL    HW142818   2.533   1.775   7.258  1.1987  0.4166 -2.4403
13895SOL    HW242819   2.571   1.869   7.370 -0.3619 -0.9314 -0.6986
13896SOL     OW42820   2.587   4.459   4.302  0.2976  0.6201  0.2390
13896SOL    HW142821   2.590   4.535   4.244 -1.0804  0.2036 -0.4291
13896SOL    HW242822   2.655   4.400   4.267  0.3786  0.9301 -0.1334
13897SOL     OW42823   1.183   1.177   7.908 -0.0267 -0.2946 -0.0193
13897SOL    HW142824   1.193   1.089   7.870 -0.1039 -0.9448  1.3951
13897SOL    HW242825   1.124   1.164   7.982 -0.5899  1.0931 -0.2054
13898SOL     OW42826   7.762   1.173   4.422  0.6730  0.4814  0.0291
13898SOL    HW142827   7.800   1.258   4.399  1.7123 -0.4677 -2.0350
13898SOL    HW242828   7.831   1.109   4.401 -0.8518 -1.0426 -0.5764
13899SOL     OW42829   3.377   1.049   1.364  0.0565 -0.7602 -0.5906
13899SOL    HW142830   3.287   1.074   1.344 -0.2070  0.6525  1.9497
13899SOL    HW242831   3.411   1.014   1.281 -2.2529  0.2756 -2.0799
13900SOL     OW42832   3.489   1.935   7.136  0.0088  0.0787 -0.0714
13900SOL    HW142833   3.452   1.952   7.223  0.3392 -0.8566  0.2691
13900SOL    HW242834   3.560   1.998   7.127  0.2165 -0.0683  0.5009
13901SOL     OW42835   3.022   2.940   0.171 -0.4335 -0.0823 -0.7244
13901SOL    HW142836   2.929   2.934   0.148 -0.2934  1.2070 -1.7135
13901SOL    HW242837   3.068   2.928   0.088  0.3441 -1.5949 -0.1087
13902SOL     OW42838   6.908   6.314   4.984 -0.0477 -0.2472 -0.3063
13902SOL    HW142839   6.976   6.382   4.982 -1.0339  0.8109  0.2069
13902SOL    HW242840   6.905   6.286   5.076 -0.5445 -0.0066 -0.2412
13903SOL     OW42841   7.683   7.208   3.958 -0.0195 -0.2463 -0.1142
13903SOL    HW142842   7.659   7.299   3.980  1.9035  0.4071 -0.5044
13903SOL    HW242843   7.608   7.175   3.908 -0.5555  1.2959 -0.3904
13904SOL     OW42844   1.553   7.524   1.452 -0.6008 -0.1363  0.0435
13904SOL    HW142845   1.468   7.521   1.408 -0.5238 -1.1978 -0.0655
13904SOL    HW242846   1.616   7.495   1.385 -0.5601 -2.4444  0.9691
13905SOL     OW42847   0.630   5.330   6.376 -0.0759 -0.1438  0.2557
13905SOL    HW142848   0.688   5.369   6.442 -0.2906  0.4547  0.1043
13905SOL    HW242849   0.554   5.389   6.375  0.2177  0.2314 -0.9984
13906SOL     OW42850   0.024   0.281   7.356 -0.3301  0.0864  0.0182
13906SOL    HW142851  -0.054   0.238   7.321 -0.5060 -0.3797  0.9501
13906SOL    HW242852   0.046   0.346   7.290 -1.2141 -0.1089 -0.4992
13907SOL     OW42853   0.993   5.394   3.607  0.0645  0.3748  0.4913
13907SOL    HW142854   1.057   5.403   3.537  0.9244 -0.7324  1.1048
13907SOL    HW242855   1.036   5.432   3.684 -0.0960 -0.1485  0.8465
13908SOL     OW42856   3.414   6.066   7.484 -0.1106  0.0116  0.4704
13908SOL    HW142857   3.352   6.111   7.542 -2.1406 -0.3498 -1.2967
13908SOL    HW242858   3.387   5.974   7.487  0.2004 -0.1170 -0.4828
13909SOL     OW42859   0.254   3.035   8.174  0.9670  0.6434 -0.0762
13909SOL    HW142860   0.318   3.100   8.144 -0.2105  0.8766 -2.2180
13909SOL    HW242861   0.213   3.003   8.094 -1.3842  0.2720  1.2110
13910SOL     OW42862   8.657   6.197   6.356  0.0886  0.1873 -0.1624
13910SOL    HW142863   8.677   6.143   6.433  2.2892  0.4547 -0.4783
13910SOL    HW242864   8.562   6.210   6.360 -0.0012 -0.6754  1.9159
13911SOL     OW42865   3.841   3.896   1.663  0.0842 -0.1286 -0.1068
13911SOL    HW142866   3.931   3.871   1.645 -0.0638  0.5308 -1.9071
13911SOL    HW242867   3.832   3.984   1.625 -1.5923 -0.6118 -0.9279
13912SOL     OW42868   5.796   1.989   2.268 -0.4608  0.8639  0.1961
13912SOL    HW142869   5.888   2.015   2.280 -0.1216  0.0937 -0.6225
13912SOL    HW242870   5.773   1.946   2.350  0.5590 -0.7317 -0.3013
13913SOL     OW42871   6.102   1.813   1.317  0.5380  0.0166  0.4141
13913SOL    HW142872   6.029   1.825   1.257  0.4515 -1.3000  0.2152
13913SOL    HW242873   6.166   1.763   1.266 -0.5924 -3.4806  2.1070
13914SOL     OW42874   1.471   6.440   4.767  0.1846 -0.1820  0.3931
13914SOL    HW142875   1.565   6.423   4.776  0.1757 -0.1319  0.5898
13914SOL    HW242876   1.448   6.487   4.847 -0.0059 -0.1841  0.3391
13915SOL     OW42877   6.191   7.771   0.562 -0.2834 -0.0002  0.2128
13915SOL    HW142878   6.182   7.774   0.467  0.9453 -2.2875 -0.0518
13915SOL    HW242879   6.102   7.785   0.595 -1.2794 -1.8872 -1.4076
13916SOL     OW42880   8.300   3.237   1.630 -0.0434  0.1786 -0.6404
13916SOL    HW142881   8.365   3.194   1.686  0.0019 -0.3790 -1.1058
13916SOL    HW242882   8.306   3.190   1.547 -0.3228  0.8005 -1.0163
13917SOL     OW42883   3.357   2.383   4.310  0.1452 -0.1370 -0.3469
13917SOL    HW142884   3.445   2.401   4.342 -0.3333 -0.7287  1.3829
13917SOL    HW242885   3.371   2.355   4.219  1.4780  2.1181 -0.9186
13918SOL     OW42886   0.053   4.829   3.542 -0.1686 -0.2294  0.4240
13918SOL    HW142887   0.066   4.904   3.484 -1.4461  0.1003  0.5367
13918SOL    HW242888   0.001   4.863   3.615 -0.6761 -1.1997  0.5338
13919SOL     OW42889   5.233   5.723   6.106  0.5873 -0.1563 -0.3615
13919SOL    HW142890   5.210   5.712   6.199  1.0841  1.6036 -0.0102
13919SOL    HW242891   5.149   5.736   6.063  0.4677  0.6564  0.0974
13920SOL     OW42892   3.614   0.964   8.646  0.3098  0.2644 -0.2108
13920SOL    HW142893   3.616   0.878   8.689 -0.3670  0.0838 -0.5133
13920SOL    HW242894   3.693   1.008   8.675  0.4117 -0.2757  0.3463
13921SOL     OW42895   5.322   4.465   6.323  0.5133  0.0806 -0.4889
13921SOL    HW142896   5.237   4.475   6.279 -0.6021 -2.8546  0.7264
13921SOL    HW242897   5.386   4.468   6.252 -0.8855 -0.6339 -1.8437
13922SOL     OW42898   0.214   1.546   2.794 -0.4787  0.0116  0.2870
13922SOL    HW142899   0.249   1.524   2.880  0.6177 -0.1874 -0.1901
13922SOL    HW242900   0.129   1.501   2.790  0.2232 -1.3954  0.6129
13923SOL     OW42901   8.393   7.263   8.535  0.2745  0.5983  0.4005
13923SOL    HW142902   8.431   7.208   8.466 -0.3812  0.6409 -0.0084
13923SOL    HW242903   8.467   7.312   8.571  0.8121 -0.2756  0.5219
13924SOL     OW42904   4.607   5.242   3.366  0.1811 -0.6188  0.0318
13924SOL    HW142905   4.614   5.177   3.437  0.7651 -0.8666 -0.2485
13924SOL    HW242906   4.659   5.316   3.397 -1.0544  0.0277  0.6683
13925SOL     OW42907   8.994   2.508   1.970  0.3235 -0.0646 -0.1371
13925SOL    HW142908   8.909   2.472   1.946  0.2300 -0.2995  0.5313
13925SOL    HW242909   9.057   2.443   1.939  0.1987 -0.4301  0.3775
13926SOL     OW42910   0.138   1.648   7.074 -0.0312 -0.0225  0.3798
13926SOL    HW142911   0.198   1.721   7.091 -0.6254  0.8684 -1.2061
13926SOL    HW242912   0.063   1.665   7.130 -0.4790  0.9973 -0.5010
13927SOL     OW42913   1.552   5.522   5.289 -0.0343  0.2400  0.0117
13927SOL    HW142914   1.549   5.611   5.323  0.8291  0.5755 -0.7485
13927SOL    HW242915   1.636   5.488   5.319  0.3331  0.2287 -0.9901
13928SOL     OW42916   6.532   2.690   5.362 -0.3174  0.1108  0.1723
13928SOL    HW142917   6.541   2.595   5.370 -0.0038  0.0695 -0.5866
13928SOL    HW242918   6.441   2.707   5.385 -0.0482 -0.2262  1.5272
13929SOL     OW42919   8.412   7.423   2.053 -0.0100  0.0783 -0.8583
13929SOL    HW142920   8.445   7.508   2.082  0.4722 -0.4628  0.2809
13929SOL    HW242921   8.317   7.436   2.045 -0.0105  0.6013 -0.1915
13930SOL     OW42922   2.832   1.707   4.481 -0.4512 -0.5466 -0.2127
13930SOL    HW142923   2.800   1.679   4.567  0.0386 -0.9072 -0.1394
13930SOL    HW242924   2.754   1.710   4.425 -1.0697  1.3927  0.6626
13931SOL     OW42925   7.392   4.087   1.449  0.3243 -0.6746  0.5900
13931SOL    HW142926   7.338   4.124   1.379  1.1117  1.1037  0.8670
13931SOL    HW242927   7.375   4.142   1.525  1.4478 -0.9536  1.0698
13932SOL     OW42928   8.122   5.862   5.984  0.4584  0.5020 -0.0236
13932SOL    HW142929   8.181   5.799   6.026 -1.7821 -1.3892  0.5464
13932SOL    HW242930   8.096   5.819   5.902 -1.7480  0.1844  0.7559
13933SOL     OW42931   7.334   4.909   1.267 -0.2675  0.1189  0.4475
13933SOL    HW142932   7.331   4.869   1.180 -1.4102  1.0259  0.0413
13933SOL    HW242933   7.414   4.962   1.267  0.4394 -0.9323  0.4435
13934SOL     OW42934   5.492   0.624   0.321 -0.0849  0.3452  0.1069
13934SOL    HW142935   5.496   0.596   0.413 -0.5878 -0.0128  0.0239
13934SOL    HW242936   5.420   0.687   0.318 -0.0397  0.3906 -0.0333
13935SOL     OW42937   9.043   3.249   6.641 -1.0353 -0.0346 -0.6385
13935SOL    HW142938   9.092   3.178   6.599  0.2525  1.8684 -2.5221
13935SOL    HW242939   9.108   3.316   6.661 -2.4428  1.3646 -0.5374
13936SOL     OW42940   8.594   1.588   1.370 -0.1670  0.0352 -0.3593
13936SOL    HW142941   8.647   1.633   1.304 -0.1072 -0.5225 -0.7029
13936SOL    HW242942   8.503   1.601   1.340 -0.0761 -1.6824 -1.5552
13937SOL     OW42943   6.215   8.623   7.119 -0.1554  0.2092 -0.0635
13937SOL    HW142944   6.177   8.700   7.077  0.0396 -0.3174 -1.2346
13937SOL    HW242945   6.208   8.641   7.213 -2.1274  0.6760 -0.2673
13938SOL     OW42946   5.974   2.264   5.142  0.1259 -0.1691  0.1434
13938SOL    HW142947   6.062   2.228   5.143  0.4352  0.5692 -0.0079
13938SOL    HW242948   5.973   2.326   5.069 -0.4439  0.0011  0.2831
13939SOL     OW42949   4.410   6.825   4.813  0.1393  0.9136 -0.3464
13939SOL    HW142950   4.398   6.874   4.731  1.1614 -0.2297 -1.2174
13939SOL    HW242951   4.458   6.886   4.869  1.6988  0.8544 -1.5394
13940SOL     OW42952   5.480   7.323   8.204 -0.5946 -0.1891  0.1797
13940SOL    HW142953   5.450   7.313   8.295  0.7796 -1.7008  0.5198
13940SOL    HW242954   5.575   7.325   8.211 -0.2456 -3.8338 -1.4119
13941SOL     OW42955   3.001   3.013   1.508 -1.1303 -1.0072  0.3874
13941SOL    HW142956   3.054   3.006   1.429  1.2145 -0.0405  1.7862
13941SOL    HW242957   2.971   2.923   1.524 -0.5252 -1.4570 -0.8325
13942SOL     OW42958   5.400   3.095   4.774 -0.1922 -0.2189 -0.1063
13942SOL    HW142959   5.354   3.112   4.856 -0.3568  1.1138 -0.4515
13942SOL    HW242960   5.423   3.002   4.778 -0.1712 -0.1707  1.4597
13943SOL     OW42961   3.763   0.358   8.941  0.5660  0.3079  0.1767
13943SOL    HW142962   3.736   0.388   8.855  2.2712  0.8982 -0.1869
13943SOL    HW242963   3.787   0.438   8.988  0.2842 -0.0660  0.9790
13944SOL     OW42964   7.543   8.742   1.485  0.0878 -0.2628 -0.2642
13944SOL    HW142965   7.537   8.647   1.474 -0.3485 -0.0764 -2.0768
13944SOL    HW242966   7.461   8.776   1.448 -0.3743  0.7670  1.6029
13945SOL     OW42967   3.733   6.239   0.670  0.4253 -0.2198 -0.1687
13945SOL    HW142968   3.680   6.317   0.686 -0.1297 -0.7288  0.5200
13945SOL    HW242969   3.787   6.262   0.595  0.3175  0.8545  0.0663
13946SOL     OW42970   7.950   6.448   1.365 -0.4439 -0.4167 -0.6489
13946SOL    HW142971   8.007   6.521   1.392  2.1225 -2.0804 -1.2052
13946SOL    HW242972   7.949   6.389   1.440 -1.6305 -0.3746 -0.6054
13947SOL     OW42973   6.135   0.225   0.885  0.4030 -0.7108 -0.4355
13947SOL    HW142974   6.083   0.222   0.804  1.2085 -1.8664 -0.9366
13947SOL    HW242975   6.221   0.190   0.860  0.5962 -1.3304  0.9760
13948SOL     OW42976   0.161   2.842   5.220 -0.4236 -0.1878  0.1943
13948SOL    HW142977   0.069   2.837   5.243 -0.3686 -0.9492  0.2913
13948SOL    HW242978   0.178   2.762   5.170  0.2403 -0.1942  0.4129
13949SOL     OW42979   4.096   0.977   7.482 -0.4357 -0.2800  0.2652
13949SOL    HW142980   4.055   1.063   7.480 -0.1766 -0.1637 -1.5049
13949SOL    HW242981   4.119   0.959   7.391 -1.2178 -2.5835  0.4528
13950SOL     OW42982   6.166   5.397   8.083 -0.1197 -0.3942  0.5920
13950SOL    HW142983   6.244   5.405   8.137  0.2197  0.6323 -0.0262
13950SOL    HW242984   6.099   5.447   8.129 -0.8012 -2.2387  1.7395
13951SOL     OW42985   7.417   7.970   8.221  0.9811 -0.1330  0.0336
13951SOL    HW142986   7.374   7.885   8.214  1.6191 -0.3420 -1.8049
13951SOL    HW242987   7.362   8.029   8.168 -0.1441  0.9591  2.2325
13952SOL     OW42988   6.421   2.601   5.075 -0.0419 -0.1057  0.1029
13952SOL    HW142989   6.485   2.530   5.081  1.2911  1.1281  1.0422
13952SOL    HW242990   6.425   2.645   5.160 -2.1982 -0.0108  0.2174
13953SOL     OW42991   7.778   6.722   3.662 -0.5149  0.4467 -0.5041
13953SOL    HW142992   7.684   6.712   3.680 -0.2572 -0.0243  0.6759
13953SOL    HW242993   7.796   6.657   3.594 -0.6313 -1.0951  0.8638
13954SOL     OW42994   8.171   2.738   0.481 -0.0221  0.3975 -0.2122
13954SOL    HW142995   8.144   2.684   0.407  0.2261  0.3265 -0.2527
13954SOL    HW242996   8.263   2.757   0.464 -0.0500  0.6471 -0.0830
13955SOL     OW42997   0.923   6.894   5.898  0.4874  0.4317 -0.1901
13955SOL    HW142998   0.851   6.905   5.960 -0.1824 -0.0332 -0.8635
13955SOL    HW242999   0.975   6.974   5.907  0.8911  0.0078  1.5610
13956SOL     OW43000   4.226   8.249   0.870 -0.1910 -0.4644  0.1094
13956SOL    HW143001   4.313   8.209   0.858  0.1756 -0.0116  1.1547
13956SOL    HW243002   4.240   8.342   0.855 -0.5140 -0.4001  0.1964
13957SOL     OW43003   7.697   6.189   6.413  0.4619 -0.1526 -0.0438
13957SOL    HW143004   7.767   6.184   6.347  0.0936 -1.7838 -0.3597
13957SOL    HW243005   7.665   6.099   6.420 -2.1302  0.6574 -0.4823
13958SOL     OW43006   0.306   0.081   0.730  0.4262  0.0746  0.1927
13958SOL    HW143007   0.330   0.142   0.800 -0.4176  0.2284  0.3618
13958SOL    HW243008   0.365   0.006   0.743  0.7359  0.3900  0.6505
13959SOL     OW43009   9.022   7.390   6.521  0.7922 -0.1138 -0.0220
13959SOL    HW143010   9.083   7.351   6.583 -0.0653  0.8390  1.4609
13959SOL    HW243011   8.963   7.442   6.574 -1.4022 -1.0687 -1.3912
13960SOL     OW43012   8.758   2.300   8.688  0.2463 -0.0639  0.1460
13960SOL    HW143013   8.690   2.237   8.710  1.6782 -0.8726  2.7949
13960SOL    HW243014   8.744   2.372   8.750  2.2530 -0.6815  1.4320
13961SOL     OW43015   8.356   2.998   4.742 -0.4477 -0.0314  0.3988
13961SOL    HW143016   8.346   2.924   4.802  0.6488  0.2965  1.0047
13961SOL    HW243017   8.450   3.019   4.744 -0.0716 -0.9331 -2.5264
13962SOL     OW43018   8.134   2.922   1.838  0.0255 -0.3516 -0.3340
13962SOL    HW143019   8.184   2.889   1.913  0.6734 -2.1734 -1.4894
13962SOL    HW243020   8.201   2.956   1.778 -0.3294 -0.5064 -0.8242
13963SOL     OW43021   8.993   5.973   3.115  0.0599  0.6614  0.5548
13963SOL    HW143022   9.039   5.917   3.177 -3.3817 -1.5302  1.3774
13963SOL    HW243023   8.987   5.920   3.035 -2.6160 -0.0395  1.1143
13964SOL     OW43024   0.301   0.050   6.799 -0.2356 -0.3635 -0.3288
13964SOL    HW143025   0.303  -0.031   6.850 -0.9665  0.2185  0.6445
13964SOL    HW243026   0.239   0.106   6.845  0.0167  0.6392 -1.1775
13965SOL     OW43027   4.462   4.065   4.084 -0.3686  0.1555  0.2173
13965SOL    HW143028   4.537   4.089   4.029  0.8677  0.0344  1.7814
13965SOL    HW243029   4.439   3.976   4.057  2.3758 -1.2400  2.0486
13966SOL     OW43030   2.270   1.744   6.485 -0.0135 -0.3083 -0.5774
13966SOL    HW143031   2.211   1.814   6.514  0.8553  0.4534 -0.6007
13966SOL    HW243032   2.278   1.687   6.561 -2.6779 -1.8321 -1.2711
13967SOL     OW43033   5.972   3.557   7.759 -0.2178  0.2801  0.3615
13967SOL    HW143034   5.946   3.554   7.851  2.0082 -2.5709  1.0686
13967SOL    HW243035   6.035   3.628   7.754 -0.2820  0.3956  1.0850
13968SOL     OW43036   3.365   2.223   6.898  0.2662  0.5860 -0.1165
13968SOL    HW143037   3.407   2.298   6.942 -2.8626  0.5679  3.4714
13968SOL    HW243038   3.297   2.195   6.959 -1.2912 -2.8045 -3.0412
13969SOL     OW43039   1.723   2.654   6.041  0.0298 -0.0793 -0.0013
13969SOL    HW143040   1.656   2.664   5.974  0.1797 -1.2744 -0.3605
13969SOL    HW243041   1.798   2.617   5.994  0.9173  1.1378  0.4109
13970SOL     OW43042   3.358   0.467   0.203 -0.3269 -0.0738  0.0494
13970SOL    HW143043   3.444   0.510   0.201 -1.1452  1.6458 -0.0524
13970SOL    HW243044   3.333   0.469   0.295 -0.1552 -0.8186  0.1173
13971SOL     OW43045   7.806   1.397   6.467 -0.0411  0.0617  0.5475
13971SOL    HW143046   7.824   1.434   6.554 -0.2258  0.3389  0.4682
13971SOL    HW243047   7.893   1.377   6.432  0.1314  1.3086  0.2092
13972SOL     OW43048   3.120   2.068   1.227  0.2308  0.0158 -0.1652
13972SOL    HW143049   3.182   1.995   1.231 -1.1103 -1.1064  1.2058
13972SOL    HW243050   3.149   2.119   1.151  2.0845 -1.1171 -0.2935
13973SOL     OW43051   4.568   3.993   7.041  0.6589 -0.5327 -0.8289
13973SOL    HW143052   4.572   3.925   6.974  2.8730  0.0430 -1.3320
13973SOL    HW243053   4.478   4.027   7.034  0.1868 -1.9057 -2.0289
13974SOL     OW43054   6.525   1.661   7.075  0.1708 -0.2885  0.0931
13974SOL    HW143055   6.606   1.613   7.091 -0.1594 -1.1758 -0.7317
13974SOL    HW243056   6.522   1.728   7.143  1.6302 -0.1783  0.0748
13975SOL     OW43057   3.788   2.070   0.543 -0.3567 -0.5383 -0.4237
13975SOL    HW143058   3.786   2.051   0.637 -1.9834 -0.5177 -0.4238
13975SOL    HW243059   3.832   1.995   0.504  2.3446  0.4319  0.5193
13976SOL     OW43060   8.088   2.294   3.571 -0.0286  0.2276  0.7579
13976SOL    HW143061   8.039   2.324   3.495  0.2654 -0.9707  0.0835
13976SOL    HW243062   8.180   2.305   3.547  0.1412 -2.5224 -0.1104
13977SOL     OW43063   4.785   2.919   1.851 -0.1298  0.2460  0.6646
13977SOL    HW143064   4.692   2.910   1.869 -0.8009  2.0211 -1.4845
13977SOL    HW243065   4.805   3.010   1.874  0.5066  0.5581 -1.0044
13978SOL     OW43066   5.115   4.197   1.821 -0.0137 -0.1495 -0.0716
13978SOL    HW143067   5.104   4.116   1.770  2.1385 -0.0093 -0.8918
13978SOL    HW243068   5.036   4.203   1.875 -0.3484 -2.6654 -0.1644
13979SOL     OW43069   4.722   5.167   8.811  0.1191 -0.6751  0.5809
13979SOL    HW143070   4.789   5.101   8.796 -0.5526 -1.4561  0.9159
13979SOL    HW243071   4.642   5.128   8.776 -0.1102  0.3909 -0.1642
13980SOL     OW43072   2.118   4.827   7.973 -0.0198 -0.0484  0.6456
13980SOL    HW143073   2.053   4.870   7.917 -0.4393 -0.9752  0.4055
13980SOL    HW243074   2.078   4.824   8.059  0.1845  0.4045  0.7620
13981SOL     OW43075   3.017   1.253   8.449  1.0778 -0.0945 -0.0959
13981SOL    HW143076   2.958   1.180   8.467 -0.0133  0.9490  0.7180
13981SOL    HW243077   3.084   1.247   8.518 -0.7924  1.4747  2.0177
13982SOL     OW43078   8.728   4.341   5.600 -0.1021  0.2643  0.1294
13982SOL    HW143079   8.649   4.302   5.564 -0.4414  0.1986  0.9220
13982SOL    HW243080   8.746   4.291   5.680 -0.3656  1.4976  0.9890
13983SOL     OW43081   8.642   2.588   1.265  0.2954 -0.4399 -0.1706
13983SOL    HW143082   8.611   2.657   1.324  1.5847  0.6682 -0.7387
13983SOL    HW243083   8.718   2.550   1.310 -0.4278 -1.5412  0.1548
13984SOL     OW43084   0.284   1.019   7.991  0.6002  0.7048 -0.2260
13984SOL    HW143085   0.332   0.993   8.069 -0.5534  1.3451  0.7416
13984SOL    HW243086   0.295   0.946   7.930 -0.3185 -0.8634  1.3934
13985SOL     OW43087   5.058   0.031   8.993  0.0236 -0.2192 -0.2382
13985SOL    HW143088   5.090  -0.049   9.034 -2.6106 -0.3850  1.7872
13985SOL    HW243089   5.136   0.085   8.981  1.7106 -2.5826 -0.5682
13986SOL     OW43090   0.589   5.893   6.867  0.3056 -0.1496 -0.1551
13986SOL    HW143091   0.665   5.930   6.822  2.0798 -2.1434  0.9935
13986SOL    HW243092   0.587   5.801   6.839 -0.9913 -0.4182  0.7281
13987SOL     OW43093   0.301   4.606   8.131  0.5044 -0.1896  0.1123
13987SOL    HW143094   0.218   4.653   8.133  0.3904 -0.3847  1.8484
13987SOL    HW243095   0.348   4.642   8.055 -1.0164  0.1421 -0.7057
13988SOL     OW43096   4.883   0.137   4.283 -0.2008 -0.3125 -0.4627
13988SOL    HW143097   4.884   0.126   4.188 -0.6832 -0.2573 -0.4749
13988SOL    HW243098   4.961   0.091   4.313 -1.0039 -1.8847 -0.7128
13989SOL     OW43099   3.171   5.611   1.402 -0.2585 -0.3894 -0.5427
13989SOL    HW143100   3.130   5.557   1.334 -3.0222  1.0563 -0.1460
13989SOL    HW243101   3.131   5.582   1.483 -0.0312  0.6772 -0.0342
13990SOL     OW43102   7.397   4.867   2.101 -0.5229 -0.2128 -0.0201
13990SOL    HW143103   7.327   4.898   2.044 -0.9733 -2.5840 -0.8908
13990SOL    HW243104   7.476   4.876   2.048 -0.7296 -1.0220 -0.4848
13991SOL     OW43105   2.200   5.676   6.099 -0.0668 -0.2648 -0.0309
13991SOL    HW143106   2.194   5.654   6.192  0.5589 -0.8205 -0.1118
13991SOL    HW243107   2.293   5.691   6.083 -0.3597  1.7492 -0.1658
13992SOL     OW43108   3.717   7.148   1.783 -0.0549  0.2452 -0.5809
13992SOL    HW143109   3.722   7.060   1.746  0.5539 -0.0581  0.1878
13992SOL    HW243110   3.798   7.157   1.833 -1.1499  0.3331  1.3012
13993SOL     OW43111   4.627   8.413   2.943 -0.2957  0.2178 -0.1267
13993SOL    HW143112   4.592   8.408   2.854  0.0376  0.1369 -0.2548
13993SOL    HW243113   4.551   8.431   2.998 -0.3806  1.0925 -0.5231
13994SOL     OW43114   4.776   3.264   2.830  0.0332  0.2330 -0.2465
13994SOL    HW143115   4.849   3.238   2.774 -0.8547  0.1374 -1.4008
13994SOL    HW243116   4.778   3.360   2.829 -0.8424  0.2717 -1.6799
13995SOL     OW43117   1.452   1.948   2.864  1.3113  0.3332  0.4302
13995SOL    HW143118   1.521   1.883   2.850  0.1965 -0.9043  0.4699
13995SOL    HW243119   1.436   1.946   2.958  0.1009 -0.6278  0.2352
13996SOL     OW43120   7.263   3.684   8.605  0.3415  0.6874 -0.1425
13996SOL    HW143121   7.345   3.713   8.565 -0.3530  1.4994 -1.0133
13996SOL    HW243122   7.206   3.662   8.531 -0.0553 -0.4032  0.4590
13997SOL     OW43123   5.928   8.288   3.783 -0.3968  0.0114  0.1891
13997SOL    HW143124   5.848   8.307   3.733  0.7007  1.2167 -1.2078
13997SOL    HW243125   5.962   8.208   3.744 -0.1527  0.3126 -0.2204
13998SOL     OW43126   5.921   3.906   3.476 -0.0112 -0.2557  0.1744
13998SOL    HW143127   5.850   3.950   3.429  0.7364 -0.6652 -1.3851
13998SOL    HW243128   5.894   3.909   3.568 -1.5245  0.5521 -0.2670
13999SOL     OW43129   5.971   0.961   6.337  0.3687  0.2314  0.2177
13999SOL    HW143130   5.881   0.981   6.363  0.4423  0.5899  0.2056
13999SOL    HW243131   5.975   0.865   6.333 -0.9542  0.1878 -3.0061
14000SOL     OW43132   3.911   1.317   5.660 -0.4130  0.3972  0.6477
14000SOL    HW143133   3.875   1.404   5.678 -0.6803  0.4404 -0.0614
14000SOL    HW243134   3.916   1.275   5.745 -1.3396  0.7022  0.8648
14001SOL     OW43135   3.832   6.273   0.414  0.0153 -0.1986 -0.1772
14001SOL    HW143136   3.912   6.323   0.394 -0.3634 -0.3091 -2.1966
14001SOL    HW243137   3.774   6.291   0.339 -0.8012 -2.2657 -0.0904
14002SOL     OW43138   2.847   3.130   1.710  0.3889  0.1705  0.8013
14002SOL    HW143139   2.758   3.100   1.692  0.1878  0.6083  1.0480
14002SOL    HW243140   2.900   3.093   1.639  0.1258 -0.6367  1.0174
14003SOL     OW43141   7.587   8.912   5.594  0.0204 -0.4157 -0.2845
14003SOL    HW143142   7.568   8.820   5.615 -0.3755 -0.3622 -0.4001
14003SOL    HW243143   7.655   8.937   5.656 -1.7839  0.0155  1.6360
14004SOL     OW43144   8.295   2.882   3.268  0.0041 -0.6245  0.0772
14004SOL    HW143145   8.204   2.853   3.269 -0.4484  0.6190 -1.2647
14004SOL    HW243146   8.292   2.970   3.229  1.7130 -0.2994  0.5857
14005SOL     OW43147   7.527   7.144   0.417 -0.3671  0.1588  0.2032
14005SOL    HW143148   7.499   7.086   0.346  0.2462 -1.0006  0.8875
14005SOL    HW243149   7.461   7.133   0.485 -0.8106  1.0699 -0.0633
14006SOL     OW43150   0.750   6.141   6.506 -0.1816 -0.0136 -0.5626
14006SOL    HW143151   0.660   6.107   6.502 -0.2187  0.2025 -2.1055
14006SOL    HW243152   0.789   6.115   6.423  1.6820 -1.3603  0.6784
14007SOL     OW43153   5.192   5.172   1.617 -1.0444  0.0036 -0.1785
14007SOL    HW143154   5.131   5.196   1.687 -2.1770 -0.5428 -0.9549
14007SOL    HW243155   5.137   5.131   1.550  0.4151 -2.5319  0.0274
14008SOL     OW43156   4.251   7.822   4.022 -0.0430  0.1809 -0.0811
14008SOL    HW143157   4.208   7.812   3.937  1.3054  0.4975 -0.8192
14008SOL    HW243158   4.261   7.732   4.054  0.2891 -0.0104 -0.7037
14009SOL     OW43159   8.879   5.685   0.633 -0.3733 -0.2396  0.5714
14009SOL    HW143160   8.834   5.769   0.637 -2.2774 -1.1451 -0.6917
14009SOL    HW243161   8.876   5.651   0.722 -0.2869  0.6721  0.9263
14010SOL     OW43162   2.246   8.599   2.844  0.3049 -0.1768 -0.0304
14010SOL    HW143163   2.317   8.536   2.831 -1.6028 -2.5110  0.2986
14010SOL    HW243164   2.191   8.560   2.911 -0.1036  2.7076  1.4784
14011SOL     OW43165   0.173   0.883   3.325 -0.2012 -0.5682 -0.5920
14011SOL    HW143166   0.112   0.813   3.347  1.0173 -1.7747 -0.9070
14011SOL    HW243167   0.260   0.842   3.330  0.6860  1.2938  0.7499
14012SOL     OW43168   7.124   8.827   5.593  0.1542  0.2045  0.0253
14012SOL    HW143169   7.124   8.776   5.674  0.1717 -0.1527 -0.1936
14012SOL    HW243170   7.135   8.761   5.524  1.4004  0.6145 -0.1947
14013SOL     OW43171   7.138   0.904   5.324  0.3797  0.1038  0.2718
14013SOL    HW143172   7.127   0.866   5.237 -0.7338 -0.2384  0.5496
14013SOL    HW243173   7.115   0.834   5.385 -1.3671  1.0809  0.7997
14014SOL     OW43174   4.982   8.910   4.835  0.2023 -0.2285 -0.1300
14014SOL    HW143175   5.024   8.851   4.897  1.6297  0.5967 -0.2582
14014SOL    HW243176   5.013   8.997   4.860  0.3081  0.1862 -1.6163
14015SOL     OW43177   1.664   4.568   5.491 -0.2028 -0.2933  0.4147
14015SOL    HW143178   1.608   4.491   5.493  0.7033 -1.0157 -0.5787
14015SOL    HW243179   1.710   4.567   5.575 -0.7409 -0.4074  0.7103
14016SOL     OW43180   1.796   0.655   1.032 -0.1579  0.1258  0.3717
14016SOL    HW143181   1.817   0.598   1.107  0.8455 -0.3010 -0.2142
14016SOL    HW243182   1.872   0.647   0.974 -1.5953 -0.8764 -1.4873
14017SOL     OW43183   7.124   5.175   1.079 -0.1121  0.2671  0.0532
14017SOL    HW143184   7.220   5.170   1.083 -0.1466 -0.0590  0.5586
14017SOL    HW243185   7.099   5.208   1.165 -0.4104  1.1142 -0.3462
14018SOL     OW43186   5.868   5.248   8.382 -0.1575 -0.2703 -0.2260
14018SOL    HW143187   5.868   5.156   8.409 -0.1516  0.4182  2.3483
14018SOL    HW243188   5.911   5.248   8.297  2.1320 -2.3674  0.8111
14019SOL     OW43189   0.561   2.288   7.318  0.2992  0.4250 -0.2062
14019SOL    HW143190   0.486   2.231   7.335 -1.0221  1.6225 -1.7510
14019SOL    HW243191   0.631   2.252   7.373 -0.9506 -1.6375  0.1398
14020SOL     OW43192   6.389   8.399   4.079 -0.1694 -0.2185  0.7044
14020SOL    HW143193   6.342   8.360   4.005  0.6780 -0.1242  0.0864
14020SOL    HW243194   6.353   8.487   4.088  0.6183  0.2550 -0.4843
14021SOL     OW43195   1.480   4.845   4.217 -0.1697  0.1727  0.0383
14021SOL    HW143196   1.519   4.800   4.142  1.2314  1.5188 -0.1087
14021SOL    HW243197   1.553   4.894   4.255 -1.1462  0.5256  1.5184
14022SOL     OW43198   4.593   3.028   4.133 -0.6732 -0.1533 -0.3008
14022SOL    HW143199   4.596   2.943   4.177  0.7874  0.7984  1.5904
14022SOL    HW243200   4.505   3.060   4.149 -0.0618  0.3804  2.5478
14023SOL     OW43201   8.261   8.989   3.087  0.3693  0.6991 -0.0730
14023SOL    HW143202   8.338   8.978   3.142  0.7748 -0.5785 -0.8613
14023SOL    HW243203   8.296   9.008   3.000 -0.2628  4.0422  0.2538
14024SOL     OW43204   5.869   6.546   0.640  0.1152  0.0186  0.4603
14024SOL    HW143205   5.932   6.476   0.622 -0.9479 -0.3882 -2.2442
14024SOL    HW243206   5.887   6.611   0.572 -2.1246  0.0395 -0.1722
14025SOL     OW43207   5.228   5.774   8.177  0.2627 -0.4388 -0.4410
14025SOL    HW143208   5.153   5.733   8.220 -0.3061  1.3063  0.3318
14025SOL    HW243209   5.297   5.708   8.179 -1.5521 -2.5331 -2.2253
14026SOL     OW43210   4.111   1.027   2.153 -0.4654  0.1329  0.2143
14026SOL    HW143211   4.091   0.983   2.236  0.2516  0.3281  0.5004
14026SOL    HW243212   4.058   1.106   2.154 -0.8597 -0.1282  0.2430
14027SOL     OW43213   3.866   1.607   3.444  0.4362 -0.2880 -0.3813
14027SOL    HW143214   3.866   1.554   3.524  0.8681 -0.2790 -0.3717
14027SOL    HW243215   3.934   1.568   3.389  1.1533  0.5824 -0.1454
14028SOL     OW43216   7.139   8.613   5.781 -0.0613 -0.6330 -0.1828
14028SOL    HW143217   7.114   8.671   5.853  1.5360  0.5256 -0.5257
14028SOL    HW243218   7.056   8.575   5.752 -0.7310 -1.4291  2.4735
14029SOL     OW43219   8.343   0.550   8.050  0.0892 -0.1278  0.5101
14029SOL    HW143220   8.399   0.592   7.984  0.9923 -0.8255  0.8056
14029SOL    HW243221   8.372   0.459   8.051 -2.6879 -1.1476 -1.0162
14030SOL     OW43222   2.496   3.884   5.534  0.6483 -0.1563 -0.6159
14030SOL    HW143223   2.580   3.926   5.554  1.3732 -2.8187  2.8512
14030SOL    HW243224   2.433   3.932   5.589  0.8196 -1.1053  0.4491
14031SOL     OW43225   0.922   3.174   6.474 -0.5354  0.1746  0.0402
14031SOL    HW143226   0.973   3.225   6.411  2.2234  0.8565  2.5995
14031SOL    HW243227   0.910   3.089   6.432 -0.2298  1.0857 -2.0214
14032SOL     OW43228   0.011   0.528   8.313 -0.1645 -0.0367  0.5873
14032SOL    HW143229   0.040   0.528   8.222 -0.4462 -0.0923  0.4983
14032SOL    HW243230   0.046   0.609   8.349  1.1835 -0.6902  0.8198
14033SOL     OW43231   7.341   5.719   2.713  0.1512  0.0821 -0.0165
14033SOL    HW143232   7.393   5.738   2.634 -0.8489  1.9053 -0.2827
14033SOL    HW243233   7.328   5.624   2.710  2.5245 -0.2929 -0.4980
14034SOL     OW43234   4.139   5.105   2.152 -0.1425  0.4729  0.4892
14034SOL    HW143235   4.174   5.192   2.135 -0.8769  0.9403  1.2745
14034SOL    HW243236   4.096   5.080   2.070  2.8815 -0.5934 -0.8990
14035SOL     OW43237   8.028   8.619   5.631  0.0261  0.3066 -0.0465
14035SOL    HW143238   8.122   8.636   5.642  0.2579  0.1825 -1.5754
14035SOL    HW243239   8.025   8.533   5.588 -0.7751  0.4753 -0.3385
14036SOL     OW43240   2.105   3.018   5.844 -0.5236 -0.3012 -0.8579
14036SOL    HW143241   2.031   2.973   5.884 -0.7905 -0.1776 -1.2030
14036SOL    HW243242   2.102   3.107   5.880 -0.6540 -0.2438 -1.0067
14037SOL     OW43243   2.140   2.553   9.075  0.3093 -0.3625 -0.2462
14037SOL    HW143244   2.132   2.487   9.006 -1.5227 -0.5829  0.1292
14037SOL    HW243245   2.226   2.538   9.112  0.7520 -1.1947 -1.5281
14038SOL     OW43246   7.654   2.996   7.329 -0.1165  0.4376 -0.4795
14038SOL    HW143247   7.706   2.969   7.253  0.4823  1.0730 -0.3029
14038SOL    HW243248   7.677   2.933   7.397  1.6637  1.6308  0.0867
14039SOL     OW43249   8.866   1.182   5.742  1.0854 -0.7011  0.2213
14039SOL    HW143250   8.790   1.212   5.793 -0.2478 -1.1252 -1.4371
14039SOL    HW243251   8.880   1.092   5.770  0.6501 -0.7879  0.1574
14040SOL     OW43252   3.858   1.768   7.460  0.0900 -0.2671  0.4910
14040SOL    HW143253   3.843   1.826   7.385  2.1298  1.1354  1.0864
14040SOL    HW243254   3.901   1.691   7.423  0.4910  0.1290  0.1246
14041SOL     OW43255   3.102   4.987   4.362 -0.1698  0.2764  0.0625
14041SOL    HW143256   3.012   5.019   4.372  0.0862  0.8202  0.7410
14041SOL    HW243257   3.153   5.038   4.425  0.4481 -0.7286  0.4082
14042SOL     OW43258   1.035   0.422   7.608  0.2164  0.2983  0.1697
14042SOL    HW143259   1.019   0.498   7.552 -0.1410  0.5888  0.6461
14042SOL    HW243260   0.965   0.426   7.673  2.2568  1.6811  2.4400
14043SOL     OW43261   6.057   0.016   8.115  0.5354 -0.1872  0.1118
14043SOL    HW143262   6.004   0.095   8.105  0.2880 -0.2494  0.8808
14043SOL    HW243263   6.147   0.046   8.111  0.4408  0.0841  0.0290
14044SOL     OW43264   6.967   5.577   8.433 -0.7595  0.0165  0.2965
14044SOL    HW143265   6.975   5.650   8.494  1.2556  0.2946 -0.2201
14044SOL    HW243266   7.057   5.558   8.406 -1.5362  0.5572 -3.3042
14045SOL     OW43267   2.594   1.363   3.408  0.0267  0.6406 -0.3262
14045SOL    HW143268   2.562   1.417   3.480  0.7706 -0.6958  1.0476
14045SOL    HW243269   2.605   1.425   3.335 -0.9242  1.9816  0.6221
14046SOL     OW43270   4.739   5.335   8.466  0.3892 -0.0041  0.0871
14046SOL    HW143271   4.770   5.245   8.457  1.5078  0.3336  0.3615
14046SOL    HW243272   4.702   5.356   8.380 -1.3350 -1.2107  0.4701
14047SOL     OW43273   8.843   1.515   2.318  0.7286  0.3773 -0.0436
14047SOL    HW143274   8.908   1.474   2.260  1.3877 -0.5789  1.3128
14047SOL    HW243275   8.891   1.533   2.399 -1.1247 -2.4855  1.8857
14048SOL     OW43276   0.517   4.021   5.711  0.1706 -0.1984  0.1987
14048SOL    HW143277   0.484   3.949   5.658  0.5375 -1.2751  1.3792
14048SOL    HW243278   0.548   4.085   5.648 -2.9232  0.3298 -0.9875
14049SOL     OW43279   3.930   6.145   6.250  0.2932  0.4474  0.2578
14049SOL    HW143280   3.948   6.202   6.175 -0.1169 -0.8147 -0.8403
14049SOL    HW243281   3.837   6.123   6.242  0.6834 -1.3018 -0.0581
14050SOL     OW43282   8.739   0.787   3.993 -0.2092 -0.1122  0.5581
14050SOL    HW143283   8.709   0.845   4.063 -0.4165  1.9120 -1.0859
14050SOL    HW243284   8.668   0.789   3.928  1.3502  0.9192 -1.2323
14051SOL     OW43285   8.520   5.054   8.881 -0.4647 -0.6370  0.2617
14051SOL    HW143286   8.562   4.969   8.897  0.9507  0.2243  1.3814
14051SOL    HW243287   8.440   5.051   8.933  0.0654 -0.9289  1.0804
14052SOL     OW43288   4.113   0.903   7.196  0.2583  0.4375  0.4274
14052SOL    HW143289   4.089   0.827   7.143 -0.0134  0.3920  0.6167
14052SOL    HW243290   4.154   0.963   7.134 -1.0372  0.8463 -0.0501
14053SOL     OW43291   0.344   0.281   0.902 -0.7269 -0.4326 -0.2341
14053SOL    HW143292   0.432   0.319   0.902 -1.7603  2.1174  0.0962
14053SOL    HW243293   0.307   0.303   0.987 -1.6882 -1.5662 -0.3192
14054SOL     OW43294   0.663   7.390   3.273  0.1418  0.4859 -0.5127
14054SOL    HW143295   0.704   7.402   3.188  0.5008 -0.0024 -0.4119
14054SOL    HW243296   0.694   7.305   3.303 -0.9762  0.0837 -0.4508
14055SOL     OW43297   2.867   0.319   0.857  0.2212 -0.2897  0.2431
14055SOL    HW143298   2.816   0.386   0.812 -0.4836 -1.3070 -0.5171
14055SOL    HW243299   2.803   0.252   0.880  0.6334  0.0032  2.4137
14056SOL     OW43300   7.762   3.302   7.324  0.0712 -0.1086 -0.2266
14056SOL    HW143301   7.706   3.226   7.342  2.1763 -1.7537 -0.2384
14056SOL    HW243302   7.781   3.296   7.231  1.0061 -0.1361 -0.0459
14057SOL     OW43303   4.286   1.383   3.852 -0.2667  0.1511 -0.1257
14057SOL    HW143304   4.277   1.395   3.758 -0.8293  0.5622 -0.0273
14057SOL    HW243305   4.374   1.415   3.872  0.4604 -1.3794 -0.7253
14058SOL     OW43306   6.171   0.878   8.262 -0.1151 -0.0060 -0.1434
14058SOL    HW143307   6.077   0.868   8.254 -0.5389  1.7641  1.8923
14058SOL    HW243308   6.198   0.810   8.324 -0.1067 -0.2563 -0.4197
14059SOL     OW43309   4.429   7.396   2.490 -0.5465 -0.1759  0.2544
14059SOL    HW143310   4.389   7.340   2.422  1.1363 -1.0602 -0.0800
14059SOL    HW243311   4.426   7.484   2.453 -1.8924 -0.2711  0.1165
14060SOL     OW43312   2.455   3.864   4.652 -0.4918  0.2860  0.4219
14060SOL    HW143313   2.413   3.862   4.738 -0.4248  2.5154  0.5704
14060SOL    HW243314   2.526   3.928   4.662  1.0424 -1.1883 -0.6460
14061SOL     OW43315   3.448   4.869   4.373  0.3178  0.0402  0.2970
14061SOL    HW143316   3.531   4.856   4.419  0.6720 -0.3663 -0.4290
14061SOL    HW243317   3.384   4.820   4.424  1.0482 -1.9841 -0.6276
14062SOL     OW43318   7.990   8.653   7.460  0.0977  0.0646 -0.4776
14062SOL    HW143319   7.917   8.622   7.405 -1.2651  2.2577 -0.0194
14062SOL    HW243320   7.986   8.748   7.454  0.4484  0.3724  2.6944
14063SOL     OW43321   8.994   9.051   5.941  0.7538  0.2679  0.2738
14063SOL    HW143322   8.927   8.986   5.918  3.3843 -2.0880 -1.2287
14063SOL    HW243323   8.993   9.112   5.868  2.0295 -1.3422 -1.1647
14064SOL     OW43324   6.913   5.849   1.525 -0.3006  0.0336 -0.2910
14064SOL    HW143325   6.899   5.795   1.447  1.7829 -1.3151  0.1721
14064SOL    HW243326   6.992   5.812   1.565 -1.0423  0.9840  2.2059
14065SOL     OW43327   1.285   8.115   2.978  0.1588  0.5754  0.3717
14065SOL    HW143328   1.368   8.150   3.009  0.7662 -1.5962  1.3531
14065SOL    HW243329   1.223   8.136   3.048  0.7013 -0.9764  1.3490
14066SOL     OW43330   3.292   8.719   7.919  0.0734 -0.2582 -0.0664
14066SOL    HW143331   3.361   8.654   7.906 -0.4127 -0.3321 -2.7707
14066SOL    HW243332   3.231   8.677   7.979  0.6872 -1.5709 -0.3270
14067SOL     OW43333   6.398   4.474   5.384 -0.0100  0.7353 -0.8543
14067SOL    HW143334   6.329   4.428   5.335  1.4752 -1.8595 -0.7230
14067SOL    HW243335   6.403   4.427   5.467  1.4504  1.3075 -0.5999
14068SOL     OW43336   7.990   6.176   6.882 -0.2876  0.5386 -0.0163
14068SOL    HW143337   7.988   6.204   6.790 -0.6701  1.1392  0.1665
14068SOL    HW243338   8.068   6.122   6.889 -0.6872 -0.1752 -0.8847
14069SOL     OW43339   0.977   9.051   5.867  0.0869 -0.8891 -0.4370
14069SOL    HW143340   0.983   9.036   5.962  0.3190 -1.5055 -0.5449
14069SOL    HW243341   1.058   9.096   5.845 -1.0362  1.5441  0.0500
14070SOL     OW43342   3.600   8.437   1.679 -0.3382  0.0196  0.0165
14070SOL    HW143343   3.661   8.415   1.609 -0.6861  0.7047 -0.5206
14070SOL    HW243344   3.602   8.362   1.738  2.0644  0.5750  0.7533
14071SOL     OW43345   3.561   0.220   3.631  0.0276  0.5965  0.2090
14071SOL    HW143346   3.568   0.130   3.602  1.4983  0.7697 -0.0193
14071SOL    HW243347   3.537   0.269   3.552 -1.8659  0.2971  0.5480
14072SOL     OW43348   3.064   1.546   6.285 -0.3215 -0.1274  0.2705
14072SOL    HW143349   2.997   1.487   6.251  1.3859 -1.8419 -0.2659
14072SOL    HW243350   3.080   1.517   6.374  0.3868 -0.3614  0.0725
14073SOL     OW43351   0.140   7.506   7.755 -0.0902 -0.0392  0.1256
14073SOL    HW143352   0.146   7.522   7.661 -1.1902 -2.1365 -0.3672
14073SOL    HW243353   0.121   7.592   7.793  0.5952  0.8866 -1.5190
14074SOL     OW43354   0.541   8.195   8.488 -0.2023 -0.2204  0.0357
14074SOL    HW143355   0.623   8.243   8.482  0.0547 -0.5916  0.5293
14074SOL    HW243356   0.532   8.153   8.402 -0.0170  0.0431 -0.1127
14075SOL     OW43357   8.840   8.692   2.143  0.9148 -0.0426  0.0525
14075SOL    HW143358   8.779   8.754   2.103 -0.0047 -0.9698 -0.0232
14075SOL    HW243359   8.863   8.632   2.072 -0.0002 -1.1394  0.6368
14076SOL     OW43360   1.637   1.252   1.594  0.2777  0.3457  0.0702
14076SOL    HW143361   1.618   1.187   1.663 -1.6070 -1.3598 -1.8900
14076SOL    HW243362   1.601   1.213   1.514 -0.3296  3.5500 -1.3805
14077SOL     OW43363   0.983   4.386   4.878 -0.1519  0.0594  0.1900
14077SOL    HW143364   1.004   4.384   4.784 -0.5635 -0.2911  0.1018
14077SOL    HW243365   1.033   4.460   4.912  0.1951  0.0399 -0.2595
14078SOL     OW43366   5.732   5.201   6.154 -0.9804  0.1643  0.2564
14078SOL    HW143367   5.825   5.223   6.145 -0.8732 -0.7486 -1.2029
14078SOL    HW243368   5.728   5.149   6.234 -0.6660  2.2517  1.7007
14079SOL     OW43369   1.562   7.291   0.414  0.3832 -0.8194 -0.2911
14079SOL    HW143370   1.513   7.286   0.332 -0.0169 -0.3149 -0.0823
14079SOL    HW243371   1.651   7.266   0.389  0.6304  0.8062 -1.1955
14080SOL     OW43372   1.895   8.462   4.355  0.1765 -0.5093 -0.0909
14080SOL    HW143373   1.961   8.438   4.420  1.0348 -1.9285 -1.4276
14080SOL    HW243374   1.819   8.488   4.407  1.0633 -0.8804  1.4721
14081SOL     OW43375   4.191   3.126   4.031 -0.1570  0.0980 -0.2617
14081SOL    HW143376   4.104   3.164   4.044  0.2862  0.5070  1.8249
14081SOL    HW243377   4.238   3.191   3.978 -0.6961  0.4982 -0.2541
14082SOL     OW43378   3.944   7.476   0.488  0.6773 -0.1780 -0.4666
14082SOL    HW143379   3.948   7.381   0.495  0.3240 -0.1373  0.4219
14082SOL    HW243380   4.019   7.499   0.432  1.8628 -0.8410  0.7789
14083SOL     OW43381   7.509   2.216   6.940  0.5476 -0.4054 -0.1592
14083SOL    HW143382   7.434   2.274   6.954  0.5723 -0.6235  0.9732
14083SOL    HW243383   7.469   2.133   6.914  0.3495 -0.6583  0.8989
14084SOL     OW43384   2.389   6.123   3.349  0.2467  0.5107 -0.6806
14084SOL    HW143385   2.452   6.191   3.328 -0.2895  1.2198 -0.0620
14084SOL    HW243386   2.382   6.126   3.445  0.1754 -0.3744 -0.6499
14085SOL     OW43387   6.014   5.966   5.720 -0.5224 -0.2332 -0.3793
14085SOL    HW143388   6.050   5.877   5.728  2.3223  0.8919  0.3426
14085SOL    HW243389   6.004   5.980   5.626  1.9294 -0.2982 -0.7036
14086SOL     OW43390   8.107   7.703   2.748 -0.0553 -0.3095 -0.3940
14086SOL    HW143391   8.162   7.627   2.766 -0.3534 -0.2512  0.8029
14086SOL    HW243392   8.159   7.756   2.687  0.2220 -1.3847 -1.1219
14087SOL     OW43393   0.314   7.359   5.786 -0.3791  0.0464  0.2903
14087SOL    HW143394   0.393   7.403   5.818 -1.2282  1.5719  0.3845
14087SOL    HW243395   0.267   7.333   5.865 -1.2323  1.5191  0.2954
14088SOL     OW43396   3.017   6.305   0.858 -0.3187 -0.6024 -0.2353
14088SOL    HW143397   2.949   6.316   0.792 -1.5899  2.1039  1.3299
14088SOL    HW243398   2.971   6.311   0.942  1.5162 -1.5936  0.9240
14089SOL     OW43399   8.912   5.619   6.982 -0.2148  0.0232  0.0994
14089SOL    HW143400   8.938   5.667   7.061 -0.9255  1.5008 -0.5199
14089SOL    HW243401   8.976   5.645   6.916 -0.6831  0.2269 -0.2788
14090SOL     OW43402   2.742   4.166   6.835  0.2333 -0.3181  0.0964
14090SOL    HW143403   2.816   4.214   6.873  1.0334 -0.4673 -1.2187
14090SOL    HW243404   2.732   4.204   6.748 -1.2015 -0.3669  0.2246
14091SOL     OW43405   7.187   7.893   4.061 -0.2228 -0.7660 -0.0208
14091SOL    HW143406   7.108   7.848   4.031  0.0167 -0.3246 -1.3552
14091SOL    HW243407   7.178   7.982   4.028  0.8280 -0.7058 -0.1637
14092SOL     OW43408   0.413   4.708   5.704  0.3103  0.1384 -0.0314
14092SOL    HW143409   0.350   4.721   5.775  0.4050 -0.5095  0.1780
14092SOL    HW243410   0.463   4.630   5.729 -0.4594 -0.8449 -1.3660
14093SOL     OW43411   0.847   1.957   8.322  0.1863 -0.8517 -0.0473
14093SOL    HW143412   0.907   2.020   8.281 -1.0781  0.6170  0.2593
14093SOL    HW243413   0.903   1.903   8.378  1.1066  1.3455  1.2862
14094SOL     OW43414   2.723   8.766   3.642 -0.2219  0.1343  0.0721
14094SOL    HW143415   2.659   8.754   3.572 -0.8725  0.7569  0.5428
14094SOL    HW243416   2.730   8.680   3.684  0.6315 -0.4076 -1.1151
14095SOL     OW43417   7.091   5.929   4.536  0.2172 -0.0125 -0.3412
14095SOL    HW143418   7.021   5.875   4.499  0.0304  1.4626 -2.2975
14095SOL    HW243419   7.054   6.017   4.541  1.3497  0.4499  0.2976
14096SOL     OW43420   0.032   1.730   1.216 -0.0059 -0.6152  0.2464
14096SOL    HW143421  -0.023   1.795   1.173 -1.0360 -1.1128  0.7770
14096SOL    HW243422   0.118   1.741   1.175 -0.3342  0.5892 -0.1678
14097SOL     OW43423   7.735   8.119   0.008 -0.3563 -0.0762  0.1775
14097SOL    HW143424   7.728   8.044   0.067 -2.2194  0.3001  0.4917
14097SOL    HW243425   7.802   8.094  -0.055 -0.8533 -1.9549  0.3486
14098SOL     OW43426   1.392   8.287   8.678 -1.2932  0.2291 -0.0452
14098SOL    HW143427   1.420   8.319   8.764 -0.8388 -0.5478  0.1064
14098SOL    HW243428   1.307   8.246   8.694 -1.9596  1.4864 -0.2720
14099SOL     OW43429   2.174   8.110   3.913  0.7810 -0.2148  0.6997
14099SOL    HW143430   2.264   8.140   3.899  0.3714  0.5764 -0.4565
14099SOL    HW243431   2.159   8.047   3.842  0.7682 -1.1772  1.5410
14100SOL     OW43432   2.396   8.543   2.180 -0.4961 -0.6915 -0.5982
14100SOL    HW143433   2.437   8.579   2.259 -2.2394 -0.7833  0.3955
14100SOL    HW243434   2.353   8.463   2.210  1.2406 -2.3525 -2.2735
14101SOL     OW43435   4.977   2.827   0.038  0.4589 -0.1678 -0.1467
14101SOL    HW143436   4.986   2.920   0.017  0.1449 -0.4493 -1.6644
14101SOL    HW243437   4.931   2.825   0.121 -1.7722  1.0462 -1.2775
14102SOL     OW43438   6.465   1.415   6.782 -0.1150  0.5992  0.5390
14102SOL    HW143439   6.438   1.326   6.762 -1.0310  0.7971  0.8294
14102SOL    HW243440   6.418   1.437   6.862  1.1953  0.8574  1.2597
14103SOL     OW43441   3.394   0.960   6.647  0.2270  0.6041  0.0183
14103SOL    HW143442   3.341   1.040   6.657 -0.3942  0.0356  1.5608
14103SOL    HW243443   3.330   0.891   6.631  0.8099  0.4759 -2.0501
14104SOL     OW43444   5.712   1.645   1.606 -0.2432  0.0358 -0.0760
14104SOL    HW143445   5.727   1.685   1.521  0.3006 -0.6634 -0.3095
14104SOL    HW243446   5.622   1.613   1.602 -0.0872 -0.3415 -0.5226
14105SOL     OW43447   5.495   7.525   1.882 -0.1335 -0.5103  0.2423
14105SOL    HW143448   5.470   7.587   1.814 -1.1312 -0.0038  1.0432
14105SOL    HW243449   5.576   7.485   1.850 -0.5741 -0.2868 -1.2320
14106SOL     OW43450   7.189   7.747   1.940  0.4986 -0.3060 -0.2061
14106SOL    HW143451   7.104   7.771   1.904  0.7504 -0.1163 -0.6867
14106SOL    HW243452   7.169   7.685   2.009 -0.1743  1.2701  1.0820
14107SOL     OW43453   1.933   2.275   1.109  0.4314  0.0146 -0.1991
14107SOL    HW143454   1.867   2.210   1.134  0.6211  0.2234  0.9252
14107SOL    HW243455   1.968   2.243   1.026 -0.8734 -0.2566 -0.6758
14108SOL     OW43456   2.026   4.005   4.355  0.1644  0.3621 -0.1721
14108SOL    HW143457   1.953   3.968   4.405  0.3226 -1.5333 -1.2332
14108SOL    HW243458   2.098   4.010   4.417  0.0056 -0.7706  0.1214
14109SOL     OW43459   6.747   3.851   2.621  0.0004  0.8539 -0.4110
14109SOL    HW143460   6.796   3.893   2.549 -0.8867  2.4688 -0.1256
14109SOL    HW243461   6.802   3.865   2.698  0.1919  0.5732 -0.4968
14110SOL     OW43462   2.086   2.271   7.939  0.1330 -0.6208 -0.8070
14110SOL    HW143463   2.097   2.234   8.026  1.3166 -1.5552 -1.3123
14110SOL    HW243464   2.164   2.325   7.926 -0.3780  0.0719 -1.0196
14111SOL     OW43465   8.785   4.413   3.299  0.5346 -0.1710 -0.1395
14111SOL    HW143466   8.787   4.486   3.237  0.8826 -0.2458 -0.2207
14111SOL    HW243467   8.766   4.453   3.383 -0.2527 -0.1040 -0.3471
14112SOL     OW43468   5.835   3.759   7.098  0.3858  0.0559  0.0664
14112SOL    HW143469   5.853   3.697   7.169 -0.1063  0.8013  0.8655
14112SOL    HW243470   5.921   3.794   7.075  0.5397 -0.0900  0.4076
14113SOL     OW43471   5.053   1.340   3.582 -0.1208  0.2717 -0.6075
14113SOL    HW143472   5.006   1.416   3.617  0.7831  1.0914 -1.1078
14113SOL    HW243473   4.990   1.296   3.526 -0.6165  0.7359 -0.4260
14114SOL     OW43474   6.930   5.324   0.396  0.3508  0.3329  0.4590
14114SOL    HW143475   6.936   5.413   0.361 -3.3145  0.8383  0.7684
14114SOL    HW243476   6.896   5.272   0.323  3.2717 -1.1622 -0.0079
14115SOL     OW43477   3.427   6.308   0.361  0.5870 -0.2203  0.0167
14115SOL    HW143478   3.368   6.281   0.290  1.0128  1.0443 -0.8540
14115SOL    HW243479   3.417   6.240   0.427 -0.2682 -1.1384 -1.0065
14116SOL     OW43480   0.246   5.501   7.476  0.6389 -0.1483 -0.2258
14116SOL    HW143481   0.301   5.427   7.451 -1.8936 -1.5266 -2.1695
14116SOL    HW243482   0.288   5.577   7.435  0.8040 -1.2477 -2.2164
14117SOL     OW43483   6.330   2.594   6.092  0.0636 -0.3071 -0.2277
14117SOL    HW143484   6.328   2.666   6.029  0.6711  0.4684  0.6177
14117SOL    HW243485   6.396   2.619   6.156 -1.2282 -0.5886  1.2991
14118SOL     OW43486   8.993   1.138   4.652 -0.1602 -0.2041 -0.6726
14118SOL    HW143487   9.057   1.158   4.719  1.2524 -3.6239 -0.7988
14118SOL    HW243488   8.908   1.148   4.696  0.5879  0.6940  0.6278
14119SOL     OW43489   5.504   8.572   3.788 -0.1612  0.0417 -0.4391
14119SOL    HW143490   5.589   8.552   3.829  0.0954 -0.8041 -1.3541
14119SOL    HW243491   5.441   8.563   3.860  0.2748 -1.4556 -0.2068
14120SOL     OW43492   8.417   1.757   5.105  0.0735 -0.3980 -0.1269
14120SOL    HW143493   8.482   1.799   5.048  0.3603 -0.3103  0.2638
14120SOL    HW243494   8.391   1.678   5.057  0.1141 -0.1880 -0.5010
14121SOL     OW43495   6.008   1.658   0.931 -0.1124 -0.2615  0.0935
14121SOL    HW143496   6.076   1.717   0.899  0.7682 -0.8152  0.8969
14121SOL    HW243497   5.974   1.701   1.010  0.1215 -0.5311  0.3459
14122SOL     OW43498   2.244   5.962   1.858 -0.1638  0.2824  0.4016
14122SOL    HW143499   2.155   5.996   1.852 -0.1378  0.1007 -2.4682
14122SOL    HW243500   2.300   6.034   1.830  0.2333 -0.6777 -1.4730
14123SOL     OW43501   5.999   3.266   4.087  0.1003  0.5945 -0.0585
14123SOL    HW143502   5.925   3.207   4.075  0.1268  0.4598  0.3993
14123SOL    HW243503   5.982   3.339   4.028  0.2992 -0.0876 -0.9907
14124SOL     OW43504   7.804   4.060   6.535 -0.4634 -0.1307  0.0279
14124SOL    HW143505   7.826   4.071   6.443  0.0584  0.6611  0.2404
14124SOL    HW243506   7.803   4.148   6.571  2.6468 -0.5535  1.5286
14125SOL     OW43507   0.132   2.388   2.958 -0.6591  0.5225  0.2388
14125SOL    HW143508   0.158   2.466   2.910 -1.3396  0.8558  0.4064
14125SOL    HW243509   0.129   2.415   3.050  1.1972 -0.2553  0.5751
14126SOL     OW43510   7.962   2.865   1.022  0.4581 -0.2512 -0.3989
14126SOL    HW143511   8.024   2.922   0.976  0.4925 -0.3697 -0.5019
14126SOL    HW243512   7.888   2.921   1.042  0.9294  0.0895  0.4246
14127SOL     OW43513   2.161   4.370   1.107 -0.1904  0.2685  0.0348
14127SOL    HW143514   2.174   4.386   1.013  0.3591  0.6411  0.1708
14127SOL    HW243515   2.095   4.435   1.133 -2.2387 -1.4178 -0.5873
14128SOL     OW43516   0.430   4.730   1.117  0.0947  0.0856 -0.0148
14128SOL    HW143517   0.471   4.687   1.042 -0.0888 -1.1313  0.5654
14128SOL    HW243518   0.393   4.659   1.169 -1.7206  1.0554  0.1148
14129SOL     OW43519   4.962   6.744   1.151  0.4033  0.3891  0.0189
14129SOL    HW143520   5.021   6.729   1.077  2.1172  1.9213  1.0039
14129SOL    HW243521   5.017   6.783   1.218 -1.5341  0.8971  1.3981
14130SOL     OW43522   0.928   7.087   6.351  0.0084 -0.1311  0.1743
14130SOL    HW143523   1.002   7.026   6.345  0.4401  0.4326 -0.4418
14130SOL    HW243524   0.956   7.163   6.300 -1.6502 -0.5469 -1.4413
14131SOL     OW43525   4.803   8.008   5.745 -0.0133 -0.8670 -0.4918
14131SOL    HW143526   4.852   8.050   5.674  0.8217 -1.5213 -0.3260
14131SOL    HW243527   4.864   8.009   5.819 -1.3461  1.0466  0.6803
14132SOL     OW43528   2.290   1.430   4.891 -0.3509  0.4018  0.3977
14132SOL    HW143529   2.371   1.452   4.844 -0.6159 -1.7676 -1.2392
14132SOL    HW243530   2.244   1.514   4.901  1.0117  1.3318 -0.7501
14133SOL     OW43531   8.555   6.349   3.269  0.4120 -0.4919  0.4297
14133SOL    HW143532   8.468   6.344   3.309  1.1693 -1.2700  2.0862
14133SOL    HW243533   8.600   6.417   3.319  1.0272 -0.6612  0.1097
14134SOL     OW43534   7.478   4.852   5.625 -0.4690  0.1655 -0.5485
14134SOL    HW143535   7.416   4.915   5.589 -0.0764  0.5093 -0.6281
14134SOL    HW243536   7.489   4.877   5.716  0.1024  0.5582 -0.7152
14135SOL     OW43537   6.892   0.822   3.130 -0.1735  0.1561  0.3892
14135SOL    HW143538   6.963   0.851   3.073  0.9089 -1.8850  0.5959
14135SOL    HW243539   6.864   0.738   3.092 -2.2390  0.7235  0.5390
14136SOL     OW43540   7.966   3.453   7.997 -0.6728 -0.3463 -0.3969
14136SOL    HW143541   7.897   3.493   7.945 -0.6614  1.8381  1.1603
14136SOL    HW243542   7.920   3.403   8.064 -0.6887 -1.2410 -1.0527
14137SOL     OW43543   9.041   2.499   2.367 -0.3717  0.0574 -0.3523
14137SOL    HW143544   8.968   2.510   2.428 -1.0253 -2.6255 -0.5148
14137SOL    HW243545   9.029   2.411   2.331  0.3722  1.2007 -3.8500
14138SOL     OW43546   6.224   1.376   3.722 -0.4774  0.3715 -0.0770
14138SOL    HW143547   6.249   1.310   3.786 -0.6965  1.1481  0.8391
14138SOL    HW243548   6.152   1.424   3.764 -0.7061  0.8214 -0.9507
14139SOL     OW43549   8.973   0.668   2.366  0.7177 -0.2194 -0.1337
14139SOL    HW143550   8.934   0.626   2.289 -1.2274 -0.4810  0.9314
14139SOL    HW243551   9.067   0.656   2.355  0.3398 -3.2678 -0.7683
14140SOL     OW43552   2.362   6.095   6.187  0.5432  0.4956  0.3165
14140SOL    HW143553   2.327   6.147   6.114 -0.7127  1.3923  1.5033
14140SOL    HW243554   2.454   6.123   6.194  1.3601 -1.2102 -2.2599
14141SOL     OW43555   8.054   2.821   4.531  0.3028 -0.2699 -0.1939
14141SOL    HW143556   8.090   2.736   4.558 -1.4071 -1.5122 -1.5868
14141SOL    HW243557   7.960   2.813   4.545 -0.0486  0.8871 -1.6419
14142SOL     OW43558   5.702   5.178   7.452  0.0182 -0.2852 -0.6570
14142SOL    HW143559   5.617   5.205   7.418 -0.1602 -0.1847 -0.1460
14142SOL    HW243560   5.731   5.250   7.507  0.9186  0.1227 -1.6298
14143SOL     OW43561   4.038   7.197   0.535  0.0927  0.3412 -0.0520
14143SOL    HW143562   4.125   7.176   0.500 -0.8277 -1.6965 -1.3222
14143SOL    HW243563   4.038   7.159   0.623  1.1407  2.1894  0.8097
14144SOL     OW43564   6.312   6.495   2.723  0.1960 -0.3352  0.0736
14144SOL    HW143565   6.317   6.400   2.718 -0.7343 -0.4731  1.1897
14144SOL    HW243566   6.354   6.517   2.806  0.9890  0.2945 -0.4852
14145SOL     OW43567   7.046   0.902   5.807 -0.3541 -0.5367 -0.8529
14145SOL    HW143568   7.028   0.910   5.900 -0.2966  1.0711 -0.9530
14145SOL    HW243569   6.979   0.842   5.774 -1.5145  0.3278 -0.0957
14146SOL     OW43570   4.598   6.145   6.489  0.1114  0.1858 -0.1466
14146SOL    HW143571   4.522   6.099   6.524 -0.0812  1.0751  0.6352
14146SOL    HW243572   4.571   6.237   6.485  0.6665  0.3168 -1.1833
14147SOL     OW43573   4.740   2.305   6.220 -0.5183  0.0866  0.1020
14147SOL    HW143574   4.740   2.315   6.125  0.3171 -1.1059 -0.0501
14147SOL    HW243575   4.818   2.352   6.249  0.9289 -2.0393 -0.1525
14148SOL     OW43576   2.556   4.194   8.759 -0.0050  0.1563 -0.3668
14148SOL    HW143577   2.545   4.176   8.666  1.8137 -0.7516 -0.4517
14148SOL    HW243578   2.480   4.154   8.800 -0.3580 -0.2353 -1.3696
14149SOL     OW43579   5.755   5.212   5.074 -0.2942  0.0282  0.1747
14149SOL    HW143580   5.815   5.160   5.020  0.4368  0.4650  0.5501
14149SOL    HW243581   5.812   5.274   5.119 -0.9568  0.0261  1.0366
14150SOL     OW43582   5.773   6.729   7.806  0.2762 -0.1237  0.1870
14150SOL    HW143583   5.733   6.655   7.853 -0.4393  0.2462  0.1856
14150SOL    HW243584   5.733   6.725   7.719 -0.6188  0.9092  0.5290
14151SOL     OW43585   5.696   3.788   5.413  0.0562 -1.0016 -0.7866
14151SOL    HW143586   5.717   3.837   5.493 -0.0954 -1.4726 -0.4554
14151SOL    HW243587   5.781   3.770   5.373  0.1158 -0.5000 -0.8934
14152SOL     OW43588   4.067   5.800   1.236  0.2039  0.3255 -0.5266
14152SOL    HW143589   4.075   5.709   1.205  0.2574  0.7072 -1.6654
14152SOL    HW243590   3.998   5.796   1.302 -0.6325 -0.3356 -1.4189
14153SOL     OW43591   5.136   4.037   1.564 -0.2047 -0.0418 -0.3421
14153SOL    HW143592   5.144   4.131   1.546 -2.0345  0.0329 -1.0149
14153SOL    HW243593   5.138   3.996   1.478 -0.5140 -0.5227 -0.1224
14154SOL     OW43594   2.148   7.642   5.955  0.4435  0.1512  0.2213
14154SOL    HW143595   2.098   7.594   6.020  0.2725 -1.5412 -1.0698
14154SOL    HW243596   2.240   7.625   5.978  0.3847 -0.6558 -0.0730
14155SOL     OW43597   4.177   6.424   8.235  0.3745  0.0066 -0.0876
14155SOL    HW143598   4.115   6.479   8.282  2.2489  1.2699  1.0600
14155SOL    HW243599   4.236   6.485   8.192  1.2658 -1.1173 -0.5331
14156SOL     OW43600   4.042   5.121   3.588  0.3089 -0.3191  0.4464
14156SOL    HW143601   4.023   5.196   3.531  1.9660 -2.1033 -2.7975
14156SOL    HW243602   4.134   5.132   3.612  0.1927 -0.6361  1.0528
14157SOL     OW43603   8.352   1.752   7.058 -0.3104 -0.2962 -0.0407
14157SOL    HW143604   8.319   1.667   7.029 -1.3534 -0.4420  1.4404
14157SOL    HW243605   8.276   1.810   7.053  0.5346  0.7330 -1.6003
14158SOL     OW43606   8.625   6.237   7.163 -0.2951 -0.2833  0.0032
14158SOL    HW143607   8.659   6.149   7.179 -0.2897 -0.4278 -0.7846
14158SOL    HW243608   8.597   6.267   7.250  1.1556 -0.4377  0.5528
14159SOL     OW43609   1.726   6.685   0.724 -0.8332 -0.1940  0.1348
14159SOL    HW143610   1.696   6.663   0.812  0.8071  1.5525  1.2110
14159SOL    HW243611   1.817   6.656   0.722 -0.3513  1.2617 -0.3733
14160SOL     OW43612   1.308   4.501   4.710 -0.0934  0.6559 -0.3085
14160SOL    HW143613   1.309   4.407   4.695  0.6658  0.6782 -0.4377
14160SOL    HW243614   1.231   4.516   4.765  0.6824 -0.2619  1.1068
14161SOL     OW43615   3.897   1.575   2.866  0.4768  0.2815  0.1552
14161SOL    HW143616   3.856   1.560   2.781 -2.0025 -0.3713  1.3619
14161SOL    HW243617   3.823   1.583   2.927  2.1436 -0.8925  2.4948
14162SOL     OW43618   7.694   0.920   3.578 -0.2149 -0.1951 -0.4399
14162SOL    HW143619   7.716   0.864   3.652 -0.4571  2.4389  1.7519
14162SOL    HW243620   7.599   0.908   3.567 -0.7439  1.4978  1.6469
14163SOL     OW43621   0.937   1.269   6.830 -0.3175 -0.1889 -0.7785
14163SOL    HW143622   0.929   1.286   6.736 -0.5083 -2.6620 -1.2983
14163SOL    HW243623   0.847   1.258   6.860 -0.2493  0.4554 -0.3249
14164SOL     OW43624   4.174   1.668   8.917 -0.0017 -0.3871 -0.2229
14164SOL    HW143625   4.097   1.692   8.866 -1.3214  0.7952  2.1655
14164SOL    HW243626   4.148   1.589   8.965  0.4306 -0.2633  0.2282
14165SOL     OW43627   1.413   7.625   2.355  0.2532 -0.0080  0.0442
14165SOL    HW143628   1.400   7.610   2.261  1.7572  0.7164 -0.3089
14165SOL    HW243629   1.473   7.700   2.359 -2.3843  2.2164  1.6163
14166SOL     OW43630   2.501   4.996   5.268  0.4052  0.2804  0.1325
14166SOL    HW143631   2.584   4.952   5.288 -0.6826 -1.6868  0.5824
14166SOL    HW243632   2.434   4.941   5.309 -1.0153  3.0379  1.7719
14167SOL     OW43633   6.266   6.224   3.712 -0.4040  0.3831 -0.2481
14167SOL    HW143634   6.211   6.261   3.782 -0.6576 -0.6021  0.0824
14167SOL    HW243635   6.343   6.190   3.758 -0.2505  0.3425 -0.5370
14168SOL     OW43636   0.034   6.092   0.529  0.1468 -0.2216  0.2269
14168SOL    HW143637   0.105   6.028   0.531 -0.2285 -0.6891 -0.6473
14168SOL    HW243638  -0.042   6.042   0.500 -0.0464  0.7075 -0.9864
14169SOL     OW43639   4.465   1.453   6.670  0.1186  0.3141  0.1727
14169SOL    HW143640   4.488   1.418   6.756  0.2688  1.2948  0.5503
14169SOL    HW243641   4.548   1.469   6.627  0.1693  2.4208  0.9451
14170SOL     OW43642   5.465   6.680   4.023 -0.1747  0.2299  0.5181
14170SOL    HW143643   5.439   6.625   3.949 -0.3660  0.3737  0.4776
14170SOL    HW243644   5.383   6.696   4.071 -0.2541  1.0950  0.1160
14171SOL     OW43645   4.622   4.833   1.202  0.3606 -0.5805 -0.0991
14171SOL    HW143646   4.683   4.868   1.137  0.2195 -1.1037 -0.5173
14171SOL    HW243647   4.537   4.868   1.177  0.5963  0.8219  0.9673
14172SOL     OW43648   1.154   5.852   4.504  0.3797  0.2825 -0.0920
14172SOL    HW143649   1.074   5.860   4.451 -0.4575 -0.9169  0.9299
14172SOL    HW243650   1.138   5.909   4.579  0.8449  0.6749 -0.2891
14173SOL     OW43651   3.995   8.943   7.566  0.1925 -0.2119  0.5957
14173SOL    HW143652   3.993   8.899   7.651  0.3161  0.3531  0.8945
14173SOL    HW243653   4.087   8.942   7.540  0.4049  1.0573  1.2377
14174SOL     OW43654   8.925   0.087   3.021 -0.3290 -0.1947 -0.7288
14174SOL    HW143655   8.901   0.121   3.107 -1.8417  1.0731 -1.5972
14174SOL    HW243656   8.894  -0.004   3.021  0.0325 -0.3200  0.1911
14175SOL     OW43657   6.660   6.029   4.577 -0.7072 -0.1913  0.2325
14175SOL    HW143658   6.747   6.010   4.612  0.0536  0.7179 -1.0467
14175SOL    HW243659   6.605   6.042   4.654  0.7079  0.9876  1.1068
14176SOL     OW43660   2.309   2.705   5.652  0.1292  0.3748 -0.3564
14176SOL    HW143661   2.365   2.758   5.594  2.6861  0.9290  2.3786
14176SOL    HW243662   2.230   2.758   5.664  1.1048  1.9322 -0.5165
14177SOL     OW43663   8.116   6.173   0.088  0.3037 -0.0299  0.0820
14177SOL    HW143664   8.210   6.182   0.072  0.9701 -2.0592  2.2150
14177SOL    HW243665   8.091   6.254   0.131  1.1541  0.4052 -0.2272
14178SOL     OW43666   4.556   1.329   8.783  0.3420 -0.3337  0.4239
14178SOL    HW143667   4.621   1.380   8.832  0.5400  0.8272 -0.9823
14178SOL    HW243668   4.484   1.390   8.769 -0.1241 -0.9519  0.1123
14179SOL     OW43669   1.754   9.091   2.568 -0.3936  0.2154 -0.0243
14179SOL    HW143670   1.721   9.163   2.621 -0.0040 -2.3283  4.1440
14179SOL    HW243671   1.836   9.123   2.531 -0.1311  1.8813  1.8416
14180SOL     OW43672   7.129   1.398   2.751 -0.6755 -0.2970  0.2671
14180SOL    HW143673   7.036   1.389   2.728 -0.3838 -1.4317 -0.4993
14180SOL    HW243674   7.171   1.424   2.669 -0.0772 -1.3967  0.2182
14181SOL     OW43675   6.719   0.307   0.335  0.3553  0.2555  0.1944
14181SOL    HW143676   6.814   0.306   0.339  0.3109 -0.6416  1.3774
14181SOL    HW243677   6.695   0.218   0.307 -0.1523  0.3317  0.3796
14182SOL     OW43678   7.878   3.838   3.544  0.2878 -0.9714  0.0556
14182SOL    HW143679   7.815   3.898   3.505  0.6324  0.5393  1.6653
14182SOL    HW243680   7.928   3.803   3.470  1.1478  1.9858 -0.9260
14183SOL     OW43681   4.303   3.853   5.896  0.0625 -0.1106  0.9936
14183SOL    HW143682   4.305   3.769   5.850 -0.7596 -0.0882  0.9081
14183SOL    HW243683   4.323   3.918   5.828  3.0888 -0.3747  1.4960
14184SOL     OW43684   5.078   8.640   7.629 -0.4081  0.1977  0.0333
14184SOL    HW143685   5.036   8.707   7.574  2.1675 -0.1485 -2.6264
14184SOL    HW243686   5.156   8.683   7.663 -0.7592 -0.3375  1.5799
14185SOL     OW43687   5.404   6.309   0.765  0.1345  0.2370  0.0027
14185SOL    HW143688   5.377   6.316   0.856 -0.3134  0.5628 -0.1524
14185SOL    HW243689   5.474   6.373   0.755  0.0163  0.3743  0.0570
14186SOL     OW43690   1.349   5.163   2.193  0.4369  0.0864  0.0737
14186SOL    HW143691   1.348   5.079   2.146 -0.4214  0.1105  0.0308
14186SOL    HW243692   1.302   5.144   2.275  1.1468  0.2687  0.5307
14187SOL     OW43693   5.550   4.773   8.740  0.0076  0.3347  0.1262
14187SOL    HW143694   5.616   4.705   8.755  0.1248  0.6011  0.9022
14187SOL    HW243695   5.468   4.736   8.772  0.0425  0.4960  0.4088
14188SOL     OW43696   5.579   7.369   8.993  0.3464  0.5208  0.0671
14188SOL    HW143697   5.674   7.365   8.980  0.4228 -1.8936  0.9263
14188SOL    HW243698   5.565   7.332   9.080 -1.4166  0.5328 -0.1735
14189SOL     OW43699   9.042   7.525   9.003  0.0911  0.2491  0.6632
14189SOL    HW143700   9.098   7.530   9.081 -1.2673 -0.5183  1.7440
14189SOL    HW243701   9.102   7.506   8.931  1.4518  1.4947  1.4089
14190SOL     OW43702   6.535   7.111   7.670 -0.0217  0.3949 -0.0659
14190SOL    HW143703   6.538   7.158   7.753 -0.2916  2.6156 -1.2325
14190SOL    HW243704   6.450   7.134   7.632 -1.1980 -2.9340  0.2728
14191SOL     OW43705   3.163   3.059   4.528  0.3081 -0.7473 -0.8092
14191SOL    HW143706   3.234   3.039   4.589  0.2589  0.7256 -0.2195
14191SOL    HW243707   3.201   3.045   4.441  1.1131 -0.6632 -0.4768
14192SOL     OW43708   4.849   3.726   2.668 -0.1548  0.1625  0.9052
14192SOL    HW143709   4.828   3.813   2.634  0.4071  0.3347  0.9828
14192SOL    HW243710   4.934   3.738   2.712 -0.2589 -0.3396  1.2445
14193SOL     OW43711   4.133   0.058   6.078  0.1531  0.4961 -0.4212
14193SOL    HW143712   4.169   0.015   6.156  0.7513  1.1550 -0.3273
14193SOL    HW243713   4.117  -0.013   6.017 -1.7302 -0.2323  0.8222
14194SOL     OW43714   6.168   8.786   7.580 -0.1086  0.0863  0.5049
14194SOL    HW143715   6.237   8.721   7.590  0.4560  0.6236  0.1886
14194SOL    HW243716   6.160   8.826   7.666  0.8259  0.8505  0.2502
14195SOL     OW43717   7.394   0.674   3.760  0.3691 -0.2603 -0.1010
14195SOL    HW143718   7.416   0.765   3.738  0.7920 -0.1950  0.5674
14195SOL    HW243719   7.381   0.675   3.855 -0.3511 -0.7497 -0.1885
14196SOL     OW43720   3.796   7.075   4.217 -0.0546 -0.3676  0.0790
14196SOL    HW143721   3.706   7.064   4.247  0.3310 -2.2690  0.6336
14196SOL    HW243722   3.834   7.139   4.278 -0.7469 -0.2942  0.4420
14197SOL     OW43723   4.134   7.110   1.250 -0.3057  0.0333  0.2452
14197SOL    HW143724   4.094   7.134   1.334 -2.2923  0.2207 -0.6888
14197SOL    HW243725   4.228   7.109   1.268 -0.6891 -0.5988  2.6368
14198SOL     OW43726   6.061   6.184   7.791 -0.2283  0.2868  0.1533
14198SOL    HW143727   6.014   6.107   7.761  0.6150  0.0565 -0.6113
14198SOL    HW243728   6.079   6.235   7.712  0.4845  0.5427  0.4680
14199SOL     OW43729   4.126   3.515   3.975 -0.2033 -0.0461 -0.0382
14199SOL    HW143730   4.179   3.489   4.050  1.3828 -0.7515 -1.3356
14199SOL    HW243731   4.090   3.433   3.941  0.2626  0.0839 -0.8687
14200SOL     OW43732   6.474   2.958   1.401 -0.3465 -0.3522 -0.2486
14200SOL    HW143733   6.427   2.880   1.372  0.1878 -0.5097 -0.7039
14200SOL    HW243734   6.450   3.026   1.337 -1.6621  0.1720  0.7463
14201SOL     OW43735   4.339   3.296   0.196  0.5630 -0.6573 -0.8161
14201SOL    HW143736   4.261   3.251   0.163  1.4198 -0.8483 -2.6702
14201SOL    HW243737   4.359   3.361   0.130  0.9669  0.6258  0.5129
14202SOL     OW43738   6.635   2.099   6.439  0.0729 -1.0274 -0.0154
14202SOL    HW143739   6.562   2.086   6.499  0.9557 -1.6125  0.9790
14202SOL    HW243740   6.599   2.149   6.366 -0.7898  0.7093  1.5270
14203SOL     OW43741   8.068   2.877   0.149 -0.4481  0.0053  0.0417
14203SOL    HW143742   8.162   2.870   0.131 -0.4690  0.3846 -0.2199
14203SOL    HW243743   8.056   2.967   0.180 -0.4115 -0.6101  1.9649
14204SOL     OW43744   3.828   7.963   1.168 -0.1633 -0.1961 -0.2369
14204SOL    HW143745   3.914   8.003   1.184 -0.9574  1.6967 -0.4219
14204SOL    HW243746   3.828   7.943   1.074 -0.1801  0.4639 -0.3820
14205SOL     OW43747   6.572   9.036   7.369 -0.0908  0.0549 -0.2435
14205SOL    HW143748   6.664   9.026   7.394 -0.6884 -2.0992  1.3639
14205SOL    HW243749   6.534   8.949   7.381 -2.3521  0.8794 -0.8899
14206SOL     OW43750   5.683   2.306   1.408  0.4942 -0.2412  0.7800
14206SOL    HW143751   5.724   2.347   1.332  0.2948 -2.3769 -0.5503
14206SOL    HW243752   5.748   2.316   1.478  0.4280  2.2974  0.5950
14207SOL     OW43753   0.976   7.256   4.533 -0.8222  0.3484 -0.2365
14207SOL    HW143754   1.070   7.238   4.533 -0.8892 -0.0830 -1.3733
14207SOL    HW243755   0.947   7.232   4.445 -2.3884 -1.5663  0.7347
14208SOL     OW43756   1.107   1.782   5.813 -0.6633 -0.0225  0.0942
14208SOL    HW143757   1.153   1.795   5.729 -0.8485  0.5106  0.0688
14208SOL    HW243758   1.023   1.745   5.788 -0.7106  0.1169  0.0447
14209SOL     OW43759   5.265   0.781   6.653 -0.3105  0.3100  0.3576
14209SOL    HW143760   5.320   0.835   6.596 -1.2776  3.2382  1.9878
14209SOL    HW243761   5.193   0.752   6.596  0.0404  1.0692 -0.4964
14210SOL     OW43762   5.400   2.687   1.392  0.2766  0.2279 -0.0589
14210SOL    HW143763   5.387   2.779   1.416  1.9703  0.5444 -0.2385
14210SOL    HW243764   5.494   2.673   1.403  0.2376 -1.1349 -1.2814
14211SOL     OW43765   7.105   0.387   0.727  0.4034 -0.1599  0.0302
14211SOL    HW143766   7.187   0.347   0.755  1.2289  1.5386  0.1444
14211SOL    HW243767   7.052   0.391   0.807  0.5371 -0.4499  0.1366
14212SOL     OW43768   6.351   4.588   3.009 -0.3217  0.1640 -0.2939
14212SOL    HW143769   6.426   4.633   3.047  0.5130 -2.4064  1.4315
14212SOL    HW243770   6.298   4.657   2.970  1.4494  2.4174  1.0364
14213SOL     OW43771   7.944   4.818   7.859  0.4901  0.0861  0.0615
14213SOL    HW143772   7.875   4.865   7.905 -0.2945 -1.8310  0.9526
14213SOL    HW243773   7.937   4.728   7.890  1.8981 -0.6624 -1.5972
14214SOL     OW43774   8.200   6.116   8.006 -0.0138  0.0412  0.0766
14214SOL    HW143775   8.284   6.162   8.008 -0.5126  0.9961 -0.3592
14214SOL    HW243776   8.195   6.071   8.090  0.0057  1.6621  0.9660
14215SOL     OW43777   3.513   8.893   7.084 -0.5224 -0.1042 -0.3766
14215SOL    HW143778   3.553   8.965   7.131  0.6545 -0.5003 -0.7321
14215SOL    HW243779   3.534   8.815   7.136 -1.9641 -0.1833  0.1218
14216SOL     OW43780   0.802   1.500   2.856 -0.3592 -0.5597 -0.1551
14216SOL    HW143781   0.779   1.478   2.947 -2.4178  1.5427 -0.0728
14216SOL    HW243782   0.896   1.517   2.859 -0.1293 -1.8575  1.2677
14217SOL     OW43783   7.143   3.432   8.819  0.0293 -0.2685  0.3927
14217SOL    HW143784   7.069   3.482   8.854 -0.9977 -1.6972  0.3792
14217SOL    HW243785   7.207   3.498   8.793 -1.5993  1.0701 -0.4103
14218SOL     OW43786   3.142   2.643   8.647  0.1953  0.5031 -0.2441
14218SOL    HW143787   3.177   2.695   8.575  0.8227  0.6105  0.1348
14218SOL    HW243788   3.213   2.640   8.711  0.5382 -1.5926 -0.6527
14219SOL     OW43789   0.726   0.886   9.109 -0.0313 -0.5472 -0.0116
14219SOL    HW143790   0.774   0.824   9.054  0.9027 -0.8139  1.0721
14219SOL    HW243791   0.793   0.925   9.165 -0.7819  0.6029  0.1178
14220SOL     OW43792   6.023   3.945   3.148  0.3639  0.1485  0.3711
14220SOL    HW143793   6.116   3.926   3.136  0.7830  1.5866  1.2058
14220SOL    HW243794   5.993   3.877   3.209  0.3821 -1.4547 -1.2932
14221SOL     OW43795   3.950   3.762   0.206 -0.0507 -0.4453 -0.1654
14221SOL    HW143796   3.864   3.802   0.207  0.0201 -0.2795  1.0653
14221SOL    HW243797   4.003   3.819   0.149 -0.6362 -0.3294 -0.6009
14222SOL     OW43798   0.992   7.186   6.002  0.4606  0.3776 -0.0263
14222SOL    HW143799   1.025   7.247   5.936  0.7761 -0.2869 -0.4924
14222SOL    HW243800   0.976   7.241   6.079 -1.3144  1.4423 -1.0872
14223SOL     OW43801   6.056   8.212   3.378  0.0840  0.1561  0.2876
14223SOL    HW143802   5.981   8.153   3.376 -0.4221  0.7430  1.0854
14223SOL    HW243803   6.093   8.200   3.465  0.9113 -0.1056 -0.0914
14224SOL     OW43804   7.086   2.902   2.714 -0.1344 -0.1247 -0.8787
14224SOL    HW143805   7.150   2.969   2.687 -1.0610  0.9272 -0.5465
14224SOL    HW243806   7.140   2.827   2.740  1.1137  1.3871  1.2372
14225SOL     OW43807   8.813   4.609   0.272 -0.5580  0.5418  0.1762
14225SOL    HW143808   8.824   4.698   0.307  0.1185  0.0263  1.3203
14225SOL    HW243809   8.897   4.566   0.289 -0.4623  0.0357 -1.4593
14226SOL     OW43810   4.973   8.551   6.190  0.3568 -0.2854 -0.1698
14226SOL    HW143811   4.974   8.646   6.177  1.0305  0.1504  2.5426
14226SOL    HW243812   5.004   8.516   6.107  2.9940  2.0401 -0.3198
14227SOL     OW43813   0.529   5.192   5.574 -0.1682  0.6815  0.3196
14227SOL    HW143814   0.507   5.205   5.666  0.3458 -0.1176  0.5541
14227SOL    HW243815   0.463   5.244   5.527 -1.4306 -0.1708  1.0784
14228SOL     OW43816   2.063   7.104   9.067 -0.2431  0.7510 -0.0523
14228SOL    HW143817   2.123   7.156   9.121 -0.0263 -1.2864  1.8046
14228SOL    HW243818   2.120   7.061   9.003  0.3883 -1.0517  1.6037
14229SOL     OW43819   2.095   6.970   5.980 -0.0748  0.4670  0.1045
14229SOL    HW143820   2.115   7.031   5.909  1.0047 -0.2068 -0.1933
14229SOL    HW243821   2.023   6.917   5.945 -1.6767  2.1273  0.7257
14230SOL     OW43822   6.721   0.505   1.941 -0.0342 -0.0012 -0.2772
14230SOL    HW143823   6.731   0.434   2.004  0.2255 -1.8175 -2.2415
14230SOL    HW243824   6.803   0.554   1.947  0.1844 -0.4466  0.4400
14231SOL     OW43825   4.615   8.323   3.957  0.5495  0.2589  0.2220
14231SOL    HW143826   4.547   8.265   3.921  1.2686 -0.6644  0.3281
14231SOL    HW243827   4.566   8.396   3.995 -0.4136 -0.6395  0.7443
14232SOL     OW43828   6.689   8.689   1.691 -0.0043 -0.1705  0.4597
14232SOL    HW143829   6.721   8.766   1.643  1.5793 -1.4271 -0.5689
14232SOL    HW243830   6.595   8.704   1.700  0.2880  1.9722  0.4661
14233SOL     OW43831   6.085   0.557   3.563  0.0185  0.5221  0.2779
14233SOL    HW143832   6.087   0.530   3.471  1.7088  1.4702  0.0065
14233SOL    HW243833   5.998   0.529   3.593 -0.4211 -0.1846 -1.4729
14234SOL     OW43834   3.376   4.557   4.983  0.1530 -0.4737  0.2928
14234SOL    HW143835   3.385   4.592   4.895  0.3236 -1.2186  0.0019
14234SOL    HW243836   3.378   4.633   5.040  2.6667 -0.1397 -0.1527
14235SOL     OW43837   4.168   8.301   5.311  0.0628 -0.3246  0.2868
14235SOL    HW143838   4.205   8.382   5.277  1.2710 -1.5875 -1.6526
14235SOL    HW243839   4.114   8.328   5.386  0.5014  2.2091 -0.2193
14236SOL     OW43840   7.794   3.206   7.054 -0.1231 -0.4076 -0.2624
14236SOL    HW143841   7.730   3.137   7.036 -0.4191 -0.5867  1.3650
14236SOL    HW243842   7.867   3.187   6.994 -0.8884 -1.1515 -0.9855
14237SOL     OW43843   6.689   5.432   0.144 -0.0940  0.7008 -0.1730
14237SOL    HW143844   6.728   5.346   0.162 -1.2568  0.3539  0.7971
14237SOL    HW243845   6.723   5.489   0.213 -1.0118  0.4787  0.4743
14238SOL     OW43846   7.107   2.447   0.946  0.2616  0.2512 -0.1938
14238SOL    HW143847   7.146   2.527   0.981  2.4863 -1.0867  0.5485
14238SOL    HW243848   7.142   2.439   0.858 -0.8615  0.6484 -0.6982
14239SOL     OW43849   2.534   8.601   0.343  0.4288  0.3591  0.0358
14239SOL    HW143850   2.620   8.563   0.361  0.1855  0.1095  0.6910
14239SOL    HW243851   2.552   8.694   0.326  0.8440  0.2703 -0.0160
14240SOL     OW43852   3.535   1.379   4.622 -0.3389 -0.4450  0.8107
14240SOL    HW143853   3.472   1.451   4.622 -0.0404 -0.1813  0.1261
14240SOL    HW243854   3.620   1.421   4.617 -0.1535 -0.8392  0.6407
14241SOL     OW43855   9.102   4.154   0.839  0.0381  0.2430  0.4850
14241SOL    HW143856   9.100   4.243   0.806 -0.3553  0.3471  0.7762
14241SOL    HW243857   9.052   4.158   0.921 -1.4397 -0.5802 -0.3354
14242SOL     OW43858   8.665   0.440   3.589 -0.3193  0.0148  0.0443
14242SOL    HW143859   8.663   0.425   3.495 -0.7917  0.2541  0.0143
14242SOL    HW243860   8.758   0.442   3.611 -0.1991 -1.9631 -0.1092
14243SOL     OW43861   3.290   8.943   5.136 -0.0749 -0.0769 -0.2622
14243SOL    HW143862   3.324   8.982   5.217  1.9673  0.5026 -1.3589
14243SOL    HW243863   3.285   9.015   5.074  1.0743 -1.0136 -1.4886
14244SOL     OW43864   9.082   5.906   9.069  0.4732 -0.2009  0.2014
14244SOL    HW143865   9.150   5.927   9.133  0.2835  0.0197  0.3324
14244SOL    HW243866   9.129   5.899   8.986  0.4168  1.9763 -0.0847
14245SOL     OW43867   8.640   3.178   2.957 -0.1537  0.2700  0.5907
14245SOL    HW143868   8.673   3.263   2.928  0.8357 -0.1621  0.4192
14245SOL    HW243869   8.555   3.169   2.912 -0.4849  1.3506  0.9668
14246SOL     OW43870   4.415   6.019   6.639  0.8132  0.1995  0.6686
14246SOL    HW143871   4.345   5.954   6.637  1.1067 -0.1058 -0.6200
14246SOL    HW243872   4.467   5.996   6.716  1.8640 -2.1440 -0.6638
14247SOL     OW43873   3.901   5.247   7.695 -0.3694 -0.2631 -0.5885
14247SOL    HW143874   3.931   5.306   7.764 -1.4796 -1.3503  0.9008
14247SOL    HW243875   3.969   5.252   7.628 -0.1585  2.2692 -0.3090
14248SOL     OW43876   6.161   7.154   8.363  0.3370 -0.2117 -0.3030
14248SOL    HW143877   6.081   7.205   8.349  0.7391  1.0367  1.5983
14248SOL    HW243878   6.232   7.218   8.355  1.1671 -1.2510 -1.6905
14249SOL     OW43879   4.545   2.514   1.715  0.3072 -0.5021  0.0930
14249SOL    HW143880   4.480   2.495   1.647  0.1808 -0.7230  0.2758
14249SOL    HW243881   4.574   2.603   1.696  0.0933 -0.4744 -0.1065
14250SOL     OW43882   5.234   6.123   5.642  0.2628  0.0363 -0.0395
14250SOL    HW143883   5.209   6.115   5.734 -1.6597 -0.6749 -0.5826
14250SOL    HW243884   5.322   6.087   5.638  0.6561  0.7188  1.6251
14251SOL     OW43885   7.711   5.302   4.291  0.1962  0.0945 -0.2746
14251SOL    HW143886   7.697   5.218   4.247 -1.0393 -0.0160  0.2962
14251SOL    HW243887   7.624   5.330   4.319  0.7967  0.6878  1.1410
14252SOL     OW43888   2.640   8.402   6.736  0.1180  0.1796 -0.2991
14252SOL    HW143889   2.630   8.308   6.721 -0.1499  0.0715  0.5183
14252SOL    HW243890   2.727   8.411   6.775 -0.4025  0.0977  0.9302
14253SOL     OW43891   5.179   4.574   2.784  0.2846 -0.6497 -0.1496
14253SOL    HW143892   5.263   4.540   2.752  1.2453 -0.0932  1.6456
14253SOL    HW243893   5.114   4.535   2.726  1.8332 -0.1785 -2.3547
14254SOL     OW43894   2.985   6.867   5.519 -0.1845 -0.3260  0.1902
14254SOL    HW143895   3.042   6.927   5.566  0.5617  0.3268 -1.4715
14254SOL    HW243896   2.898   6.881   5.557 -0.6542  3.8294 -1.8014
14255SOL     OW43897   4.829   0.128   7.507  0.5449 -0.2506  0.1015
14255SOL    HW143898   4.922   0.124   7.531  0.7230  0.1609 -0.4943
14255SOL    HW243899   4.793   0.196   7.564  0.8477  0.3398 -0.3897
14256SOL     OW43900   1.067   6.309   6.347  0.3415 -0.0442 -0.1492
14256SOL    HW143901   1.010   6.358   6.406 -0.3556 -1.6028  0.5190
14256SOL    HW243902   1.045   6.217   6.363  1.0623 -0.5632 -1.9046
14257SOL     OW43903   1.892   7.372   0.558  0.6502  0.1486  0.1679
14257SOL    HW143904   1.886   7.298   0.498  0.0016 -0.4020  0.8954
14257SOL    HW243905   1.939   7.439   0.508  2.4702 -1.2155 -0.0155
14258SOL     OW43906   2.965   1.035   3.219 -0.3828 -0.2046 -0.3475
14258SOL    HW143907   2.891   1.085   3.253 -1.5378 -0.4697 -2.2704
14258SOL    HW243908   2.944   0.944   3.241  0.5658 -0.1014  1.1206
14259SOL     OW43909   7.331   1.547   8.794 -0.3751  0.2878 -0.1579
14259SOL    HW143910   7.392   1.554   8.721 -0.8464 -0.6216 -0.6443
14259SOL    HW243911   7.303   1.456   8.794 -2.8445  0.9781 -0.8388
14260SOL     OW43912   0.209   1.801   8.992 -0.1436  0.6557  0.3548
14260SOL    HW143913   0.235   1.820   8.902 -0.7228  2.2785  0.4857
14260SOL    HW243914   0.255   1.866   9.045 -0.3698  0.1812  1.1587
14261SOL     OW43915   2.940   2.536   0.247  0.1491  0.3024 -0.4807
14261SOL    HW143916   2.979   2.612   0.291  1.8858  0.4024 -2.0845
14261SOL    HW243917   2.904   2.572   0.166 -0.0524 -0.4071 -0.7049
14262SOL     OW43918   5.142   5.915   9.063  0.1314 -0.6766 -0.4592
14262SOL    HW143919   5.106   5.953   8.983  0.3658 -0.0467 -0.2677
14262SOL    HW243920   5.079   5.846   9.086 -0.2466 -0.4732 -0.8591
14263SOL     OW43921   1.209   7.711   7.233 -0.1155 -0.0462  0.2163
14263SOL    HW143922   1.181   7.637   7.286  0.6082  0.0738  0.7740
14263SOL    HW243923   1.144   7.716   7.163 -1.2192 -0.0632  1.2139
14264SOL     OW43924   7.659   6.967   0.580  0.2395 -0.2882  0.4859
14264SOL    HW143925   7.744   6.986   0.620  1.4244 -0.9143 -1.6020
14264SOL    HW243926   7.650   7.029   0.509 -0.4200 -1.1050 -0.1746
14265SOL     OW43927   2.278   5.132   4.223 -0.0270 -0.0902  0.2126
14265SOL    HW143928   2.253   5.224   4.221 -0.8299 -0.3168 -0.5582
14265SOL    HW243929   2.320   5.120   4.308  0.0766  0.9787  0.3230
14266SOL     OW43930   7.478   7.126   5.019  0.4185 -0.3257 -0.2085
14266SOL    HW143931   7.573   7.114   5.012  0.4487  0.1215 -0.5593
14266SOL    HW243932   7.459   7.203   4.966 -0.2777 -0.9743 -0.9163
14267SOL     OW43933   7.073   2.695   2.303  0.1048 -0.0100  0.3968
14267SOL    HW143934   7.025   2.751   2.364  0.7306  0.3650  0.5468
14267SOL    HW243935   7.005   2.643   2.260 -0.3327 -0.4105  1.5290
14268SOL     OW43936   7.046   1.461   0.810 -0.9250 -0.1647 -1.1995
14268SOL    HW143937   6.980   1.396   0.789  1.9312 -3.4459 -0.9799
14268SOL    HW243938   7.044   1.468   0.905 -0.8357 -0.4367 -1.1761
14269SOL     OW43939   7.998   9.048   5.430  0.1999  0.4025 -0.5555
14269SOL    HW143940   7.912   9.050   5.388 -1.3286 -2.0675  2.0354
14269SOL    HW243941   8.015   9.138   5.455 -0.4245  1.3466 -3.2123
14270SOL     OW43942   7.301   0.084   6.633 -0.0596 -0.7664  0.3050
14270SOL    HW143943   7.313   0.014   6.698 -1.0745 -0.8635  0.3996
14270SOL    HW243944   7.280   0.038   6.552  1.4342 -0.6565 -0.1720
14271SOL     OW43945   3.570   3.272   2.685  0.0261 -0.2410  0.4297
14271SOL    HW143946   3.572   3.348   2.743  0.4541 -0.1272  0.2685
14271SOL    HW243947   3.520   3.301   2.608  0.3111 -0.0798  0.3065
14272SOL     OW43948   8.664   5.706   8.037 -0.1748  0.0860  0.8174
14272SOL    HW143949   8.710   5.674   7.960 -0.3836  1.6822 -0.0221
14272SOL    HW243950   8.578   5.665   8.032 -1.1864  2.1979 -1.3988
14273SOL     OW43951   1.915   7.241   3.744  0.2102  0.8269  0.0963
14273SOL    HW143952   1.924   7.205   3.656 -2.4318  0.4530 -0.1035
14273SOL    HW243953   1.875   7.327   3.731 -0.8708  0.4740  0.9129
14274SOL     OW43954   5.689   3.762   2.379  0.5065  0.3371 -0.2686
14274SOL    HW143955   5.621   3.695   2.377  0.5346  0.2442  0.8981
14274SOL    HW243956   5.641   3.845   2.379  0.3425  0.2658  1.1631
14275SOL     OW43957   0.553   7.048   4.939 -0.3080  0.0136 -0.3629
14275SOL    HW143958   0.535   6.959   4.970 -1.8976  0.5616  0.3825
14275SOL    HW243959   0.467   7.088   4.928  0.2999  2.4142  2.1989
14276SOL     OW43960   1.157   3.198   2.301 -0.4082  0.0083  0.0950
14276SOL    HW143961   1.215   3.161   2.235  0.9184  0.5315  0.9396
14276SOL    HW243962   1.189   3.287   2.315 -1.7000  0.4676  0.2508
14277SOL     OW43963   0.500   0.552   4.492 -0.4673  0.4722 -0.6501
14277SOL    HW143964   0.426   0.554   4.430 -0.7898  0.6991 -0.2585
14277SOL    HW243965   0.563   0.614   4.455 -0.5175  0.3652 -0.9237
14278SOL     OW43966   4.502   2.334   0.891 -0.1198 -0.1711 -0.5984
14278SOL    HW143967   4.477   2.370   0.806 -0.5153 -0.4638 -0.6132
14278SOL    HW243968   4.556   2.258   0.870 -0.2035 -0.2334 -0.5914
14279SOL     OW43969   2.073   1.047   6.107  0.3600  0.8591 -0.2600
14279SOL    HW143970   2.068   1.024   6.200  1.4006  1.3646 -0.0657
14279SOL    HW243971   2.036   1.134   6.101  1.3013  1.2807 -0.1270
14280SOL     OW43972   5.551   2.842   6.706  0.0976  0.0984  0.5536
14280SOL    HW143973   5.620   2.908   6.700 -1.4382  1.6481 -1.4251
14280SOL    HW243974   5.555   2.795   6.622 -1.3599  0.3931  0.2866
14281SOL     OW43975   0.644   2.377   5.888 -0.1240 -0.1723  0.6332
14281SOL    HW143976   0.662   2.286   5.909 -1.8000 -0.6629  0.1032
14281SOL    HW243977   0.589   2.409   5.960 -1.4842 -0.3117 -0.2882
14282SOL     OW43978   5.421   7.440   7.956  0.6215  0.0756  0.2831
14282SOL    HW143979   5.452   7.370   7.897  0.3053 -0.0780  0.2972
14282SOL    HW243980   5.438   7.406   8.044 -0.2985 -0.3466  0.3079
14283SOL     OW43981   3.850   0.998   3.218 -0.3938  0.6141 -0.3312
14283SOL    HW143982   3.786   0.947   3.268  0.8570 -0.7246 -0.0517
14283SOL    HW243983   3.815   1.088   3.220 -0.9641  0.4088  1.9754
14284SOL     OW43984   4.872   7.227   6.682  0.6810  0.3486 -0.2538
14284SOL    HW143985   4.967   7.233   6.666  0.9117  0.0039  0.8978
14284SOL    HW243986   4.865   7.193   6.771 -0.5358  0.0522 -0.4457
14285SOL     OW43987   8.006   1.152   3.613  0.1520  0.2503 -0.3587
14285SOL    HW143988   7.932   1.162   3.553  0.1240  0.1906 -0.3338
14285SOL    HW243989   7.966   1.143   3.699  0.2225  1.4782 -0.1790
14286SOL     OW43990   2.415   4.659   7.911 -0.1441  0.4563 -0.1778
14286SOL    HW143991   2.493   4.604   7.922 -1.2060 -0.8458  1.1614
14286SOL    HW243992   2.448   4.738   7.868  1.3007 -1.5010 -2.9622
14287SOL     OW43993   3.004   7.152   3.356  0.3984 -0.5028 -0.2305
14287SOL    HW143994   3.015   7.059   3.335  3.3293 -0.0972 -0.9979
14287SOL    HW243995   3.091   7.190   3.342 -0.1961  1.9991  2.0051
14288SOL     OW43996   1.036   3.635   3.152 -0.4913 -0.0588 -0.3908
14288SOL    HW143997   1.102   3.638   3.083  0.7222 -0.6519  0.7066
14288SOL    HW243998   1.024   3.727   3.178 -0.1962  0.0627 -0.6795
14289SOL     OW43999   7.468   4.634   6.878 -0.1807 -0.4493 -0.6952
14289SOL    HW144000   7.511   4.579   6.813 -0.5449  0.5242 -1.8085
14289SOL    HW244001   7.382   4.654   6.839 -0.8131 -0.6801  0.5500
14290SOL     OW44002   8.787   7.054   0.287 -0.1345  0.3458 -0.3757
14290SOL    HW144003   8.860   7.027   0.342  0.6129 -1.0380 -1.9458
14290SOL    HW244004   8.814   7.030   0.198 -1.4604  2.0934 -1.3132
14291SOL     OW44005   3.913   3.115   5.661 -0.1143  0.0058  0.1853
14291SOL    HW144006   3.919   3.183   5.594 -1.4930  0.2328  0.2708
14291SOL    HW244007   3.859   3.154   5.730 -0.4591 -0.9810  0.4822
14292SOL     OW44008   2.127   5.260   0.745 -0.1669 -0.3315  0.2819
14292SOL    HW144009   2.148   5.339   0.696  1.6913  0.2285  1.8738
14292SOL    HW244010   2.160   5.276   0.833 -1.5486 -2.1131  1.2026
14293SOL     OW44011   6.263   6.958   1.121 -0.2708 -0.1266  0.2739
14293SOL    HW144012   6.356   6.974   1.103  0.2268 -2.2340  0.7088
14293SOL    HW244013   6.247   7.002   1.205  0.7226 -0.9426  0.9120
14294SOL     OW44014   1.319   7.988   3.479  0.3171 -0.1376  0.3206
14294SOL    HW144015   1.348   8.067   3.433  0.0254  0.1964  0.7045
14294SOL    HW244016   1.233   7.969   3.442  0.5332 -0.4835 -0.0198
14295SOL     OW44017   0.335   5.983   0.849  0.8052  0.1844 -0.1722
14295SOL    HW144018   0.380   5.931   0.916 -0.4906 -0.8761 -0.0716
14295SOL    HW244019   0.308   6.062   0.896  2.1739  0.6568 -0.1391
14296SOL     OW44020   6.032   5.280   0.195  0.2432 -0.4314 -0.0697
14296SOL    HW144021   6.113   5.240   0.224  0.6730  0.2116 -0.3570
14296SOL    HW244022   6.003   5.333   0.269 -1.2805 -2.6146  0.9970
14297SOL     OW44023   4.136   0.999   4.243  0.0446  0.1178 -0.5190
14297SOL    HW144024   4.045   0.986   4.218  0.0765 -0.5758 -0.2960
14297SOL    HW244025   4.177   1.040   4.167 -0.4199  0.2967 -0.6733
14298SOL     OW44026   8.121   2.997   3.535  0.0312  0.6277  0.1736
14298SOL    HW144027   8.032   2.963   3.530 -1.1302  2.6536  3.4563
14298SOL    HW244028   8.173   2.924   3.568 -0.2227 -0.6972 -2.1553
14299SOL     OW44029   7.626   1.708   5.463 -0.6760  0.0083  0.6123
14299SOL    HW144030   7.655   1.650   5.533  1.0038  1.3560  1.1196
14299SOL    HW244031   7.595   1.650   5.393 -0.4780 -1.4118  1.6707
14300SOL     OW44032   7.301   2.266   0.733  0.3611  0.1060  0.1407
14300SOL    HW144033   7.295   2.183   0.780 -0.9771  0.0586 -0.0602
14300SOL    HW244034   7.302   2.241   0.640 -2.3161  0.3326 -0.0195
14301SOL     OW44035   0.974   1.490   7.326  0.0880  0.1713  0.6955
14301SOL    HW144036   0.960   1.400   7.356 -0.8527 -0.0375 -0.3014
14301SOL    HW244037   0.956   1.544   7.403 -1.5410 -0.3792  0.7384
14302SOL     OW44038   1.521   7.578   6.135  0.5962  0.3434 -0.8308
14302SOL    HW144039   1.492   7.660   6.175 -2.3067 -0.1425 -1.6493
14302SOL    HW244040   1.512   7.512   6.204  0.0574  0.2630 -0.9696
14303SOL     OW44041   5.781   1.854   4.365  0.2801  0.7022 -0.0323
14303SOL    HW144042   5.792   1.914   4.291  1.5081 -0.2190 -0.6227
14303SOL    HW244043   5.869   1.822   4.384 -0.5050 -2.7383 -1.3260
14304SOL     OW44044   0.822   2.835   8.044 -0.3603 -0.8492 -0.3942
14304SOL    HW144045   0.775   2.787   8.112 -1.1155 -1.3433 -1.2529
14304SOL    HW244046   0.761   2.904   8.017 -0.1219 -0.7501 -0.6815
14305SOL     OW44047   3.235   1.594   7.227  0.7046  0.5605 -0.3066
14305SOL    HW144048   3.237   1.561   7.317  1.2493  0.4394 -0.3601
14305SOL    HW244049   3.188   1.526   7.178  0.4609  0.5973 -0.1265
14306SOL     OW44050   7.129   5.002   3.059  0.2010  0.2702 -0.0244
14306SOL    HW144051   7.206   5.013   3.002  0.6822 -0.0791  0.5466
14306SOL    HW244052   7.054   5.013   3.000  0.5299 -4.7750 -1.8675
14307SOL     OW44053   0.046   3.015   4.479  0.2114  0.7370  0.4364
14307SOL    HW144054  -0.009   3.049   4.409  1.1629  3.3677  0.8421
14307SOL    HW244055  -0.015   2.993   4.550 -0.7659 -2.0166 -1.1275
14308SOL     OW44056   5.473   0.497   5.526 -0.3882 -0.2396 -0.4978
14308SOL    HW144057   5.564   0.494   5.556 -0.4801 -2.0466 -0.2778
14308SOL    HW244058   5.421   0.486   5.605 -0.7300 -1.1213 -0.8280
14309SOL     OW44059   0.187   2.315   5.129  0.3018 -0.4809 -0.3363
14309SOL    HW144060   0.238   2.391   5.157  1.5827 -1.7265  0.8766
14309SOL    HW244061   0.111   2.315   5.188 -0.6159  0.7856 -1.4622
14310SOL     OW44062   6.806   9.117   2.208 -0.6376  0.1073 -0.0200
14310SOL    HW144063   6.822   9.162   2.125 -0.3907  0.5030  0.2382
14310SOL    HW244064   6.880   9.057   2.217 -0.7814 -0.0969 -0.1934
14311SOL     OW44065   1.934   5.283   9.090  0.4564  0.7131 -0.0484
14311SOL    HW144066   1.951   5.351   9.155  2.0380 -0.3457  0.7161
14311SOL    HW244067   1.986   5.309   9.014  0.5398  0.7058  0.0055
14312SOL     OW44068   2.098   7.878   0.064 -0.4077 -0.0131 -0.1099
14312SOL    HW144069   2.178   7.848   0.021 -1.0629 -1.0168 -0.6661
14312SOL    HW244070   2.054   7.930  -0.002 -0.7632 -0.4203 -0.1945
14313SOL     OW44071   2.605   3.366   1.256  0.5691 -0.0587 -0.1803
14313SOL    HW144072   2.577   3.442   1.307  0.2465 -0.4833  0.3016
14313SOL    HW244073   2.695   3.349   1.285  0.2753 -0.5020  0.5302
14314SOL     OW44074   5.221   2.504   2.484  0.2954 -0.4023 -0.2382
14314SOL    HW144075   5.175   2.491   2.567  0.4195  0.4054 -0.0352
14314SOL    HW244076   5.234   2.416   2.450 -0.9231 -0.6792 -0.0385
14315SOL     OW44077   8.572   2.188   5.155 -0.2167  0.5820 -0.5040
14315SOL    HW144078   8.511   2.204   5.084 -0.3435  0.7569 -0.3564
14315SOL    HW244079   8.627   2.115   5.124 -0.5842  0.3373 -0.5837
14316SOL     OW44080   4.281   6.579   2.415 -0.3196  0.2223 -0.2577
14316SOL    HW144081   4.237   6.644   2.469 -0.3008  1.1378 -1.3017
14316SOL    HW244082   4.364   6.562   2.460  0.4890  2.2648 -0.8072
14317SOL     OW44083   3.216   4.873   6.125  0.2723 -0.5690  0.2578
14317SOL    HW144084   3.284   4.898   6.187 -0.9316  1.0427  0.9979
14317SOL    HW244085   3.199   4.781   6.144  0.4611 -0.3085  1.8105
14318SOL     OW44086   3.823   6.632   2.055  0.6286 -0.2838 -0.1616
14318SOL    HW144087   3.863   6.565   1.999  1.5722 -1.5963  1.9386
14318SOL    HW244088   3.879   6.709   2.045  1.9548 -1.1265  0.4031
14319SOL     OW44089   1.809   8.238   3.897  0.0577  0.2939 -0.2296
14319SOL    HW144090   1.870   8.253   3.969 -0.7256  1.7111  0.1723
14319SOL    HW244091   1.827   8.308   3.835 -1.1016  0.7174 -0.1150
14320SOL     OW44092   0.275   2.115   6.880 -0.1631 -0.4320 -0.4202
14320SOL    HW144093   0.236   2.139   6.964  0.5465 -0.3671 -0.0991
14320SOL    HW244094   0.271   2.196   6.829  1.1645  0.0880  0.2505
14321SOL     OW44095   3.876   8.318   4.804 -0.1475  0.2534 -0.0667
14321SOL    HW144096   3.887   8.247   4.867 -0.9683  0.8806  0.8113
14321SOL    HW244097   3.798   8.365   4.834  0.4378  1.5920 -0.5664
14322SOL     OW44098   6.543   3.969   8.996 -0.1153 -0.3190 -0.5093
14322SOL    HW144099   6.571   3.878   9.007 -0.0081 -0.3183 -0.7944
14322SOL    HW244100   6.622   4.016   8.971 -0.3320 -0.2843 -1.1234
14323SOL     OW44101   3.258   6.007   7.893 -0.0478  0.2810  0.2623
14323SOL    HW144102   3.181   5.959   7.925  0.2969 -1.0300 -0.7664
14323SOL    HW244103   3.224   6.062   7.822  0.1371 -1.3877 -1.1929
14324SOL     OW44104   5.663   6.172   8.715 -0.2187 -0.2316  0.1783
14324SOL    HW144105   5.708   6.250   8.682  2.0915 -1.1813  0.9029
14324SOL    HW244106   5.622   6.134   8.637 -0.1800  0.9069 -0.4281
14325SOL     OW44107   4.344   4.947   1.216 -0.3094 -0.2001 -0.0436
14325SOL    HW144108   4.271   4.886   1.222 -2.1246  1.8342 -0.3923
14325SOL    HW244109   4.306   5.028   1.182  1.8640  1.3564  0.9582
14326SOL     OW44110   7.630   0.430   1.757 -0.8248  0.7836  0.0507
14326SOL    HW144111   7.542   0.407   1.786 -1.4290  0.9555 -1.5243
14326SOL    HW244112   7.681   0.350   1.770 -1.4277  0.4183  0.2094
14327SOL     OW44113   3.621   7.906   2.012 -0.0373  0.0331 -0.1989
14327SOL    HW144114   3.677   7.975   2.046  0.9465 -0.1821 -1.3244
14327SOL    HW244115   3.561   7.885   2.084  0.2721  1.3845  0.4694
14328SOL     OW44116   7.112   8.195   7.072  0.4928  0.2071  0.2593
14328SOL    HW144117   7.046   8.241   7.124  1.4849  0.2162  1.5476
14328SOL    HW244118   7.131   8.116   7.122  2.1917  0.6985  0.4606
14329SOL     OW44119   2.368   5.597   2.125  0.1962  0.2327  0.2186
14329SOL    HW144120   2.309   5.538   2.079 -0.1133 -0.3324  1.3157
14329SOL    HW244121   2.447   5.599   2.071  0.2906 -1.3363  0.2469
14330SOL     OW44122   1.002   2.902   1.411  0.1631  0.0681 -0.1166
14330SOL    HW144123   1.054   2.971   1.370 -1.2748  0.3813 -1.5397
14330SOL    HW244124   1.010   2.918   1.505  1.1403  1.1941 -0.3647
14331SOL     OW44125   3.307   4.546   2.216  0.2724 -0.3832 -0.2657
14331SOL    HW144126   3.328   4.554   2.123  0.3817 -2.5277 -0.4900
14331SOL    HW244127   3.292   4.452   2.228 -0.7691 -0.0116  1.6750
14332SOL     OW44128   7.185   4.300   5.311  0.2968 -0.2237 -0.0464
14332SOL    HW144129   7.172   4.385   5.270  0.6487  1.3961  2.9369
14332SOL    HW244130   7.269   4.270   5.277  1.1439  1.5809  0.3441
14333SOL     OW44131   0.379   8.883   3.266 -0.1202 -0.4780  0.0822
14333SOL    HW144132   0.430   8.816   3.220  2.3720  0.4539  1.3009
14333SOL    HW244133   0.366   8.952   3.200  0.1218 -0.7821 -0.2884
14334SOL     OW44134   8.449   2.776   0.476  0.0724 -0.3375  0.1790
14334SOL    HW144135   8.453   2.853   0.534  0.4256  0.4059 -0.8075
14334SOL    HW244136   8.524   2.722   0.502 -0.6593 -0.7954  1.4522
14335SOL     OW44137   4.389   1.177   0.715  0.7907 -0.4519 -0.0074
14335SOL    HW144138   4.466   1.212   0.760  0.0134 -1.0718  1.8883
14335SOL    HW244139   4.324   1.247   0.723  0.5724 -0.6617  0.0502
14336SOL     OW44140   8.301   4.688   2.833 -0.4128 -0.2034 -0.1715
14336SOL    HW144141   8.344   4.624   2.889  1.4983  0.9622 -0.2096
14336SOL    HW244142   8.275   4.758   2.893 -2.9567 -1.1690 -0.0458
14337SOL     OW44143   2.954   4.103   6.126  0.1053  0.0056  0.3683
14337SOL    HW144144   3.043   4.067   6.128  0.6049  1.0440 -1.3980
14337SOL    HW244145   2.908   4.048   6.062  0.8490  2.2598 -2.2928
14338SOL     OW44146   3.997   5.562   8.667  0.1584 -0.0144  0.5385
14338SOL    HW144147   3.947   5.626   8.617  2.0811 -0.4774 -2.2454
14338SOL    HW244148   4.035   5.613   8.739 -1.9144  0.9175  1.0600
14339SOL     OW44149   2.411   4.791   5.496 -0.2560  0.2189 -0.5327
14339SOL    HW144150   2.320   4.802   5.471 -0.0115  0.9237 -1.1397
14339SOL    HW244151   2.436   4.706   5.459 -1.4180 -1.3261  1.9662
14340SOL     OW44152   1.740   2.769   3.302  0.2166 -0.0817  0.0845
14340SOL    HW144153   1.833   2.779   3.282  0.6925  0.4516  2.2645
14340SOL    HW244154   1.695   2.804   3.225  1.8086  0.1137 -0.8031
14341SOL     OW44155   3.069   6.669   4.028  0.1358  0.1182 -0.7482
14341SOL    HW144156   3.134   6.731   3.996 -0.1629  0.6566 -0.3302
14341SOL    HW244157   3.118   6.588   4.043  0.8257  0.6784  0.0885
14342SOL     OW44158   0.384   3.588   2.126  0.0903 -0.0126 -0.5884
14342SOL    HW144159   0.434   3.528   2.070 -0.8877 -0.4611 -1.0210
14342SOL    HW244160   0.431   3.590   2.209  0.4318 -0.9830 -0.7496
14343SOL     OW44161   3.940   8.126   0.685 -0.0596  0.1395  0.0269
14343SOL    HW144162   3.855   8.170   0.686  0.9571  2.3575 -1.5837
14343SOL    HW244163   3.965   8.119   0.777 -0.9240  1.7020  0.4063
14344SOL     OW44164   4.779   8.180   6.947  0.9251 -0.2872 -0.3020
14344SOL    HW144165   4.741   8.113   6.890  2.7475 -1.2519 -0.4632
14344SOL    HW244166   4.810   8.248   6.888  0.7518 -0.2055 -0.2959
14345SOL     OW44167   6.281   2.039   1.107  0.1933 -0.6597 -0.0563
14345SOL    HW144168   6.274   2.040   1.202 -0.4919  1.9602 -0.0542
14345SOL    HW244169   6.372   2.016   1.089  0.2939 -1.3050  1.2072
14346SOL     OW44170   7.310   3.920   2.001  0.1691  0.8689  0.1908
14346SOL    HW144171   7.334   3.982   2.070  0.0627  0.5236  0.5407
14346SOL    HW244172   7.364   3.946   1.927 -0.0874  1.5650  0.2392
14347SOL     OW44173   1.719   8.672   5.633  0.2622  0.1423 -0.4149
14347SOL    HW144174   1.639   8.626   5.610  0.9694 -0.8089 -1.0717
14347SOL    HW244175   1.700   8.715   5.716 -1.2014  0.6713 -0.9866
14348SOL     OW44176   0.019   0.152   1.826  0.2407  0.2263  0.3582
14348SOL    HW144177  -0.053   0.089   1.836  1.8304 -1.5814  0.9830
14348SOL    HW244178   0.060   0.129   1.743 -0.7126  2.1844 -0.7112
14349SOL     OW44179   6.265   2.179   4.554 -0.0243  0.4348 -0.2201
14349SOL    HW144180   6.270   2.096   4.601 -0.0665  0.0276 -0.9229
14349SOL    HW244181   6.311   2.241   4.610 -0.6755  0.1135  0.6916
14350SOL     OW44182   2.664   1.641   3.324  0.7263 -0.7518 -0.0583
14350SOL    HW144183   2.592   1.611   3.380  0.7893 -0.7368  0.0311
14350SOL    HW244184   2.726   1.681   3.385  1.1623 -1.4424 -0.0396
14351SOL     OW44185   7.027   2.940   4.059 -0.3923 -0.4305 -0.2002
14351SOL    HW144186   7.047   3.033   4.044  0.0122 -0.5403 -0.3474
14351SOL    HW244187   7.051   2.925   4.150  1.3530 -0.8502 -0.6909
14352SOL     OW44188   7.868   5.435   0.514  0.5306 -0.0865  0.0677
14352SOL    HW144189   7.863   5.481   0.598 -0.8079 -2.2182  1.2556
14352SOL    HW244190   7.933   5.367   0.528 -1.6680 -2.2543  0.4212
14353SOL     OW44191   7.156   7.469   8.360 -0.0385  0.0417  0.0307
14353SOL    HW144192   7.062   7.473   8.378 -0.3103  1.2372 -1.4257
14353SOL    HW244193   7.195   7.445   8.444 -1.4572  1.8769  1.3123
14354SOL     OW44194   7.508   5.828   8.364 -0.1594  0.2624  0.0543
14354SOL    HW144195   7.551   5.846   8.447  1.0888 -1.8202 -0.0750
14354SOL    HW244196   7.502   5.733   8.360  1.8671  0.1323 -3.2031
14355SOL     OW44197   7.060   8.934   2.809  0.3727  0.2804 -0.2653
14355SOL    HW144198   7.033   8.893   2.727  0.5599  0.1034 -0.2374
14355SOL    HW244199   7.130   8.878   2.842  1.9155  1.5886 -1.1434
14356SOL     OW44200   0.949   2.809   5.547  0.7563 -0.0712  0.4485
14356SOL    HW144201   0.866   2.813   5.500 -1.1662 -0.2063  3.5052
14356SOL    HW244202   0.968   2.716   5.555 -0.7239 -0.2707  2.5952
14357SOL     OW44203   7.601   8.240   8.235  0.2074  0.0518  0.2124
14357SOL    HW144204   7.647   8.176   8.289  1.0150 -1.9488 -2.6239
14357SOL    HW244205   7.543   8.188   8.180 -0.3542  1.9140 -1.0528
14358SOL     OW44206   6.016   8.470   5.144 -0.4377 -0.5189  0.2153
14358SOL    HW144207   5.922   8.464   5.127 -0.1722 -0.3518 -1.4250
14358SOL    HW244208   6.024   8.542   5.207 -1.4007 -0.5463  0.3876
14359SOL     OW44209   0.271   8.914   3.516 -0.1531 -0.0463 -0.1255
14359SOL    HW144210   0.182   8.880   3.514 -0.8869  1.8076 -1.0758
14359SOL    HW244211   0.319   8.858   3.455 -0.7171 -0.9087  0.2085
14360SOL     OW44212   8.001   6.098   4.257 -0.4395  0.0336 -0.1599
14360SOL    HW144213   8.067   6.126   4.193  1.3592 -0.6835  1.3020
14360SOL    HW244214   7.944   6.174   4.268  2.2094  1.9709  1.0770
14361SOL     OW44215   5.735   8.915   3.341  0.3106  0.5259  0.4536
14361SOL    HW144216   5.818   8.869   3.332  0.5942  0.8418  1.3968
14361SOL    HW244217   5.732   8.974   3.266 -0.3377 -1.3909 -1.1365
14362SOL     OW44218   8.653   3.947   6.631 -0.8588 -0.5809 -0.3225
14362SOL    HW144219   8.731   3.934   6.577 -0.3101 -1.2364  0.5939
14362SOL    HW244220   8.579   3.934   6.571 -0.2626 -0.9366 -0.9904
14363SOL     OW44221   8.621   9.101   3.585 -0.2256  0.1895  0.0526
14363SOL    HW144222   8.575   9.051   3.517  0.8289 -0.6409 -0.0834
14363SOL    HW244223   8.714   9.093   3.561  0.2365 -0.6396  1.9084
14364SOL     OW44224   3.930   8.595   3.695  0.0688 -0.4448  0.4247
14364SOL    HW144225   4.007   8.640   3.729 -0.4030 -0.9001  2.1803
14364SOL    HW244226   3.858   8.624   3.750 -1.0929  0.0969 -1.2912
14365SOL     OW44227   7.260   7.445   8.617  0.1433  0.0665 -0.2447
14365SOL    HW144228   7.210   7.449   8.699  1.5835 -0.5167  0.7120
14365SOL    HW244229   7.319   7.519   8.622  0.6127 -0.2890 -0.4878
14366SOL     OW44230   0.525   0.754   0.388  0.5379 -0.1496  0.3108
14366SOL    HW144231   0.598   0.810   0.360 -0.1437  1.9318  2.3589
14366SOL    HW244232   0.450   0.787   0.339  0.8130 -2.0075 -1.4694
14367SOL     OW44233   2.548   2.527   9.038  0.9271 -0.1658  0.0683
14367SOL    HW144234   2.522   2.467   9.108 -1.6410  0.8084  0.0808
14367SOL    HW244235   2.567   2.470   8.964  1.1293 -1.1089  0.8287
14368SOL     OW44236   7.246   7.866   3.615  0.5890 -0.4871  0.3329
14368SOL    HW144237   7.275   7.833   3.700  1.2180 -1.4204 -0.2312
14368SOL    HW244238   7.151   7.876   3.625  0.4844 -1.7006  0.7940
14369SOL     OW44239   5.794   0.007   5.647 -0.8143 -0.5877  0.5122
14369SOL    HW144240   5.804  -0.022   5.737 -1.1661 -0.3718  0.6208
14369SOL    HW244241   5.857  -0.046   5.598  0.1133  0.0061  1.0293
14370SOL     OW44242   5.319   1.300   7.833  0.0421  0.2756 -0.1634
14370SOL    HW144243   5.310   1.214   7.793 -1.2821 -0.0194  0.7335
14370SOL    HW244244   5.412   1.322   7.821 -0.1457 -0.0890 -2.7354
14371SOL     OW44245   7.208   8.291   0.786  0.1821 -0.5863 -0.0422
14371SOL    HW144246   7.161   8.364   0.827  1.3745  0.1049  0.1485
14371SOL    HW244247   7.228   8.232   0.859  0.2499 -0.5162 -0.0037
14372SOL     OW44248   4.608   6.900   2.724  0.3646  0.3171 -0.1020
14372SOL    HW144249   4.582   6.992   2.717  0.5250  0.2578 -1.7235
14372SOL    HW244250   4.699   6.904   2.752 -0.1770  0.5838  1.7845
14373SOL     OW44251   5.689   2.460   3.134  0.2571 -0.2959 -0.6343
14373SOL    HW144252   5.742   2.540   3.126 -0.2856 -0.0802 -2.6012
14373SOL    HW244253   5.608   2.490   3.175  0.4002 -0.0024 -0.5582
14374SOL     OW44254   3.825   6.923   3.406  0.0348 -0.1852  0.2236
14374SOL    HW144255   3.911   6.923   3.448  0.3778  1.7714 -0.3534
14374SOL    HW244256   3.765   6.954   3.474  0.1899  0.6336  0.0041
14375SOL     OW44257   7.324   0.578   7.184  0.0070  0.6380 -0.1218
14375SOL    HW144258   7.393   0.512   7.182 -1.1988 -0.6328 -0.8312
14375SOL    HW244259   7.246   0.532   7.212 -0.9746  1.6424 -1.0547
14376SOL     OW44260   1.943   7.368   2.002 -0.1517  0.1101  0.0152
14376SOL    HW144261   1.853   7.399   2.014 -0.4113 -0.3754 -0.6631
14376SOL    HW244262   1.987   7.442   1.959 -1.3567 -1.1425 -3.8369
14377SOL     OW44263   4.035   3.203   5.178  0.5292 -0.2886  0.1147
14377SOL    HW144264   4.058   3.235   5.266 -2.4931  0.9869  0.5475
14377SOL    HW244265   4.031   3.282   5.124 -1.8157 -0.4840 -0.0917
14378SOL     OW44266   6.704   3.289   5.480  0.2612 -0.1045  0.5875
14378SOL    HW144267   6.758   3.341   5.539  0.4690  0.4391 -0.0631
14378SOL    HW244268   6.615   3.321   5.496  0.4993  1.1979 -0.5226
14379SOL     OW44269   2.850   3.403   4.456  0.3306  0.8017  0.0411
14379SOL    HW144270   2.801   3.360   4.526  0.8125  0.1901  0.0052
14379SOL    HW244271   2.796   3.389   4.378  1.0016 -0.7127 -0.1870
14380SOL     OW44272   0.054   3.143   2.298 -0.3480 -0.2400  0.1087
14380SOL    HW144273   0.078   3.078   2.232 -1.3755 -1.5598  0.9892
14380SOL    HW244274  -0.037   3.163   2.280 -0.3172  0.2177  0.4570
14381SOL     OW44275   7.105   8.144   4.864 -0.4972  0.6767 -0.3780
14381SOL    HW144276   7.070   8.126   4.777 -2.0697  1.1701  0.1208
14381SOL    HW244277   7.036   8.114   4.924  1.4775 -1.8608  0.8288
14382SOL     OW44278   6.499   8.822   1.938 -0.3961 -0.1809  0.3745
14382SOL    HW144279   6.464   8.837   1.850  1.6756 -3.1238 -1.1168
14382SOL    HW244280   6.469   8.734   1.961  1.2726 -0.4971  1.4583
14383SOL     OW44281   8.149   8.588   3.657  0.0027 -0.2473  0.3040
14383SOL    HW144282   8.176   8.660   3.599  1.0689 -0.8908 -0.0305
14383SOL    HW244283   8.135   8.630   3.742 -0.4567  0.5253 -0.1351
14384SOL     OW44284   4.556   0.578   0.204  0.1972  0.4800  0.1908
14384SOL    HW144285   4.579   0.640   0.273  1.5089  0.9764 -0.6543
14384SOL    HW244286   4.580   0.623   0.123 -0.3731 -0.4885 -0.5348
14385SOL     OW44287   1.932   4.295   2.303 -0.3023  0.4974  0.1391
14385SOL    HW144288   2.002   4.236   2.330 -3.1684 -2.0005  3.0061
14385SOL    HW244289   1.925   4.283   2.209  0.2392 -2.7316  0.3992
14386SOL     OW44290   5.978   0.928   4.622  0.3315 -0.1154  0.5485
14386SOL    HW144291   5.883   0.942   4.616  0.3101 -0.5201 -0.1455
14386SOL    HW244292   5.992   0.840   4.587  1.0200  0.1329  0.1795
14387SOL     OW44293   2.746   6.611   7.476  0.2724  0.2448 -0.2481
14387SOL    HW144294   2.725   6.691   7.524  0.5832  1.2443 -1.7134
14387SOL    HW244295   2.734   6.635   7.384  0.9918 -1.2141 -0.7411
14388SOL     OW44296   1.630   7.895   1.859  1.0667 -0.1054  0.3882
14388SOL    HW144297   1.658   7.808   1.830  0.4756 -0.0268 -0.4934
14388SOL    HW244298   1.706   7.932   1.903  1.4293 -0.9493  0.4884
14389SOL     OW44299   4.123   5.619   2.515 -0.2158  0.1440 -0.5847
14389SOL    HW144300   4.084   5.554   2.456  0.2234  0.5788 -1.3686
14389SOL    HW244301   4.066   5.695   2.508 -1.2634 -0.4213  1.0348
14390SOL     OW44302   4.804   7.430   0.943 -0.0903  0.8415  0.0644
14390SOL    HW144303   4.762   7.516   0.944 -0.6918  0.5719 -0.8770
14390SOL    HW244304   4.886   7.443   0.896 -0.6741  0.6963 -1.0187
14391SOL     OW44305   4.374   1.855   6.686 -0.1264  0.0498 -0.0306
14391SOL    HW144306   4.445   1.910   6.654  0.8654 -1.0906  0.0916
14391SOL    HW244307   4.301   1.872   6.627  0.1383  1.4688  0.0167
14392SOL     OW44308   7.737   3.052   9.008 -0.0125  0.3573  0.1976
14392SOL    HW144309   7.750   3.104   9.087  1.0229  1.0215 -0.3712
14392SOL    HW244310   7.823   3.052   8.966  0.4227 -2.9631  0.8103
14393SOL     OW44311   1.209   7.845   6.545 -0.5589 -0.4531  0.2300
14393SOL    HW144312   1.158   7.924   6.563  1.2393  0.5842  1.1520
14393SOL    HW244313   1.274   7.842   6.616 -0.6000 -2.8041  0.2402
14394SOL     OW44314   3.707   8.204   0.778 -0.4160  0.1463 -0.2278
14394SOL    HW144315   3.628   8.257   0.780  0.9094  2.2444  2.0956
14394SOL    HW244316   3.677   8.116   0.804 -1.8769  1.1034  1.5641
14395SOL     OW44317   8.380   0.732   3.976  0.0190 -0.3324  0.2067
14395SOL    HW144318   8.402   0.729   3.883  2.9469  0.5399  0.7502
14395SOL    HW244319   8.369   0.826   3.994 -2.4175 -0.6082  0.4300
14396SOL     OW44320   1.750   8.515   3.457 -0.3941  0.0455  0.8489
14396SOL    HW144321   1.658   8.529   3.435 -0.3741  1.2385  1.4505
14396SOL    HW244322   1.798   8.535   3.377 -0.4171  3.1030  1.4695
14397SOL     OW44323   5.280   1.798   3.060  0.1573  0.8786 -0.2048
14397SOL    HW144324   5.196   1.764   3.030 -0.4735  2.5543 -0.4784
14397SOL    HW244325   5.329   1.813   2.980  0.4451  0.5525 -0.0877
14398SOL     OW44326   7.606   1.315   5.692  0.1426  0.3698  0.1084
14398SOL    HW144327   7.592   1.271   5.776 -1.2719  0.4728 -0.0571
14398SOL    HW244328   7.617   1.407   5.714 -0.8572  0.4846  0.1318
14399SOL     OW44329   7.538   0.428   2.554  0.5539 -0.0233  0.8769
14399SOL    HW144330   7.555   0.522   2.548 -0.1090  0.0150 -0.9616
14399SOL    HW244331   7.624   0.390   2.574  1.6866  0.6808 -2.0989
14400SOL     OW44332   2.904   1.629   5.254 -0.3083  0.2671  0.6560
14400SOL    HW144333   2.835   1.613   5.319  0.0387  0.7438  1.1516
14400SOL    HW244334   2.944   1.711   5.282  0.1278  0.2534  0.0757
14401SOL     OW44335   8.383   1.700   2.398  0.0207  0.1033  0.0363
14401SOL    HW144336   8.336   1.708   2.481  1.3714  0.9346  0.7560
14401SOL    HW244337   8.461   1.649   2.420  1.1817  1.6614 -0.3693
14402SOL     OW44338   8.059   2.751   8.157  0.2576  0.6001 -0.9302
14402SOL    HW144339   8.050   2.742   8.062 -0.5301 -0.6072 -0.7598
14402SOL    HW244340   8.153   2.763   8.170  0.7009 -1.4666 -1.7348
14403SOL     OW44341   0.410   2.293   8.778  0.5182  0.4731  0.4166
14403SOL    HW144342   0.454   2.208   8.770  2.4324  1.3400  1.2905
14403SOL    HW244343   0.340   2.289   8.713  1.6285 -1.1178 -0.7737
14404SOL     OW44344   8.343   3.949   7.682  0.8975  0.4425  0.1312
14404SOL    HW144345   8.362   4.043   7.686  1.5718  0.3683 -0.9400
14404SOL    HW244346   8.416   3.912   7.633 -0.1360 -0.4281 -0.7939
14405SOL     OW44347   7.602   8.294   2.124 -0.0605  0.3431  0.5829
14405SOL    HW144348   7.515   8.290   2.085  0.2837 -0.1175 -0.1483
14405SOL    HW244349   7.638   8.207   2.112  0.7747  0.7269  0.2568
14406SOL     OW44350   1.224   4.808   5.597  0.0718 -0.0968 -0.2259
14406SOL    HW144351   1.314   4.786   5.622  0.3154  0.9194 -0.1599
14406SOL    HW244352   1.228   4.826   5.503 -0.0529  0.0021 -0.2128
14407SOL     OW44353   6.753   8.256   2.790  0.1097  0.0153  0.6930
14407SOL    HW144354   6.712   8.308   2.859  0.4848  1.5327 -0.1834
14407SOL    HW244355   6.832   8.305   2.768  1.0326 -1.4989  0.5570
14408SOL     OW44356   0.367   1.977   3.197  0.7195  0.0181  0.7797
14408SOL    HW144357   0.371   1.978   3.101 -0.7946 -0.4854  0.6915
14408SOL    HW244358   0.316   2.054   3.220  1.5606  0.4482  1.2212
14409SOL     OW44359   1.595   7.183   6.849 -0.4817  0.3865 -0.2664
14409SOL    HW144360   1.543   7.259   6.873  0.2665  1.0165 -0.5848
14409SOL    HW244361   1.539   7.132   6.790 -1.0408  0.6159  0.0655
14410SOL     OW44362   7.901   1.131   5.725 -0.2283  0.1831  0.1940
14410SOL    HW144363   7.905   1.183   5.805 -2.0534 -1.1206  1.1849
14410SOL    HW244364   7.847   1.055   5.747 -0.5673 -0.3652 -2.1949
14411SOL     OW44365   3.106   2.880   8.757 -0.6822  0.0891 -0.2042
14411SOL    HW144366   3.031   2.927   8.720 -0.9346  0.6192  0.9268
14411SOL    HW244367   3.087   2.788   8.742 -1.0873  0.2613 -0.7893
14412SOL     OW44368   0.795   4.635   1.116  0.0861  0.3195  0.7198
14412SOL    HW144369   0.747   4.650   1.035 -1.1278 -1.0651  1.1267
14412SOL    HW244370   0.852   4.560   1.098 -1.0116 -0.7335  1.4089
14413SOL     OW44371   4.237   5.176   1.113 -0.2423 -0.0696 -0.2992
14413SOL    HW144372   4.294   5.173   1.036 -1.5895 -2.7824 -1.3043
14413SOL    HW244373   4.154   5.140   1.083 -1.2504  0.0665  2.1134
14414SOL     OW44374   4.342   3.270   7.634 -0.1363  0.2129 -0.0649
14414SOL    HW144375   4.253   3.235   7.626  0.1366 -0.5004 -0.0795
14414SOL    HW244376   4.351   3.328   7.559  0.0379 -1.1410 -1.1420
14415SOL     OW44377   0.303   3.411   7.346 -0.3359  0.1878  0.4929
14415SOL    HW144378   0.216   3.407   7.307 -0.2848  1.0741  0.2640
14415SOL    HW244379   0.360   3.444   7.277 -0.3609  2.4128  1.4424
14416SOL     OW44380   3.511   6.203   4.849  0.6285  0.3967 -0.1203
14416SOL    HW144381   3.583   6.262   4.872 -0.4050  1.6674 -0.0288
14416SOL    HW244382   3.468   6.245   4.775  0.2056 -0.5500 -0.4341
14417SOL     OW44383   8.443   1.011   7.316  0.1883  0.1323 -0.2620
14417SOL    HW144384   8.411   0.920   7.310  0.2810  0.0828 -0.0391
14417SOL    HW244385   8.533   1.002   7.348 -0.1559  0.3413  0.8376
14418SOL     OW44386   3.382   0.496   1.540  0.7766 -0.4410 -0.0016
14418SOL    HW144387   3.354   0.411   1.574 -0.5221 -0.6301 -1.4287
14418SOL    HW244388   3.466   0.513   1.583 -0.2926 -1.0822  2.5240
14419SOL     OW44389   8.297   6.949   2.420 -0.3117  0.4662  0.1301
14419SOL    HW144390   8.310   6.926   2.328 -3.5897  0.5303 -0.4745
14419SOL    HW244391   8.372   6.910   2.465  1.0959 -0.0882 -2.4524
14420SOL     OW44392   0.899   0.783   0.842 -0.0791  0.0122  0.0245
14420SOL    HW144393   0.960   0.727   0.794 -1.1526 -0.3136 -1.0011
14420SOL    HW244394   0.815   0.772   0.797 -1.1224 -0.2317  1.9122
14421SOL     OW44395   4.412   3.616   5.102  0.0353 -0.1673  0.0263
14421SOL    HW144396   4.410   3.700   5.057  1.5360 -0.1685 -0.1091
14421SOL    HW244397   4.375   3.554   5.040 -0.5803  0.2985 -0.0781
14422SOL     OW44398   8.921   2.699   4.303 -0.1976  0.5411  0.7112
14422SOL    HW144399   9.002   2.723   4.259 -0.1382 -0.9084 -0.0554
14422SOL    HW244400   8.949   2.665   4.387  0.2319 -1.7139 -0.2634
14423SOL     OW44401   3.816   8.055   2.669 -0.0612 -0.8266 -0.3334
14423SOL    HW144402   3.800   8.149   2.676  0.9600 -0.6779  0.1783
14423SOL    HW244403   3.841   8.028   2.757  3.1797 -0.8523 -1.1327
14424SOL     OW44404   3.119   6.277   3.129  0.5411 -0.0790 -0.4212
14424SOL    HW144405   3.149   6.293   3.039 -1.3056  0.9226 -0.9075
14424SOL    HW244406   3.031   6.241   3.119  0.2380  0.2007  1.0008
14425SOL     OW44407   4.168   0.076   5.137 -0.4722  0.1924 -0.0652
14425SOL    HW144408   4.199   0.159   5.175  1.3786 -0.3468 -0.2866
14425SOL    HW244409   4.219   0.066   5.057 -1.9382 -0.3316 -0.9633
14426SOL     OW44410   3.059   3.483   3.449  0.2355  0.3329  0.4452
14426SOL    HW144411   3.011   3.538   3.387 -0.9220 -1.0234  0.1014
14426SOL    HW244412   3.023   3.505   3.534 -0.9380 -0.5489  0.2079
14427SOL     OW44413   8.630   4.308   7.480 -0.6233 -0.0452 -0.2826
14427SOL    HW144414   8.539   4.322   7.507 -1.2047 -0.7842 -1.7007
14427SOL    HW244415   8.626   4.312   7.384  1.3599  2.8609 -0.3696
14428SOL     OW44416   5.719   1.576   8.365 -0.7414  0.0509  0.2342
14428SOL    HW144417   5.797   1.631   8.351  0.7907 -1.6441  1.6927
14428SOL    HW244418   5.751   1.499   8.410 -3.5422  0.0355  2.4927
14429SOL     OW44419   5.131   8.765   0.259  0.3649  0.0821  0.0039
14429SOL    HW144420   5.067   8.694   0.260  0.2089  0.2236 -0.0605
14429SOL    HW244421   5.153   8.779   0.351 -1.0983  1.3120  0.2130
14430SOL     OW44422   5.362   8.644   5.842 -0.2902  0.3134  0.2342
14430SOL    HW144423   5.287   8.657   5.784  1.2967  1.5505 -1.7060
14430SOL    HW244424   5.333   8.677   5.927 -2.3456 -0.5272 -0.0878
14431SOL     OW44425   7.569   3.440   5.030  0.2270 -0.6296  0.3343
14431SOL    HW144426   7.609   3.362   5.070 -0.3915 -0.8038  0.6207
14431SOL    HW244427   7.511   3.475   5.098  0.7220  0.2559  0.3142
14432SOL     OW44428   0.714   4.789   5.230  0.0732 -0.3103 -0.0647
14432SOL    HW144429   0.704   4.842   5.151  0.9448 -0.5877 -0.3699
14432SOL    HW244430   0.657   4.832   5.295 -0.5762 -0.0319 -0.8085
14433SOL     OW44431   8.011   5.284   7.472  0.3003  0.4216  0.2637
14433SOL    HW144432   8.106   5.279   7.489  0.4340  0.6655 -0.3938
14433SOL    HW244433   7.994   5.378   7.463  0.2617  0.3019 -1.0560
14434SOL     OW44434   7.838   2.763   0.302 -0.2829  0.1806  0.1060
14434SOL    HW144435   7.891   2.724   0.372 -1.3415  0.1788  0.9314
14434SOL    HW244436   7.898   2.821   0.256  1.8265 -3.3613 -2.0879
14435SOL     OW44437   7.177   0.669   8.410  0.1106  0.3466  0.0260
14435SOL    HW144438   7.242   0.599   8.414 -0.5386 -0.2555  0.3853
14435SOL    HW244439   7.100   0.627   8.370 -0.3173  0.8292  0.3327
14436SOL     OW44440   2.526   2.090   8.913  0.3054 -0.4760  0.0841
14436SOL    HW144441   2.611   2.046   8.925  0.9306  0.8638  0.7470
14436SOL    HW244442   2.548   2.182   8.904 -1.0590 -0.1683 -0.3272
14437SOL     OW44443   8.877   7.672   4.459  0.9004 -0.7547  0.1784
14437SOL    HW144444   8.877   7.621   4.378 -0.3648 -1.1336  0.3938
14437SOL    HW244445   8.819   7.623   4.518 -1.7001  1.6921 -0.1261
14438SOL     OW44446   6.204   1.463   7.236  0.2145  0.1702 -0.1127
14438SOL    HW144447   6.204   1.556   7.213  0.6866  0.2611  0.2373
14438SOL    HW244448   6.128   1.453   7.292  0.5663  0.5072  0.4448
14439SOL     OW44449   4.056   3.335   0.662  0.7200  0.3037  0.0196
14439SOL    HW144450   4.061   3.247   0.699 -0.2829 -0.1391 -0.8183
14439SOL    HW244451   3.980   3.375   0.706  3.8084  2.5907  3.9691
14440SOL     OW44452   0.003   0.039   7.547 -0.3563 -0.4861 -0.3062
14440SOL    HW144453  -0.076   0.082   7.580  1.0698  1.0868  1.3197
14440SOL    HW244454  -0.013   0.027   7.453 -2.4247 -0.0799 -0.0576
14441SOL     OW44455   6.662   7.927   1.735 -0.8090 -0.6195 -0.8079
14441SOL    HW144456   6.644   7.873   1.658  1.1711  0.0301 -1.7987
14441SOL    HW244457   6.649   8.017   1.706 -1.3027 -0.4116  0.0095
14442SOL     OW44458   1.445   3.368   3.379 -0.2314 -0.1240  0.0258
14442SOL    HW144459   1.458   3.442   3.319 -0.2916  0.4363  0.6874
14442SOL    HW244460   1.350   3.363   3.390 -0.4128 -1.8069 -1.8412
14443SOL     OW44461   2.473   5.168   4.819 -0.2296 -0.2877 -0.5228
14443SOL    HW144462   2.525   5.160   4.899 -0.3440 -3.2001 -0.6313
14443SOL    HW244463   2.485   5.085   4.774 -2.3994  0.1849 -2.1689
14444SOL     OW44464   5.701   5.870   5.241 -0.1186 -0.2681  0.0959
14444SOL    HW144465   5.765   5.822   5.188 -1.1712 -0.7690 -0.7440
14444SOL    HW244466   5.631   5.807   5.257 -0.6901  0.4571  0.5076
14445SOL     OW44467   6.255   8.084   2.853 -0.0617  0.2203 -0.1259
14445SOL    HW144468   6.175   8.034   2.868 -0.2157 -0.2317 -2.1973
14445SOL    HW244469   6.312   8.024   2.804  1.3726  0.7131  0.8571
14446SOL     OW44470   2.957   7.654   6.528 -0.1390 -0.5195 -1.1660
14446SOL    HW144471   2.895   7.593   6.566 -0.2452  0.2021 -0.1407
14446SOL    HW244472   2.903   7.714   6.476 -0.2485 -0.2272 -0.7224
14447SOL     OW44473   1.810   3.948   5.500  0.4299  0.1430 -0.4952
14447SOL    HW144474   1.720   3.979   5.505  0.4338  0.0925 -0.0554
14447SOL    HW244475   1.807   3.876   5.437  0.3194  0.6699 -1.1019
14448SOL     OW44476   1.306   6.823   5.093 -0.1509 -0.1078 -0.4367
14448SOL    HW144477   1.346   6.742   5.062 -0.8118 -0.7056  0.2475
14448SOL    HW244478   1.222   6.827   5.048  0.2448  0.6708 -1.1520
14449SOL     OW44479   2.701   6.106   3.473  0.1117  0.4874  0.7003
14449SOL    HW144480   2.744   6.181   3.514 -0.5024 -0.2549  2.8733
14449SOL    HW244481   2.653   6.143   3.398 -0.3160  2.3075  1.8102
14450SOL     OW44482   1.555   3.235   0.806 -0.1306  0.4124  0.7873
14450SOL    HW144483   1.475   3.268   0.765 -0.0094  0.4708  0.6008
14450SOL    HW244484   1.616   3.308   0.802 -0.3468  0.6541  1.6984
14451SOL     OW44485   0.491   5.210   2.051 -0.1518  0.4158  0.1316
14451SOL    HW144486   0.400   5.220   2.021 -0.1952 -1.2368 -0.3398
14451SOL    HW244487   0.537   5.284   2.012 -1.4842  1.9358  1.2796
14452SOL     OW44488   5.693   2.107   1.727  0.0240  0.5524  0.3613
14452SOL    HW144489   5.722   2.019   1.751 -0.0852  0.3242 -0.3226
14452SOL    HW244490   5.616   2.093   1.673 -0.2713  1.0910  0.6367
14453SOL     OW44491   2.454   6.167   8.485  0.1762 -0.4618  0.1844
14453SOL    HW144492   2.437   6.174   8.391 -2.3262 -1.9279  0.4395
14453SOL    HW244493   2.395   6.231   8.525  0.8214 -0.2348  0.7871
14454SOL     OW44494   2.808   8.149   4.221  0.4772  0.3540 -0.2911
14454SOL    HW144495   2.730   8.096   4.206  0.8329  0.0532 -1.1959
14454SOL    HW244496   2.864   8.131   4.145  1.2300  0.9119  0.1119
14455SOL     OW44497   6.775   4.591   2.010  0.5772 -0.1099 -0.0375
14455SOL    HW144498   6.685   4.569   1.986  0.4841  0.1363  0.0876
14455SOL    HW244499   6.776   4.686   2.016  0.3737 -0.1862  1.7896
14456SOL     OW44500   3.752   0.945   3.488 -0.0425  0.5580 -0.5874
14456SOL    HW144501   3.842   0.967   3.512 -0.6950  1.1374  1.5911
14456SOL    HW244502   3.755   0.852   3.466  1.0825  0.5545 -0.4664
14457SOL     OW44503   6.274   0.301   0.587  0.0018 -0.3875  0.2929
14457SOL    HW144504   6.346   0.241   0.606 -0.4940 -0.3964  2.3749
14457SOL    HW244505   6.198   0.245   0.573 -0.1205 -0.3042  0.6143
14458SOL     OW44506   3.068   3.075   6.778 -0.4638  0.2158 -0.5587
14458SOL    HW144507   3.095   3.134   6.848 -2.0964 -1.3873  1.5780
14458SOL    HW244508   2.986   3.112   6.745 -0.3842  0.2591 -0.7107
14459SOL     OW44509   1.714   4.062   3.172  0.3550 -0.0189  0.4138
14459SOL    HW144510   1.696   4.090   3.262 -1.0713  0.0271  0.1347
14459SOL    HW244511   1.678   4.132   3.117 -0.2972 -0.8432 -0.2276
14460SOL     OW44512   5.699   4.483   0.745 -0.1567  0.6990  0.4214
14460SOL    HW144513   5.693   4.573   0.711 -0.4456  0.6861  0.4351
14460SOL    HW244514   5.688   4.492   0.839 -0.4834  0.6193  0.3920
14461SOL     OW44515   7.624   5.988   4.253 -0.3626  0.2115 -0.5159
14461SOL    HW144516   7.611   6.063   4.195  0.0053  1.5143  1.0358
14461SOL    HW244517   7.554   5.995   4.317 -0.2301 -0.6999 -0.2633
14462SOL     OW44518   3.991   3.990   4.063 -0.1575  0.4379  0.2509
14462SOL    HW144519   4.044   3.945   3.998 -1.3127 -0.3102 -0.2217
14462SOL    HW244520   3.912   4.016   4.015 -1.2903 -0.6277  1.4585
14463SOL     OW44521   7.929   1.424   3.453 -0.1261  0.5197 -0.0873
14463SOL    HW144522   7.886   1.344   3.483 -0.9640  0.2529 -1.8906
14463SOL    HW244523   7.999   1.438   3.517 -0.2917 -1.3437  0.5849
14464SOL     OW44524   4.708   8.699   7.493  0.5293 -0.0077  0.3129
14464SOL    HW144525   4.780   8.687   7.555  1.6761 -1.8934 -1.2779
14464SOL    HW244526   4.680   8.610   7.470 -2.8970  0.6163  1.4341
14465SOL     OW44527   6.897   3.027   5.980  0.5958  0.0576 -0.5383
14465SOL    HW144528   6.963   3.006   6.046 -0.4699 -2.3123 -0.1033
14465SOL    HW244529   6.929   2.986   5.900  1.5547  2.3599 -1.4284
14466SOL     OW44530   0.457   7.258   0.491  0.1716 -0.9510  0.3269
14466SOL    HW144531   0.548   7.267   0.465 -0.2334 -0.3577 -0.9691
14466SOL    HW244532   0.407   7.297   0.419 -1.0706 -0.5634  1.3558
14467SOL     OW44533   5.773   8.338   4.853  0.5845  0.1311 -0.2554
14467SOL    HW144534   5.781   8.386   4.770 -0.7118 -0.1602 -0.5669
14467SOL    HW244535   5.851   8.282   4.855  1.8352  1.7943 -0.1537
14468SOL     OW44536   0.595   4.284   1.334  0.0166  0.8479  0.2876
14468SOL    HW144537   0.534   4.216   1.305  0.6394  0.3716  0.0671
14468SOL    HW244538   0.621   4.329   1.254 -0.9277  1.8191  0.5076
14469SOL     OW44539   5.381   0.338   6.553  0.3430 -0.1198  0.1431
14469SOL    HW144540   5.399   0.248   6.580  1.5624  0.2529  0.6376
14469SOL    HW244541   5.326   0.373   6.622  0.1478 -0.3817  0.1218
14470SOL     OW44542   6.948   4.793   3.245 -0.1193 -0.5569 -0.0643
14470SOL    HW144543   6.990   4.794   3.331  0.8965 -1.6636 -0.5131
14470SOL    HW244544   7.011   4.836   3.187 -1.4532  1.5877 -0.0314
14471SOL     OW44545   8.222   2.764   4.837 -0.2721 -0.1612  0.3232
14471SOL    HW144546   8.250   2.797   4.922  0.8116  0.6135 -0.3092
14471SOL    HW244547   8.138   2.807   4.821 -0.3622 -0.1207  0.8837
14472SOL     OW44548   4.786   0.134   7.072  0.5900 -0.4382  0.0819
14472SOL    HW144549   4.857   0.161   7.014  0.8364 -1.6751 -0.2251
14472SOL    HW244550   4.709   0.130   7.017  0.5368 -0.2763  0.1449
14473SOL     OW44551   1.712   8.073   8.664  0.1769  0.6405 -0.2342
14473SOL    HW144552   1.715   7.979   8.682  0.8687  0.5212 -0.9161
14473SOL    HW244553   1.725   8.080   8.570  1.7632  1.4896  0.0192
14474SOL     OW44554   3.974   2.431   6.899 -0.5119  0.1622 -0.1282
14474SOL    HW144555   3.899   2.397   6.850  0.1986 -0.7466 -0.6329
14474SOL    HW244556   3.950   2.419   6.991 -0.9975 -0.0867 -0.2845
14475SOL     OW44557   8.262   6.849   2.937 -0.0742 -0.3452  0.3180
14475SOL    HW144558   8.335   6.807   2.983  1.3664  2.2166  0.5769
14475SOL    HW244559   8.224   6.779   2.884  2.0983 -1.9745  0.7408
14476SOL     OW44560   1.008   7.558   5.393  0.6909 -0.3660  0.6256
14476SOL    HW144561   0.941   7.516   5.339  2.5020 -1.7443 -0.7030
14476SOL    HW244562   0.970   7.563   5.480 -0.9912 -1.4352 -0.0051
14477SOL     OW44563   0.524   2.848   7.419 -0.1656  0.3723 -0.2773
14477SOL    HW144564   0.437   2.836   7.457 -0.0649  0.9578  0.1565
14477SOL    HW244565   0.584   2.808   7.482  0.0833  2.1798  0.6897
14478SOL     OW44566   0.901   3.046   4.608  0.3768  0.0608 -0.1933
14478SOL    HW144567   0.809   3.052   4.632  0.1822 -0.0352 -0.8792
14478SOL    HW244568   0.949   3.066   4.688 -0.2406  1.0140 -0.0437
14479SOL     OW44569   5.184   5.509   5.763 -0.2328 -0.3857 -0.9499
14479SOL    HW144570   5.246   5.514   5.836 -1.4551 -0.5426  0.1424
14479SOL    HW244571   5.166   5.601   5.741  1.6514 -0.3313 -2.4255
14480SOL     OW44572   7.315   0.336   0.878  0.4927 -0.0806 -0.2857
14480SOL    HW144573   7.357   0.251   0.889 -0.4862 -0.7968 -1.8025
14480SOL    HW244574   7.386   0.395   0.851  0.8818 -0.7827 -0.7984
14481SOL     OW44575   7.380   2.692   4.974 -0.1289 -0.2544  0.2909
14481SOL    HW144576   7.416   2.768   5.020 -1.1802 -0.0972  0.8686
14481SOL    HW244577   7.359   2.725   4.887  3.3356 -0.9241 -0.9513
14482SOL     OW44578   3.793   1.227   8.681 -0.2841 -0.1120 -0.3609
14482SOL    HW144579   3.856   1.292   8.715  1.0981 -1.4598 -0.2086
14482SOL    HW244580   3.721   1.229   8.744 -0.2677  1.2595 -0.3576
14483SOL     OW44581   5.255   1.921   5.266 -0.8080  0.1614 -0.9188
14483SOL    HW144582   5.288   1.896   5.353 -0.1431  1.6649 -0.7010
14483SOL    HW244583   5.240   1.838   5.221  0.3522 -0.6281  0.0877
14484SOL     OW44584   0.518   7.290   2.243  0.3472 -0.0532 -0.2992
14484SOL    HW144585   0.613   7.276   2.243  0.6201  1.3162 -2.5638
14484SOL    HW244586   0.482   7.209   2.208  0.8507  0.0849 -1.1631
14485SOL     OW44587   2.030   8.811   7.512 -0.1324 -0.4783  0.1685
14485SOL    HW144588   2.078   8.852   7.584  1.3629  0.0512 -1.0660
14485SOL    HW244589   2.015   8.883   7.450  0.5886 -1.3354 -1.0403
14486SOL     OW44590   0.235   1.555   8.062  0.2728  1.1476  0.0105
14486SOL    HW144591   0.271   1.470   8.087  0.8128  0.7610 -1.9430
14486SOL    HW244592   0.311   1.606   8.034 -0.3311  1.3256 -1.3940
14487SOL     OW44593   0.898   6.544   4.302  0.1474 -0.7406  0.0432
14487SOL    HW144594   0.878   6.523   4.393 -1.9568 -0.7125 -0.3528
14487SOL    HW244595   0.992   6.560   4.301 -0.2339  2.9041  2.9560
14488SOL     OW44596   6.003   6.467   1.148  0.5169 -0.3105 -0.5648
14488SOL    HW144597   6.043   6.550   1.121  0.7952 -0.4685 -0.6466
14488SOL    HW244598   6.005   6.469   1.244  3.6367 -1.6531 -0.4692
14489SOL     OW44599   8.022   3.411   4.431 -0.4965  0.2123  0.3379
14489SOL    HW144600   8.007   3.416   4.337 -1.0964  1.9406  0.4848
14489SOL    HW244601   7.935   3.398   4.468 -0.4887  1.1238  0.7124
14490SOL     OW44602   2.569   5.018   6.847  0.0050  0.6150  0.5744
14490SOL    HW144603   2.547   5.085   6.783  0.8014 -1.2826 -1.8597
14490SOL    HW244604   2.632   4.962   6.802  2.2377  0.2961  3.7854
14491SOL     OW44605   7.151   3.204   1.127  0.4174 -0.5280  0.1936
14491SOL    HW144606   7.095   3.251   1.065  1.7864 -0.5501 -1.1249
14491SOL    HW244607   7.142   3.112   1.103  0.6888 -0.5712  0.2467
14492SOL     OW44608   0.264   4.666   4.002 -0.5948  0.6482  0.0643
14492SOL    HW144609   0.210   4.711   3.937 -1.0173 -0.2955 -0.2605
14492SOL    HW244610   0.280   4.731   4.070  0.0893  1.7327 -1.1166
14493SOL     OW44611   6.599   3.542   3.316  0.1753 -0.0138 -0.3931
14493SOL    HW144612   6.578   3.633   3.294 -0.0266 -0.3047 -1.4487
14493SOL    HW244613   6.598   3.540   3.412  0.3792  1.1392 -0.3524
14494SOL     OW44614   7.091   2.211   3.196  0.1591  0.2308 -0.3461
14494SOL    HW144615   7.015   2.245   3.243  0.3994 -1.0915  1.0520
14494SOL    HW244616   7.125   2.141   3.252  3.9610  2.4194  0.4495
14495SOL     OW44617   0.473   6.232   8.688 -0.1383 -0.1269  0.5489
14495SOL    HW144618   0.563   6.221   8.658 -0.3928 -0.2094 -0.2135
14495SOL    HW244619   0.473   6.200   8.778  0.1720 -1.9413 -0.0547
14496SOL     OW44620   3.667   8.050   3.797 -0.0257  0.0961 -0.3473
14496SOL    HW144621   3.659   8.138   3.762  0.5428  0.2285 -0.1697
14496SOL    HW244622   3.671   8.062   3.892 -1.2396 -0.2301 -0.2478
14497SOL     OW44623   6.349   5.768   4.452 -0.2584  0.0587  0.0091
14497SOL    HW144624   6.439   5.799   4.455  0.0506 -0.7283 -0.7148
14497SOL    HW244625   6.347   5.707   4.378 -1.2712 -0.2703  0.2929
14498SOL     OW44626   6.270   0.160   2.947 -0.1147  0.4236  0.4283
14498SOL    HW144627   6.187   0.179   2.903  1.1159  1.1805 -1.6971
14498SOL    HW244628   6.260   0.070   2.978 -2.1194  0.8658  1.2332
14499SOL     OW44629   6.627   0.314   6.120 -0.2319 -0.1595  0.6006
14499SOL    HW144630   6.581   0.351   6.044  3.2148 -0.0332 -1.6531
14499SOL    HW244631   6.637   0.221   6.099 -2.9633 -1.1900  3.0999
14500SOL     OW44632   7.980   5.587   1.103  0.3011 -0.2201  0.1673
14500SOL    HW144633   8.006   5.513   1.158  0.9329 -0.6393 -0.6714
14500SOL    HW244634   7.886   5.596   1.117  0.2703 -1.0092  0.4994
14501SOL     OW44635   5.622   6.273   3.537 -0.5475 -0.1212 -0.1089
14501SOL    HW144636   5.718   6.267   3.536 -0.3240  2.3647  1.0512
14501SOL    HW244637   5.593   6.182   3.543  1.7820 -0.8494  1.5765
14502SOL     OW44638   1.115   1.057   1.589 -0.0391  0.1037 -0.5089
14502SOL    HW144639   1.195   1.008   1.568 -0.1914 -0.7817  0.8574
14502SOL    HW244640   1.110   1.055   1.685 -0.6233  1.9190 -0.4623
14503SOL     OW44641   1.682   1.909   5.136 -0.3251 -0.3582  0.9267
14503SOL    HW144642   1.705   1.961   5.213 -0.4502  1.3241 -0.1125
14503SOL    HW244643   1.649   1.973   5.073  0.3710 -1.5803 -0.7658
14504SOL     OW44644   6.464   6.718   6.878 -0.3550 -0.8580 -0.1826
14504SOL    HW144645   6.491   6.626   6.879 -2.6182 -1.6300  2.0221
14504SOL    HW244646   6.413   6.728   6.958 -0.4338  2.2873 -0.5124
14505SOL     OW44647   0.586   5.660   7.852  0.4244  0.0630  0.2320
14505SOL    HW144648   0.662   5.615   7.890  0.2828 -1.3539 -1.0633
14505SOL    HW244649   0.558   5.722   7.920  1.8057 -0.4587  1.3262
14506SOL     OW44650   7.604   5.735   1.474 -0.6760  0.6273  0.1794
14506SOL    HW144651   7.609   5.800   1.545 -0.6674 -0.8686  1.6078
14506SOL    HW244652   7.534   5.676   1.500  1.5575 -1.9967  0.8053
14507SOL     OW44653   1.939   6.607   7.217 -0.3638 -0.1213  0.7891
14507SOL    HW144654   2.005   6.659   7.171  0.4920  0.6095  2.7153
14507SOL    HW244655   1.983   6.525   7.238 -0.5418 -0.2178  0.7862
14508SOL     OW44656   0.020   4.102   3.799 -0.0927  0.2243  0.4836
14508SOL    HW144657  -0.020   4.150   3.727 -1.1311  1.2345  1.6757
14508SOL    HW244658  -0.032   4.126   3.876  1.1797 -0.5378  1.6389
14509SOL     OW44659   5.717   4.068   7.535  0.3157 -0.1955 -0.5318
14509SOL    HW144660   5.629   4.075   7.498 -0.0714 -2.0234 -0.0248
14509SOL    HW244661   5.710   4.109   7.622 -0.0586 -0.4128 -0.4597
14510SOL     OW44662   8.699   6.993   2.701  0.1838  0.2480  0.5471
14510SOL    HW144663   8.729   6.979   2.611 -0.0004 -1.5462  0.7298
14510SOL    HW244664   8.702   6.906   2.741 -1.5818  0.6622  1.6939
14511SOL     OW44665   2.390   0.787   0.101 -0.3327 -0.4650  0.6431
14511SOL    HW144666   2.424   0.729   0.032 -0.1859 -0.1022  0.4066
14511SOL    HW244667   2.332   0.847   0.055 -1.7824 -1.4542  1.1408
14512SOL     OW44668   4.817   6.557   1.467 -0.2298  0.5591  0.1920
14512SOL    HW144669   4.838   6.640   1.510 -0.5132  0.4798  0.4960
14512SOL    HW244670   4.734   6.574   1.422  0.7391  1.0506 -1.5017
14513SOL     OW44671   6.782   7.761   6.102  0.1396 -0.7104 -0.1511
14513SOL    HW144672   6.757   7.669   6.097  0.5243 -0.8260  0.0734
14513SOL    HW244673   6.818   7.772   6.190 -0.9958 -0.0674  0.2496
14514SOL     OW44674   6.105   4.638   7.899  0.2032 -0.0427 -0.0207
14514SOL    HW144675   6.076   4.685   7.977  0.3255  0.8470 -0.5059
14514SOL    HW244676   6.084   4.696   7.826 -0.1605 -0.9853 -0.6835
14515SOL     OW44677   8.167   0.258   3.353  0.9051  0.0612  0.7782
14515SOL    HW144678   8.221   0.334   3.377 -0.8092  1.3553  0.6939
14515SOL    HW244679   8.188   0.242   3.261 -1.1877  2.6822 -0.2754
14516SOL     OW44680   8.492   8.303   4.650  0.2214 -0.1970 -0.0339
14516SOL    HW144681   8.499   8.372   4.584  0.0691 -0.4779 -0.3482
14516SOL    HW244682   8.399   8.305   4.676  0.2274 -0.2516 -0.0100
14517SOL     OW44683   6.706   6.163   4.345 -0.1694 -0.0713 -0.0121
14517SOL    HW144684   6.692   6.090   4.284  0.4338  0.2656 -0.5716
14517SOL    HW244685   6.687   6.126   4.431  1.5134 -1.3299 -0.1143
14518SOL     OW44686   4.342   6.911   5.472  0.2661  0.3131  0.2588
14518SOL    HW144687   4.326   6.980   5.408  1.3452  0.2736 -0.0758
14518SOL    HW244688   4.373   6.956   5.550  1.3608  0.1984 -0.0938
14519SOL     OW44689   6.843   7.599   5.750 -0.2835  0.3306 -0.0622
14519SOL    HW144690   6.788   7.557   5.684 -0.8653  0.8622  0.0736
14519SOL    HW244691   6.800   7.579   5.833  0.3240 -0.1503  0.1401
14520SOL     OW44692   0.605   6.759   7.169 -0.0119 -0.2708 -0.2095
14520SOL    HW144693   0.579   6.795   7.254 -0.4459  3.5377 -1.7975
14520SOL    HW244694   0.526   6.715   7.137 -0.2270 -0.6492  0.7849
14521SOL     OW44695   5.739   8.947   8.565  0.4416  0.1451  0.1819
14521SOL    HW144696   5.804   9.001   8.610 -0.2903  0.1798  1.2299
14521SOL    HW244697   5.690   8.904   8.635  0.5694 -1.3817 -0.6151
14522SOL     OW44698   1.988   1.942   4.638 -0.4252  0.5072 -0.1140
14522SOL    HW144699   2.056   1.910   4.578  0.1817  0.4503  0.5882
14522SOL    HW244700   1.992   2.037   4.630  0.7370  0.5765  0.9698
14523SOL     OW44701   1.042   9.004   6.135  0.4679 -0.2266 -0.2492
14523SOL    HW144702   1.034   8.961   6.220 -1.1582 -0.9562 -0.7421
14523SOL    HW244703   1.061   9.096   6.156 -1.0634 -0.1506  0.9458
14524SOL     OW44704   0.734   8.223   7.012  0.2897  0.2120  0.4372
14524SOL    HW144705   0.817   8.202   7.055  0.5506 -1.3891 -0.7559
14524SOL    HW244706   0.758   8.283   6.942  0.0105  1.9737  1.7868
14525SOL     OW44707   0.546   6.574   0.135  0.0214 -0.5223 -0.4671
14525SOL    HW144708   0.524   6.667   0.127  0.9033 -0.2637 -0.0272
14525SOL    HW244709   0.641   6.571   0.127  0.2727 -1.0899  1.9762
14526SOL     OW44710   0.777   7.808   3.114  0.3110  0.1401  0.5720
14526SOL    HW144711   0.843   7.877   3.117  0.8213 -0.3491  0.8092
14526SOL    HW244712   0.792   7.757   3.194 -0.5062  0.1548  0.7470
14527SOL     OW44713   5.686   8.911   4.084 -0.5892  0.1913 -0.1649
14527SOL    HW144714   5.612   8.850   4.072 -3.0668  3.1267 -0.9819
14527SOL    HW244715   5.661   8.964   4.159  1.1387  0.7781  0.0412
14528SOL     OW44716   0.363   2.303   3.354 -0.3340  0.3991 -0.2938
14528SOL    HW144717   0.384   2.268   3.440  0.6562 -2.6206 -1.6250
14528SOL    HW244718   0.430   2.370   3.338  1.0245 -0.7851  0.2860
14529SOL     OW44719   4.013   4.367   1.551  0.2492  0.0033  0.2606
14529SOL    HW144720   4.027   4.285   1.504 -0.8756  0.0984 -0.2677
14529SOL    HW244721   3.999   4.432   1.482  1.6356  0.7709  0.6525
14530SOL     OW44722   0.178   4.059   7.533 -0.1537 -0.3579  0.1221
14530SOL    HW144723   0.175   4.010   7.451  0.1349 -0.3863  0.1256
14530SOL    HW244724   0.098   4.111   7.533  0.2269  0.2530 -0.5678
14531SOL     OW44725   8.621   3.170   2.428  0.4992  0.6778 -0.4807
14531SOL    HW144726   8.652   3.081   2.447  1.0803  1.2272  1.4375
14531SOL    HW244727   8.659   3.223   2.498 -1.5567  2.0863 -0.3508
14532SOL     OW44728   0.662   0.729   0.713 -0.2248  0.1628  0.3728
14532SOL    HW144729   0.603   0.800   0.689 -1.1269 -0.4944  0.6226
14532SOL    HW244730   0.628   0.653   0.666 -0.2101 -0.4572  1.3550
14533SOL     OW44731   0.389   4.929   3.842  0.2427  0.4406  0.2722
14533SOL    HW144732   0.320   4.900   3.783 -0.4890 -0.9458  1.7116
14533SOL    HW244733   0.454   4.858   3.840 -0.1778 -0.0192  1.6927
14534SOL     OW44734   7.364   3.317   6.623 -0.5803  0.3508 -0.2924
14534SOL    HW144735   7.426   3.379   6.662 -0.7378 -0.1858  0.8262
14534SOL    HW244736   7.400   3.301   6.535 -0.9797  2.6323 -0.9401
14535SOL     OW44737   3.591   3.334   9.111  0.3065 -0.0951 -0.3776
14535SOL    HW144738   3.531   3.403   9.140  0.3363 -0.8146  1.5063
14535SOL    HW244739   3.678   3.370   9.128  0.3180 -0.8664  1.4217
14536SOL     OW44740   8.163   5.348   1.522  0.1498 -0.4199 -0.1243
14536SOL    HW144741   8.231   5.402   1.561 -0.6189  1.2502 -0.9795
14536SOL    HW244742   8.205   5.264   1.506  1.2003 -0.3481  1.8733
14537SOL     OW44743   4.185   2.549   5.335 -0.1754 -0.2657 -0.4817
14537SOL    HW144744   4.166   2.485   5.403 -0.3424 -1.8017 -1.9044
14537SOL    HW244745   4.103   2.596   5.323  0.6211  2.1966  2.4149
14538SOL     OW44746   2.535   2.278   5.167 -0.3593  0.1212 -0.3764
14538SOL    HW144747   2.524   2.303   5.259 -0.8561 -2.0004  0.1911
14538SOL    HW244748   2.512   2.357   5.118 -1.7510  0.8091  1.2655
14539SOL     OW44749   6.486   5.829   3.323 -0.1159 -0.0893  0.4790
14539SOL    HW144750   6.510   5.879   3.401 -0.8508  1.2911 -0.1277
14539SOL    HW244751   6.562   5.836   3.265 -0.2756  0.4853  0.3325
14540SOL     OW44752   4.650   7.339   7.617  0.1618  0.0633  0.0284
14540SOL    HW144753   4.656   7.308   7.707 -0.2617 -0.8001 -0.2237
14540SOL    HW244754   4.728   7.393   7.604  0.1078  0.3817  0.9730
14541SOL     OW44755   7.278   6.454   7.393 -0.4446  0.7727 -0.5328
14541SOL    HW144756   7.219   6.520   7.430  1.0116  1.6863  0.2633
14541SOL    HW244757   7.252   6.373   7.435 -0.4669  1.3606  0.6338
14542SOL     OW44758   4.333   0.314   5.592 -0.2825  0.5995 -0.2092
14542SOL    HW144759   4.288   0.300   5.508  0.7641  2.3034 -1.1354
14542SOL    HW244760   4.263   0.321   5.656 -1.3402  2.1688 -1.4437
14543SOL     OW44761   6.045   7.591   5.815  0.4340  0.2537 -0.1118
14543SOL    HW144762   5.999   7.576   5.732 -0.8081 -1.4483  0.8324
14543SOL    HW244763   5.976   7.609   5.878  1.1372 -0.9907  1.0694
14544SOL     OW44764   2.977   0.407   5.870 -0.3513 -0.2548 -0.3915
14544SOL    HW144765   2.898   0.451   5.901 -0.9662 -2.3070  1.1821
14544SOL    HW244766   3.048   0.451   5.917 -0.5237  1.3958 -1.5765
14545SOL     OW44767   4.910   0.695   8.996 -0.2102 -0.7315 -0.5788
14545SOL    HW144768   4.951   0.610   9.013 -0.0816 -0.8813 -1.5946
14545SOL    HW244769   4.888   0.693   8.903  2.7563  1.5987 -1.4840
14546SOL     OW44770   2.285   8.932   5.900  0.2472 -0.1167 -0.2988
14546SOL    HW144771   2.358   8.872   5.909  1.2285  1.2891  2.7363
14546SOL    HW244772   2.211   8.888   5.943  1.0672  0.7972  2.2864
14547SOL     OW44773   8.973   6.714   7.669 -0.3157 -0.2884  0.0017
14547SOL    HW144774   8.990   6.808   7.671  1.5191 -0.5993  0.8128
14547SOL    HW244775   8.958   6.690   7.760  0.2374 -0.9462 -0.0746
14548SOL     OW44776   1.600   3.979   0.078  0.0007 -0.4952 -0.3668
14548SOL    HW144777   1.643   4.064   0.079 -0.9284  0.0039 -1.2603
14548SOL    HW244778   1.606   3.950  -0.013 -0.3828 -1.0189 -0.2316
14549SOL     OW44779   1.833   0.412   8.940 -0.1593  0.2240  0.2916
14549SOL    HW144780   1.819   0.505   8.959 -0.2501  0.1791  0.4457
14549SOL    HW244781   1.776   0.366   9.002  0.3923  0.0454  0.6723
14550SOL     OW44782   0.513   1.414   0.715 -0.3683 -0.0513  0.9077
14550SOL    HW144783   0.436   1.452   0.756  0.1197  0.2956  1.5054
14550SOL    HW244784   0.578   1.407   0.785 -0.1654 -1.2219  0.6383
14551SOL     OW44785   3.128   6.653   2.977 -0.5315 -0.3961 -0.1376
14551SOL    HW144786   3.223   6.645   2.980 -0.4157  0.6097 -0.6472
14551SOL    HW244787   3.107   6.717   3.045 -1.1438 -2.6040  1.8959
14552SOL     OW44788   8.571   6.599   6.195  0.2776  0.1501  0.4862
14552SOL    HW144789   8.569   6.585   6.289  2.3366 -0.9411  0.4350
14552SOL    HW244790   8.546   6.691   6.183 -0.9286  0.0437  1.9848
14553SOL     OW44791   0.559   2.038   8.791 -0.3820  0.9842  0.2166
14553SOL    HW144792   0.641   2.017   8.746  0.2252  0.4054  1.5223
14553SOL    HW244793   0.492   2.029   8.724  0.3475 -0.9460 -0.3512
14554SOL     OW44794   4.620   1.213   7.781  0.1553  0.0878 -0.0444
14554SOL    HW144795   4.671   1.293   7.785  0.3038 -0.0727  2.2336
14554SOL    HW244796   4.672   1.148   7.827 -0.9816 -0.7417  0.1282
14555SOL     OW44797   1.959   3.975   6.958  0.0129 -0.1904 -0.4577
14555SOL    HW144798   1.875   3.940   6.987 -0.4422  0.0496 -1.4471
14555SOL    HW244799   1.938   4.059   6.917  0.8288  0.2305 -0.0437
14556SOL     OW44800   3.472   1.500   1.855  0.5015 -0.5646  0.1198
14556SOL    HW144801   3.491   1.587   1.890  1.5104 -0.5482 -0.4421
14556SOL    HW244802   3.379   1.486   1.875  0.9500 -0.4667  2.5499
14557SOL     OW44803   4.736   2.205   7.363  0.1777 -0.0620  0.2169
14557SOL    HW144804   4.688   2.160   7.432 -0.2191 -0.1232 -0.0930
14557SOL    HW244805   4.676   2.204   7.288  0.2404  0.8053  0.1464
14558SOL     OW44806   8.782   0.883   4.419 -0.0215 -0.2163 -0.0026
14558SOL    HW144807   8.730   0.939   4.477  0.0582  0.7956 -0.8817
14558SOL    HW244808   8.816   0.814   4.476 -1.9627 -0.6590  0.6906
14559SOL     OW44809   7.380   4.981   2.887 -0.3476  0.3228  0.1611
14559SOL    HW144810   7.455   4.922   2.874  0.0215  1.0103 -0.9681
14559SOL    HW244811   7.408   5.041   2.956  0.3405  0.8589 -0.5603
14560SOL     OW44812   8.575   4.459   4.941  0.2829 -0.2498 -0.3537
14560SOL    HW144813   8.566   4.401   4.865 -0.6494  0.9901 -1.2336
14560SOL    HW244814   8.663   4.496   4.932  1.3926 -2.4135  0.9155
14561SOL     OW44815   1.400   4.777   6.856  0.3314  0.2627 -0.7483
14561SOL    HW144816   1.442   4.748   6.775  0.1369  1.2673 -1.2226
14561SOL    HW244817   1.327   4.716   6.869 -0.3615  0.8027 -1.9822
14562SOL     OW44818   4.545   1.706   0.424  0.6065 -0.0532  0.5339
14562SOL    HW144819   4.597   1.698   0.344  1.8140  0.3509  1.2525
14562SOL    HW244820   4.458   1.675   0.399  1.4552 -1.8461 -0.4393
14563SOL     OW44821   4.920   7.425   9.005 -0.0150  0.1523 -0.1582
14563SOL    HW144822   4.914   7.483   8.929 -1.3263  1.6832  1.0244
14563SOL    HW244823   4.901   7.338   8.971 -2.2184  1.0244 -1.3692
14564SOL     OW44824   7.757   2.320   2.396  0.1325 -0.6727  0.4040
14564SOL    HW144825   7.797   2.336   2.311 -2.0069  1.1778 -0.3386
14564SOL    HW244826   7.700   2.244   2.382  0.2645 -0.7702  0.3869
14565SOL     OW44827   2.671   5.021   7.113 -0.0250 -0.1997  0.3324
14565SOL    HW144828   2.618   5.038   7.035 -0.7076  1.4550  1.0984
14565SOL    HW244829   2.752   4.984   7.079 -0.5366 -0.0630 -1.1231
14566SOL     OW44830   1.028   2.464   4.238  0.0537 -0.2743  0.4842
14566SOL    HW144831   1.018   2.452   4.143  1.4287 -0.7156  0.3836
14566SOL    HW244832   0.970   2.538   4.258  1.1775  1.0844 -1.0266
14567SOL     OW44833   7.576   3.251   2.937  0.1969 -0.0819  0.0953
14567SOL    HW144834   7.523   3.236   3.016 -0.1995 -1.1393 -0.3566
14567SOL    HW244835   7.533   3.199   2.869  0.7361  0.5497 -0.7436
14568SOL     OW44836   7.060   4.043   8.262 -0.3889 -0.3029  0.4548
14568SOL    HW144837   7.127   4.039   8.194 -0.9359  0.6844 -0.1729
14568SOL    HW244838   7.101   4.006   8.340  1.2613  1.2849  0.3986
14569SOL     OW44839   1.398   4.873   7.373 -0.6632 -0.0521 -0.4597
14569SOL    HW144840   1.447   4.838   7.298 -0.6931 -2.0480  0.3735
14569SOL    HW244841   1.331   4.929   7.335  0.2666  0.1777 -1.8196
14570SOL     OW44842   6.572   4.580   5.849  0.3937 -0.2431 -0.5166
14570SOL    HW144843   6.656   4.586   5.804 -0.0099  1.7941 -1.0992
14570SOL    HW244844   6.512   4.546   5.782  0.2255  0.7932 -0.9008
14571SOL     OW44845   2.489   2.675   7.474  0.1093  0.5318 -0.7914
14571SOL    HW144846   2.464   2.766   7.491 -0.2129  0.1935  0.6739
14571SOL    HW244847   2.449   2.655   7.389  0.4225  1.8338 -1.2648
14572SOL     OW44848   5.270   5.342   3.680 -0.1366 -0.6385 -0.2423
14572SOL    HW144849   5.249   5.288   3.757  1.4635  0.3386  0.9467
14572SOL    HW244850   5.362   5.321   3.662 -0.6424 -1.2565 -2.2690
14573SOL     OW44851   7.737   8.384   0.137 -0.3577  0.1170 -0.8650
14573SOL    HW144852   7.806   8.448   0.124 -1.4922  1.8488  1.0514
14573SOL    HW244853   7.764   8.336   0.216 -0.8977  0.2385 -0.5980
14574SOL     OW44854   8.317   1.592   0.267  0.8673 -0.2441 -0.3412
14574SOL    HW144855   8.357   1.528   0.325  0.6698 -0.2616 -0.2258
14574SOL    HW244856   8.235   1.616   0.310  0.6227 -0.4095 -0.7140
14575SOL     OW44857   4.794   6.941   0.426  0.3872 -0.2998  0.1337
14575SOL    HW144858   4.849   6.909   0.354 -0.0121  0.1030 -0.3665
14575SOL    HW244859   4.855   6.974   0.491  0.7705 -1.0708  0.1710
14576SOL     OW44860   7.587   6.581   4.054  0.3276  0.3031  0.2306
14576SOL    HW144861   7.589   6.621   3.967  1.3089  1.2746  0.6778
14576SOL    HW244862   7.500   6.540   4.059  0.2031  0.3499 -1.1445
14577SOL     OW44863   1.000   2.706   0.049  0.7383 -0.1091 -0.0615
14577SOL    HW144864   1.077   2.651   0.038  1.8661  1.1317  1.2423
14577SOL    HW244865   0.997   2.761  -0.029 -0.9481 -2.5107 -1.8612
14578SOL     OW44866   0.620   1.572   4.777  0.0465 -0.1098 -0.0236
14578SOL    HW144867   0.555   1.642   4.769  0.8274  0.7720  1.0653
14578SOL    HW244868   0.694   1.613   4.821  1.9416 -0.7098 -2.4593
14579SOL     OW44869   8.364   1.316   1.323  0.4993  0.3897 -0.1920
14579SOL    HW144870   8.341   1.400   1.283  0.1313 -0.1315 -1.1066
14579SOL    HW244871   8.280   1.274   1.342  0.6328  1.0380  2.1056
14580SOL     OW44872   7.560   6.441   6.518 -0.4229  0.3953 -0.4699
14580SOL    HW144873   7.613   6.362   6.508 -0.8003  0.0952 -0.1065
14580SOL    HW244874   7.488   6.415   6.574 -0.7540  0.9032 -0.6513
14581SOL     OW44875   3.995   6.654   6.294 -0.3872 -0.5697  0.0512
14581SOL    HW144876   3.945   6.729   6.325 -1.2760 -1.5937  1.1872
14581SOL    HW244877   3.942   6.617   6.223  0.4053  0.2774 -1.0078
14582SOL     OW44878   5.798   9.069   7.834  0.4880 -0.3028 -0.0820
14582SOL    HW144879   5.847   9.150   7.847 -0.0334 -0.3304  2.8934
14582SOL    HW244880   5.844   9.005   7.888 -0.8092 -1.2121 -0.0179
14583SOL     OW44881   2.895   1.951   7.312  0.2633 -0.4987  0.8889
14583SOL    HW144882   2.820   1.898   7.284  0.0431  0.6771 -0.9361
14583SOL    HW244883   2.970   1.907   7.272  0.2461 -0.2493  0.5804
14584SOL     OW44884   5.177   3.989   7.975  0.5587 -0.2955  0.3342
14584SOL    HW144885   5.187   3.968   8.068  0.3433 -1.7106  0.0575
14584SOL    HW244886   5.111   3.928   7.943  0.8774 -0.0634 -0.8250
14585SOL     OW44887   7.671   0.087   0.814 -0.1164 -0.3975  0.2300
14585SOL    HW144888   7.694   0.149   0.882 -1.1124 -0.7763  0.9321
14585SOL    HW244889   7.633   0.141   0.744  1.9849  0.1303 -0.5771
14586SOL     OW44890   8.090   1.068   4.734 -0.2717  0.0178 -0.1557
14586SOL    HW144891   8.060   1.037   4.820  0.1190  1.0606  0.3726
14586SOL    HW244892   8.081   0.992   4.677 -1.1642 -0.5147  0.6537
14587SOL     OW44893   4.915   5.114   3.239  0.8551 -0.5350 -0.0293
14587SOL    HW144894   4.854   5.084   3.172  1.3902  0.2936 -0.9195
14587SOL    HW244895   4.862   5.166   3.298  0.4265 -1.0497  0.0468
14588SOL     OW44896   7.636   7.340   8.033 -0.3196  0.1817  0.6965
14588SOL    HW144897   7.566   7.275   8.029 -1.6990  1.6707 -1.3602
14588SOL    HW244898   7.717   7.290   8.022 -1.4098 -1.1181 -2.2963
14589SOL     OW44899   0.401   0.001   7.563  0.1183  0.0828 -0.0459
14589SOL    HW144900   0.474   0.021   7.622 -0.8414  0.7249  0.9449
14589SOL    HW244901   0.421   0.051   7.483  0.2261  1.1357  0.6177
14590SOL     OW44902   3.351   3.903   3.134  0.5117  0.3327  0.1577
14590SOL    HW144903   3.329   3.994   3.156 -2.8026 -0.2518 -0.2787
14590SOL    HW244904   3.354   3.858   3.219 -1.7105  0.1678  0.2104
14591SOL     OW44905   9.005   6.528   4.580 -0.1256  0.1312 -0.1909
14591SOL    HW144906   9.051   6.490   4.505 -0.6189  2.1173 -1.6021
14591SOL    HW244907   8.934   6.466   4.599  1.2582 -1.4448  0.0435
14592SOL     OW44908   1.216   1.805   7.059 -0.4256 -0.2539 -0.4285
14592SOL    HW144909   1.309   1.780   7.061 -0.6447 -1.0571  0.4594
14592SOL    HW244910   1.209   1.876   7.123 -0.3277  0.1582 -0.8751
14593SOL     OW44911   7.869   1.749   2.076  0.1677  0.1380  0.0270
14593SOL    HW144912   7.901   1.703   2.153  0.5025  1.9326  1.0203
14593SOL    HW244913   7.936   1.732   2.009 -0.6962 -2.3907 -0.3134
14594SOL     OW44914   5.983   2.833   5.511 -0.3047 -0.6714  0.2163
14594SOL    HW144915   5.939   2.909   5.473 -0.1846 -0.6008  0.2173
14594SOL    HW244916   5.915   2.789   5.562 -0.8306 -1.5559 -1.1963
14595SOL     OW44917   8.704   7.841   5.571  0.7476 -0.8896  0.4485
14595SOL    HW144918   8.774   7.777   5.560  1.1936 -0.9900  3.1265
14595SOL    HW244919   8.738   7.903   5.637  0.1523  1.8847 -1.6434
14596SOL     OW44920   2.264   7.147   5.462 -0.0834  0.2765 -0.1227
14596SOL    HW144921   2.171   7.148   5.443 -0.1402  2.1140  0.0772
14596SOL    HW244922   2.279   7.065   5.509 -1.1446 -1.1798 -2.1617
14597SOL     OW44923   1.488   6.613   5.307  0.5542  0.3754  0.2375
14597SOL    HW144924   1.499   6.708   5.317  1.4336  0.2583  0.4398
14597SOL    HW244925   1.537   6.576   5.380 -0.5395 -0.2148  0.6874
14598SOL     OW44926   1.831   9.022   1.684  0.4234 -0.5160  0.5461
14598SOL    HW144927   1.797   9.017   1.773 -1.3401 -2.1158 -0.1480
14598SOL    HW244928   1.753   9.029   1.629  1.3745 -1.3375 -0.9669
14599SOL     OW44929   0.314   2.250   0.269 -0.1335  0.2483  0.1965
14599SOL    HW144930   0.241   2.312   0.275  1.2670  1.8727  1.6144
14599SOL    HW244931   0.386   2.294   0.314  1.5088 -1.6280 -0.4644
14600SOL     OW44932   6.097   0.430   1.050  0.1154  0.1237  0.4029
14600SOL    HW144933   6.108   0.372   0.975  2.0369 -0.3285  0.9637
14600SOL    HW244934   6.186   0.459   1.071 -0.4153  0.6259  2.1983
14601SOL     OW44935   6.079   1.780   4.610  0.3719 -0.2078 -0.4818
14601SOL    HW144936   6.003   1.822   4.650  0.5824  1.4049 -1.6946
14601SOL    HW244937   6.067   1.792   4.516  2.5124  0.8406 -0.6851
14602SOL     OW44938   7.330   8.500   2.915  0.1262 -0.0708  0.4966
14602SOL    HW144939   7.305   8.492   3.007  2.1750 -2.4399  0.9497
14602SOL    HW244940   7.395   8.431   2.902  0.1511  0.4238 -2.6654
14603SOL     OW44941   1.122   7.412   2.318 -0.2463  0.0440 -0.2455
14603SOL    HW144942   1.140   7.468   2.394  0.6960 -1.2109  0.5073
14603SOL    HW244943   1.103   7.326   2.356 -0.8191 -0.3614 -1.4027
14604SOL     OW44944   0.053   5.303   8.516 -0.3728 -0.4934  0.2374
14604SOL    HW144945   0.074   5.220   8.559 -1.1717 -0.3230  0.9883
14604SOL    HW244946   0.019   5.278   8.431  0.1318 -0.8953  0.1475
14605SOL     OW44947   7.662   4.394   1.417  0.3548  0.2426 -0.1554
14605SOL    HW144948   7.623   4.340   1.349  0.2523 -2.7498  2.0672
14605SOL    HW244949   7.589   4.440   1.458 -0.1926 -1.3025  0.6509
14606SOL     OW44950   0.454   5.259   8.956 -0.3939 -0.1533 -0.3792
14606SOL    HW144951   0.470   5.340   9.004 -0.0298 -0.5990  0.2657
14606SOL    HW244952   0.412   5.201   9.019  1.4771 -1.2878 -0.1008
14607SOL     OW44953   7.158   3.451   7.801  0.0292  0.3638 -0.1750
14607SOL    HW144954   7.123   3.540   7.802 -0.3584  0.2382 -1.0057
14607SOL    HW244955   7.194   3.441   7.713  2.1982  0.4777  0.6420
14608SOL     OW44956   4.001   2.995   4.954 -0.1383 -0.2242  0.4749
14608SOL    HW144957   3.933   3.047   4.912 -1.2471 -0.6283  1.6850
14608SOL    HW244958   3.999   3.022   5.046  2.0175  0.4302  0.3879
14609SOL     OW44959   7.139   6.415   4.588 -0.4168  0.0521 -0.0142
14609SOL    HW144960   7.057   6.414   4.637 -1.1449 -0.1347 -1.2092
14609SOL    HW244961   7.165   6.507   4.588 -1.2285  0.2912 -0.5929
14610SOL     OW44962   4.668   1.140   5.233  0.1928 -0.4217  0.0297
14610SOL    HW144963   4.592   1.109   5.183  0.1287 -0.9246  0.4277
14610SOL    HW244964   4.673   1.233   5.214 -0.6495 -0.3398  0.1564
14611SOL     OW44965   3.163   5.619   4.301 -0.6889  0.2668 -0.2415
14611SOL    HW144966   3.161   5.677   4.224 -1.5322  0.1258 -0.3246
14611SOL    HW244967   3.109   5.544   4.277 -1.0095  0.2493  0.5189
14612SOL     OW44968   1.995   5.475   8.697 -0.2607  0.4674  0.5166
14612SOL    HW144969   1.903   5.481   8.724  0.3337  0.8634  2.6022
14612SOL    HW244970   2.027   5.565   8.704  0.9678 -0.0835  2.4988
14613SOL     OW44971   0.554   6.904   0.764  0.1996 -0.3881 -0.0272
14613SOL    HW144972   0.579   6.892   0.855 -0.9850  0.5113  0.4546
14613SOL    HW244973   0.458   6.904   0.766  0.0316  3.2700 -0.6625
14614SOL     OW44974   3.939   3.547   7.101  0.3832 -0.4513 -0.2734
14614SOL    HW144975   3.884   3.522   7.027  2.8172 -0.7248 -2.1177
14614SOL    HW244976   3.878   3.553   7.175 -1.9426 -1.5584 -1.9589
14615SOL     OW44977   2.117   3.904   6.015 -0.0907  0.2241 -0.4427
14615SOL    HW144978   2.054   3.899   5.943 -0.9340 -0.4254  0.3280
14615SOL    HW244979   2.157   3.991   6.006 -0.7719  0.4666 -1.2044
14616SOL     OW44980   0.365   8.040   6.813 -0.7229  0.3610 -0.3634
14616SOL    HW144981   0.305   8.097   6.765 -0.1004  0.7449 -0.6950
14616SOL    HW244982   0.355   7.954   6.773  0.7868  0.9462 -2.1488
14617SOL     OW44983   0.775   4.060   5.118  0.3325  0.8895 -0.2375
14617SOL    HW144984   0.860   4.088   5.151  0.8117 -0.0759 -0.5910
14617SOL    HW244985   0.745   4.132   5.064  0.5650  1.5612  0.5079
14618SOL     OW44986   7.212   7.736   4.282 -0.7788 -0.5169 -0.6145
14618SOL    HW144987   7.223   7.803   4.215 -2.0127  0.3422  0.0025
14618SOL    HW244988   7.132   7.761   4.328  0.4223 -0.6615  1.6637
14619SOL     OW44989   1.172   3.837   1.338 -0.1517 -0.2596 -0.3539
14619SOL    HW144990   1.108   3.845   1.409  0.9738 -0.9692  0.7878
14619SOL    HW244991   1.254   3.868   1.376  0.3463 -0.0305 -1.5707
14620SOL     OW44992   8.066   7.930   6.374  0.2175  0.2866  0.1992
14620SOL    HW144993   7.971   7.943   6.368 -0.3365 -1.7343  2.7065
14620SOL    HW244994   8.100   8.014   6.406 -0.4081  1.6127 -2.4024
14621SOL     OW44995   2.218   8.967   7.009 -0.3618 -0.0487  0.3594
14621SOL    HW144996   2.262   8.968   7.094  1.4334 -0.3749 -0.5163
14621SOL    HW244997   2.260   8.896   6.961 -2.1675 -0.6446 -0.4129
14622SOL     OW44998   2.253   3.641   3.344 -0.8814 -0.0515 -0.1422
14622SOL    HW144999   2.223   3.728   3.370  1.7034  0.2801  2.1511
14622SOL    HW245000   2.184   3.582   3.373 -1.3815  1.0009  0.8808
14623SOL     OW45001   7.413   0.773   6.779  0.6458 -0.3540  0.1484
14623SOL    HW145002   7.410   0.682   6.807  0.8370  0.1328  1.8698
14623SOL    HW245003   7.333   0.812   6.813  1.1467  0.4021  0.5050
14624SOL     OW45004   8.606   1.566   2.935 -0.4313 -0.1367  0.4055
14624SOL    HW145005   8.584   1.659   2.932  0.0730 -0.0085 -2.3826
14624SOL    HW245006   8.521   1.521   2.938 -0.6688  0.3317  3.4213
14625SOL     OW45007   7.404   2.454   0.915 -0.2511 -0.7028  0.0782
14625SOL    HW145008   7.365   2.404   0.844 -3.5557 -1.2025  2.0221
14625SOL    HW245009   7.448   2.389   0.969  0.2676 -0.6521 -0.2748
14626SOL     OW45010   3.453   5.545   4.840 -0.0845  0.0811 -0.2923
14626SOL    HW145011   3.384   5.568   4.778 -0.8681  0.0051  0.5134
14626SOL    HW245012   3.457   5.619   4.900 -1.6319 -1.1552  1.4711
14627SOL     OW45013   5.716   8.572   0.957  0.6090  0.1961 -0.3479
14627SOL    HW145014   5.792   8.515   0.953 -0.5519 -1.5546  0.8498
14627SOL    HW245015   5.645   8.515   0.986 -0.5764  2.3047  1.2494
14628SOL     OW45016   6.048   6.226   5.825 -0.3235 -0.4190 -0.1615
14628SOL    HW145017   6.034   6.247   5.733 -1.2610 -1.1131 -0.1904
14628SOL    HW245018   6.053   6.131   5.827 -1.5867 -0.5003  0.6431
14629SOL     OW45019   5.905   7.770   7.377 -0.1133 -0.3297 -0.2934
14629SOL    HW145020   5.965   7.732   7.442 -1.9227 -0.8137  1.1872
14629SOL    HW245021   5.945   7.854   7.354  0.2899  0.2038  2.0363
14630SOL     OW45022   3.560   3.875   0.414 -0.3544 -0.2092 -0.2555
14630SOL    HW145023   3.518   3.889   0.498 -0.8292 -0.0188 -0.5202
14630SOL    HW245024   3.515   3.798   0.377  0.8097 -1.1747  0.2753
14631SOL     OW45025   8.504   3.339   6.273 -0.1365 -0.1828 -0.0274
14631SOL    HW145026   8.565   3.413   6.278 -0.9704  0.6736 -1.7503
14631SOL    HW245027   8.422   3.377   6.241 -0.6357 -1.8394 -0.8395
14632SOL     OW45028   4.608   3.913   2.538 -0.3576  0.1901 -0.3235
14632SOL    HW145029   4.624   3.977   2.468  0.0373 -0.1029 -0.5074
14632SOL    HW245030   4.633   3.829   2.499 -0.3181  0.0007  0.1077
14633SOL     OW45031   4.493   4.646   2.682  0.0766 -0.2616 -0.1918
14633SOL    HW145032   4.544   4.618   2.607  0.4982  0.5219 -0.2050
14633SOL    HW245033   4.517   4.585   2.752 -1.3057 -1.8339 -1.0132
14634SOL     OW45034   1.899   1.383   9.050  0.2418  0.8301  0.2432
14634SOL    HW145035   1.820   1.437   9.055  0.9812  1.8375  2.0781
14634SOL    HW245036   1.958   1.421   9.115  1.8698 -0.5097 -0.3769
14635SOL     OW45037   2.093   4.951   8.438  0.1003 -0.4249 -0.3806
14635SOL    HW145038   2.125   4.973   8.525  0.5346 -0.5065 -0.5181
14635SOL    HW245039   2.019   5.010   8.424  0.3639 -0.0419 -0.1730
14636SOL     OW45040   5.600   1.505   2.049  0.2462 -0.2633 -0.4445
14636SOL    HW145041   5.514   1.511   2.090  0.7612  0.2879  0.6051
14636SOL    HW245042   5.621   1.411   2.051 -1.4312 -0.7904 -3.1585
14637SOL     OW45043   5.654   0.972   8.365 -0.1751  0.0616 -0.1867
14637SOL    HW145044   5.589   1.010   8.306  0.6830  0.1557 -1.0991
14637SOL    HW245045   5.671   1.041   8.429 -0.8967  0.0716 -0.0051
14638SOL     OW45046   2.395   6.392   1.091 -0.3145 -0.4575  0.5475
14638SOL    HW145047   2.350   6.439   1.021 -0.0635  0.4374  0.9656
14638SOL    HW245048   2.483   6.377   1.058  0.7342  2.4801  1.6547
14639SOL     OW45049   8.078   4.336   3.039 -0.3035  0.4381 -0.5104
14639SOL    HW145050   8.126   4.294   2.967  0.9246  0.6608  0.1564
14639SOL    HW245051   8.116   4.424   3.045 -0.3531  0.4069  0.4255
14640SOL     OW45052   0.317   4.766   5.081 -0.1652 -0.2222  0.4295
14640SOL    HW145053   0.238   4.746   5.132 -1.4590 -0.6305 -1.5724
14640SOL    HW245054   0.312   4.705   5.007  0.9321  1.1349 -0.8217
14641SOL     OW45055   1.401   6.314   8.972 -0.1096 -0.0631  0.9130
14641SOL    HW145056   1.468   6.306   8.904 -0.2668  0.3425  0.7087
14641SOL    HW245057   1.351   6.232   8.966 -0.5185  0.2355  0.1189
14642SOL     OW45058   8.187   3.883   8.208  0.2493 -0.1898  0.1447
14642SOL    HW145059   8.199   3.831   8.287  1.6228 -0.7419 -0.4037
14642SOL    HW245060   8.097   3.864   8.181 -0.6433  0.8899  2.1545
14643SOL     OW45061   0.314   8.153   2.107  0.6562 -0.1402 -0.6008
14643SOL    HW145062   0.232   8.167   2.153  0.8824 -1.8814  0.4300
14643SOL    HW245063   0.290   8.101   2.029  0.5202  1.2226 -1.4962
14644SOL     OW45064   8.298   9.029   8.071  0.1070  0.5299  0.1160
14644SOL    HW145065   8.291   9.070   8.158 -2.2595  0.7636 -0.1237
14644SOL    HW245066   8.286   8.936   8.088  1.1188  0.4054  0.1837
14645SOL     OW45067   5.460   0.868   5.269 -0.4281 -0.3927  0.3300
14645SOL    HW145068   5.523   0.810   5.311 -1.4776 -0.6895  1.5374
14645SOL    HW245069   5.375   0.826   5.282 -1.1553  1.1274  0.8159
14646SOL     OW45070   1.279   8.062   8.163 -0.1644  0.0715  0.0247
14646SOL    HW145071   1.323   8.131   8.212  1.7457 -0.8862 -0.2675
14646SOL    HW245072   1.208   8.033   8.220  0.0512  1.1176  0.8534
14647SOL     OW45073   7.652   3.154   1.707 -0.1532 -0.5036  0.4853
14647SOL    HW145074   7.728   3.098   1.693  0.1888  0.0424  0.1478
14647SOL    HW245075   7.622   3.132   1.795  1.0076  0.0027  1.0208
14648SOL     OW45076   4.955   1.616   1.452 -0.0561 -0.1534 -0.5238
14648SOL    HW145077   4.879   1.673   1.451 -0.5342 -0.7852 -1.1957
14648SOL    HW245078   4.996   1.630   1.366 -0.3403 -1.0382 -0.8040
14649SOL     OW45079   5.511   8.179   6.932  0.6311  0.2871 -0.2758
14649SOL    HW145080   5.567   8.161   7.008  0.7982 -0.1378 -0.4947
14649SOL    HW245081   5.456   8.101   6.925  0.4585  0.4259 -0.4541
14650SOL     OW45082   4.269   2.846   5.019 -0.0906 -0.2714 -0.0358
14650SOL    HW145083   4.362   2.843   5.040  0.2772 -0.4980 -1.5842
14650SOL    HW245084   4.228   2.878   5.099  1.4816  1.3257  0.1999
14651SOL     OW45085   0.235   7.542   1.249 -0.4797 -0.3543  0.0688
14651SOL    HW145086   0.263   7.613   1.308 -1.9088 -0.9162  1.5099
14651SOL    HW245087   0.183   7.484   1.305 -1.7361 -1.0443 -1.7268
14652SOL     OW45088   2.706   1.947   0.106 -0.2393  0.9309  0.0375
14652SOL    HW145089   2.736   1.962   0.017 -0.2602  1.7356  0.1589
14652SOL    HW245090   2.783   1.966   0.160  0.2264 -0.9892  0.1283
14653SOL     OW45091   6.963   3.837   3.960 -0.5694 -0.5751 -0.3157
14653SOL    HW145092   7.039   3.783   3.937  1.2837  2.3388 -1.6498
14653SOL    HW245093   6.981   3.866   4.049 -1.1133 -1.3972  0.0707
14654SOL     OW45094   5.084   1.235   4.506  0.0217 -0.2833 -0.0689
14654SOL    HW145095   5.178   1.251   4.515  0.1465 -0.6092 -0.6850
14654SOL    HW245096   5.078   1.140   4.496 -0.6329 -0.6252  2.8501
14655SOL     OW45097   0.695   8.717   0.761 -0.1401  0.3420 -0.3729
14655SOL    HW145098   0.717   8.670   0.681 -0.1540  2.0816 -1.4440
14655SOL    HW245099   0.778   8.724   0.809 -0.1955 -0.9943 -0.0295
14656SOL     OW45100   1.879   0.533   4.362 -0.2449  0.6030 -0.4228
14656SOL    HW145101   1.932   0.571   4.292  0.4337  0.4898  0.0170
14656SOL    HW245102   1.936   0.469   4.404 -0.6633  0.6130  0.1862
14657SOL     OW45103   3.505   7.449   0.873  0.0564  0.1418 -0.2047
14657SOL    HW145104   3.488   7.366   0.917 -2.5454  0.8087  0.1916
14657SOL    HW245105   3.578   7.487   0.922 -0.7464 -0.5266  1.5946
14658SOL     OW45106   7.302   5.626   2.384  0.7972 -0.1907 -0.0331
14658SOL    HW145107   7.374   5.682   2.413 -0.7562  0.6652  2.5871
14658SOL    HW245108   7.323   5.539   2.419  0.3693  0.1888  1.2584
14659SOL     OW45109   0.656   5.520   7.626  0.3601  0.1240 -0.2699
14659SOL    HW145110   0.621   5.548   7.710 -0.5759 -1.2017 -0.1854
14659SOL    HW245111   0.638   5.593   7.566  0.4426  0.8001  0.5151
14660SOL     OW45112   7.409   3.476   2.514  0.8731 -0.7811 -0.3595
14660SOL    HW145113   7.320   3.441   2.525  0.4368  0.4964  0.3415
14660SOL    HW245114   7.434   3.449   2.425  0.1068 -1.8419 -0.2756
14661SOL     OW45115   4.306   1.974   5.514 -0.0728  0.3885 -0.4338
14661SOL    HW145116   4.390   2.019   5.515 -1.0230  2.2565  0.7623
14661SOL    HW245117   4.253   2.023   5.451 -0.2306 -0.9131 -1.3610
14662SOL     OW45118   3.521   8.673   2.115  0.4708  0.2079  0.4093
14662SOL    HW145119   3.612   8.646   2.109 -0.1205 -2.2031  1.1324
14662SOL    HW245120   3.480   8.607   2.171 -1.8112  0.9617 -0.2547
14663SOL     OW45121   1.577   8.518   7.269  0.2620 -0.0474  0.4897
14663SOL    HW145122   1.614   8.431   7.283  1.7847  0.4244 -0.3779
14663SOL    HW245123   1.646   8.578   7.298  0.0878  0.8738 -0.9326
14664SOL     OW45124   5.975   8.023   5.756 -0.2477  0.0929 -0.4012
14664SOL    HW145125   5.972   8.116   5.735 -2.7953  0.2023  0.1072
14664SOL    HW245126   5.966   7.978   5.672  1.6100  0.2237 -0.7227
14665SOL     OW45127   8.882   4.426   5.145 -0.7724 -0.4253 -0.0980
14665SOL    HW145128   8.861   4.515   5.115  0.8019  0.5206  1.3571
14665SOL    HW245129   8.921   4.384   5.068 -2.2472 -0.1639 -1.0349
14666SOL     OW45130   4.056   2.634   6.302 -0.1227  0.4646  0.1400
14666SOL    HW145131   4.075   2.595   6.217  1.2205  0.5071  0.4071
14666SOL    HW245132   3.961   2.645   6.302 -0.0934  1.0217 -1.5921
14667SOL     OW45133   8.615   2.554   1.985 -0.9440 -0.6799  0.1785
14667SOL    HW145134   8.679   2.491   1.954  1.1243  1.1666  0.4244
14667SOL    HW245135   8.667   2.622   2.028 -2.8627  1.9008 -1.2773
14668SOL     OW45136   7.924   7.494   6.101  0.3543  0.2603  0.0401
14668SOL    HW145137   7.851   7.507   6.162  1.5716 -1.6306  2.0324
14668SOL    HW245138   7.906   7.409   6.060  2.3392 -1.2350  2.0603
14669SOL     OW45139   7.585   6.138   8.519  0.2821 -0.0017 -0.5350
14669SOL    HW145140   7.584   6.143   8.423 -1.2267  1.0835 -0.5091
14669SOL    HW245141   7.501   6.175   8.545  0.9308  0.3155  1.2436
14670SOL     OW45142   8.570   8.931   2.772 -0.3615  0.0880  0.0436
14670SOL    HW145143   8.577   8.851   2.824  0.5650  1.2131  1.7667
14670SOL    HW245144   8.628   8.916   2.697 -0.6974 -1.0770 -0.0035
14671SOL     OW45145   3.708   8.936   6.265  0.9664 -0.0624 -0.1258
14671SOL    HW145146   3.687   8.968   6.353 -2.4307 -1.8094 -0.1588
14671SOL    HW245147   3.704   9.015   6.210 -2.8317  0.3386  0.4674
14672SOL     OW45148   3.727   4.021   3.931  0.9699 -0.0014  0.2504
14672SOL    HW145149   3.656   4.080   3.958  1.1312  0.1179  0.4151
14672SOL    HW245150   3.690   3.972   3.857  1.2607  1.2258 -0.7457
14673SOL     OW45151   5.295   3.547   0.772 -0.5804 -0.0169 -0.4206
14673SOL    HW145152   5.307   3.494   0.850 -0.4074 -0.2705 -0.6158
14673SOL    HW245153   5.260   3.486   0.707 -1.5170  0.3789 -0.2988
14674SOL     OW45154   4.447   8.813   3.092 -0.4503  0.9387 -0.2555
14674SOL    HW145155   4.365   8.857   3.114 -1.2048  0.0024 -1.1106
14674SOL    HW245156   4.496   8.811   3.174 -0.6642  2.7554 -0.0353
14675SOL     OW45157   5.793   2.205   8.458 -0.7551 -0.6002 -1.2265
14675SOL    HW145158   5.816   2.200   8.365 -0.6240 -2.3669 -1.1303
14675SOL    HW245159   5.787   2.114   8.486 -3.9730 -0.2210 -0.2791
14676SOL     OW45160   1.760   7.695   0.571 -0.6720  0.3738 -0.1612
14676SOL    HW145161   1.689   7.691   0.507 -1.1276 -0.5276  0.3773
14676SOL    HW245162   1.840   7.680   0.520 -1.1520 -1.9251 -0.3490
14677SOL     OW45163   5.472   0.976   4.577  0.1213 -0.8461  0.0951
14677SOL    HW145164   5.421   0.895   4.587 -1.8267  0.1997 -0.9181
14677SOL    HW245165   5.410   1.046   4.598  1.6192  0.4306  0.4165
14678SOL     OW45166   0.254   7.782   0.089 -0.1803 -0.2851  0.0272
14678SOL    HW145167   0.331   7.765   0.035 -1.0905 -1.5493 -0.9169
14678SOL    HW245168   0.241   7.877   0.083  1.3486 -0.0298  0.3044
14679SOL     OW45169   6.294   2.891   0.577  0.5463  0.3014 -0.4154
14679SOL    HW145170   6.209   2.898   0.620  0.3073 -0.5811 -0.7224
14679SOL    HW245171   6.309   2.797   0.570  1.4342  0.4490 -0.5952
14680SOL     OW45172   7.785   7.659   0.237 -0.4959  0.3057 -0.0631
14680SOL    HW145173   7.708   7.608   0.262 -0.0758 -0.6263 -0.6102
14680SOL    HW245174   7.859   7.610   0.273 -0.1307  1.0493  0.2220
14681SOL     OW45175   5.756   4.668   5.209  0.1844  0.1721  0.1036
14681SOL    HW145176   5.835   4.705   5.248 -0.4247  1.7579 -0.1047
14681SOL    HW245177   5.686   4.727   5.236 -0.9785 -1.2745  0.3955
14682SOL     OW45178   0.333   6.451   7.430 -0.4109  0.1222 -0.2322
14682SOL    HW145179   0.344   6.468   7.524 -0.5173  0.7820 -0.3355
14682SOL    HW245180   0.420   6.467   7.393 -0.4932  0.3967 -0.3169
14683SOL     OW45181   4.089   1.086   5.536 -0.4604 -0.1149  0.6314
14683SOL    HW145182   4.025   1.157   5.523 -0.4373 -0.3779 -1.1221
14683SOL    HW245183   4.049   1.010   5.495  1.2819 -0.0984 -1.2153
14684SOL     OW45184   2.494   1.986   8.182 -0.1021 -0.6327 -0.0243
14684SOL    HW145185   2.513   1.906   8.132  2.0163 -0.9861  1.1945
14684SOL    HW245186   2.412   1.968   8.227 -0.9398 -1.1231 -1.6514
14685SOL     OW45187   5.297   4.218   3.503 -0.1158 -0.2652 -0.3782
14685SOL    HW145188   5.356   4.142   3.493  0.9953  0.6564 -1.0556
14685SOL    HW245189   5.343   4.289   3.459 -0.0396  1.3931  2.2013
14686SOL     OW45190   7.003   0.066   3.706  0.1752  0.4601  0.6151
14686SOL    HW145191   7.097   0.057   3.688  0.3225  1.2245  0.9558
14686SOL    HW245192   6.994   0.154   3.743 -0.3473 -0.4211  2.6960
14687SOL     OW45193   3.326   3.862   7.392 -0.8442 -0.2897 -0.0011
14687SOL    HW145194   3.313   3.902   7.478 -0.6260 -0.4272  0.0973
14687SOL    HW245195   3.340   3.935   7.332 -3.5873  0.0208 -0.4251
14688SOL     OW45196   1.579   5.682   3.294 -0.4612  0.7210  0.1626
14688SOL    HW145197   1.554   5.772   3.272  0.1520  0.4465 -1.8811
14688SOL    HW245198   1.521   5.628   3.240  0.6229 -0.0382 -0.2753
14689SOL     OW45199   8.565   5.938   1.631 -0.1444  0.1505 -0.2422
14689SOL    HW145200   8.641   5.924   1.687 -0.6519  2.3010  1.0901
14689SOL    HW245201   8.579   6.025   1.594 -1.6753  0.3294 -0.4342
14690SOL     OW45202   8.367   0.751   1.835 -0.4396 -0.3854  0.3863
14690SOL    HW145203   8.283   0.711   1.810  0.4791 -2.4405  0.3373
14690SOL    HW245204   8.369   0.834   1.787 -2.1585 -0.5780 -0.0986
14691SOL     OW45205   4.246   1.262   4.584 -0.1876  0.2243 -0.2053
14691SOL    HW145206   4.338   1.288   4.596  1.2550 -2.4581 -3.8610
14691SOL    HW245207   4.220   1.303   4.502 -0.8951 -2.1370 -1.2411
14692SOL     OW45208   5.645   1.187   0.528 -0.1782 -0.2433  0.4971
14692SOL    HW145209   5.706   1.140   0.584 -0.5522 -1.9013 -0.4065
14692SOL    HW245210   5.655   1.145   0.442 -0.9266  0.9925 -0.2168
14693SOL     OW45211   8.197   5.264   5.889 -0.0866 -0.2172  0.3524
14693SOL    HW145212   8.230   5.177   5.911 -0.2829 -0.3989 -0.0608
14693SOL    HW245213   8.201   5.267   5.794 -1.2257 -0.2246  0.2946
14694SOL     OW45214   7.116   6.363   8.549 -0.2301 -0.3197 -0.8591
14694SOL    HW145215   7.031   6.323   8.568 -0.0899  0.2099  1.0213
14694SOL    HW245216   7.107   6.395   8.459 -1.3462 -1.9237 -1.3635
14695SOL     OW45217   3.916   2.299   7.284  0.0951  0.7603 -0.2357
14695SOL    HW145218   3.821   2.307   7.288 -0.1336 -1.5685  0.2609
14695SOL    HW245219   3.932   2.229   7.220  1.4858  1.2001 -0.4080
14696SOL     OW45220   7.778   7.463   2.274 -0.0815  0.0434 -0.0578
14696SOL    HW145221   7.698   7.418   2.302 -0.3005  0.8352  0.6297
14696SOL    HW245222   7.848   7.399   2.289 -0.7084 -1.1848 -1.9920
14697SOL     OW45223   3.228   7.261   2.034 -0.3273 -0.1142 -0.1970
14697SOL    HW145224   3.307   7.311   2.012  0.6079 -0.3449  2.3042
14697SOL    HW245225   3.235   7.181   1.981  1.0672 -0.0660 -0.1326
14698SOL     OW45226   6.571   3.276   5.943 -0.5413 -0.2384  0.3472
14698SOL    HW145227   6.591   3.190   5.906  0.7085  0.3518 -0.4446
14698SOL    HW245228   6.651   3.327   5.926 -1.7876  1.5058 -0.5172
14699SOL     OW45229   7.104   1.635   5.795  0.0713  0.6002  0.0360
14699SOL    HW145230   7.193   1.636   5.831 -0.0505  1.5360  0.3300
14699SOL    HW245231   7.054   1.691   5.855 -1.0074 -0.9224  0.6072
14700SOL     OW45232   2.467   0.116   3.129 -0.6348  0.3919 -0.2458
14700SOL    HW145233   2.481   0.024   3.150 -0.0751  0.5175 -0.0404
14700SOL    HW245234   2.372   0.124   3.117 -0.7226 -0.1370  0.0664
14701SOL     OW45235   2.093   8.236   3.542  0.1128  0.2964 -0.0249
14701SOL    HW145236   2.188   8.227   3.548  0.1193 -0.3141 -0.8807
14701SOL    HW245237   2.073   8.218   3.450 -0.9802 -1.0553  0.4419
14702SOL     OW45238   4.312   1.892   4.122 -0.0463 -0.0297  0.2247
14702SOL    HW145239   4.236   1.908   4.178 -0.4200 -1.5235  0.1886
14702SOL    HW245240   4.331   1.799   4.133  1.1058  0.0794 -0.6194
14703SOL     OW45241   4.530   3.303   3.221  0.7697  0.1306  0.2652
14703SOL    HW145242   4.561   3.224   3.178  1.1534  0.5910 -0.3376
14703SOL    HW245243   4.443   3.282   3.253  0.4836 -0.2382 -0.7386
14704SOL     OW45244   0.178   3.213   5.383 -0.1947 -0.3223  0.0984
14704SOL    HW145245   0.089   3.179   5.374  0.2554 -1.5934  0.2436
14704SOL    HW245246   0.203   3.191   5.473  0.7388 -1.2139 -0.3580
14705SOL     OW45247   7.713   7.763   2.364 -0.4901 -0.6208  0.5267
14705SOL    HW145248   7.690   7.847   2.324 -0.1543 -0.3348  0.9325
14705SOL    HW245249   7.716   7.702   2.290  0.2252 -0.0748  0.0828
14706SOL     OW45250   3.907   8.123   4.967 -0.2701  0.0700 -0.4413
14706SOL    HW145251   3.843   8.119   5.038 -1.0916  3.4283 -0.8140
14706SOL    HW245252   3.992   8.113   5.011 -0.8531 -2.8749  0.2486
14707SOL     OW45253   5.272   7.207   1.825  0.2297  0.2428 -0.7649
14707SOL    HW145254   5.303   7.195   1.915  1.7659  1.2969 -1.1255
14707SOL    HW245255   5.338   7.162   1.771  0.7885  1.8807 -1.5035
14708SOL     OW45256   3.886   8.386   0.964 -0.3178 -0.1663  0.6149
14708SOL    HW145257   3.918   8.349   1.046  0.8213 -2.8475 -0.9258
14708SOL    HW245258   3.820   8.324   0.933  0.5087 -0.1530 -1.3136
14709SOL     OW45259   8.188   5.233   4.065  0.2411  0.1430  0.1299
14709SOL    HW145260   8.173   5.210   3.973 -1.3090  0.8964  0.1717
14709SOL    HW245261   8.132   5.173   4.114 -0.3409  0.9578  0.4762
14710SOL     OW45262   3.496   6.416   5.366  0.8642 -0.7870 -0.1761
14710SOL    HW145263   3.471   6.388   5.278  0.6412  1.8076 -1.0032
14710SOL    HW245264   3.442   6.493   5.383  1.9726 -0.3572  1.6401
14711SOL     OW45265   7.951   4.473   7.673 -0.2440 -0.0329  0.1191
14711SOL    HW145266   7.928   4.485   7.766 -1.7924  0.1534 -0.2664
14711SOL    HW245267   7.942   4.560   7.635 -0.6002 -0.3002 -0.4095
14712SOL     OW45268   8.197   7.731   1.513 -0.5263 -0.8668 -0.3708
14712SOL    HW145269   8.162   7.777   1.436 -1.6854 -2.9093 -1.1320
14712SOL    HW245270   8.251   7.661   1.477 -0.4667 -1.3948  0.7017
14713SOL     OW45271   2.919   2.490   8.908 -0.4627  0.4071  0.2100
14713SOL    HW145272   2.906   2.541   8.827 -0.9672 -1.5994 -1.0453
14713SOL    HW245273   3.014   2.490   8.921 -0.4793  1.9757  0.4771
14714SOL     OW45274   0.721   2.910   5.393  0.3084 -0.2331  0.3618
14714SOL    HW145275   0.788   2.975   5.372 -0.5112  0.5805  0.2471
14714SOL    HW245276   0.666   2.952   5.459  0.0688 -1.0052  0.6657
14715SOL     OW45277   7.564   8.767   4.336 -0.3838 -1.1470 -0.2785
14715SOL    HW145278   7.561   8.784   4.242  0.0945 -0.1244 -0.1227
14715SOL    HW245279   7.649   8.799   4.364 -0.1042 -2.3834  0.3457
14716SOL     OW45280   3.872   4.289   2.840 -0.5730 -0.2054 -0.0887
14716SOL    HW145281   3.916   4.275   2.757 -0.1143 -0.8291  0.2557
14716SOL    HW245282   3.940   4.323   2.898 -0.3292 -1.8605  0.6565
14717SOL     OW45283   7.375   4.155   4.035  0.1025  0.6828  0.4598
14717SOL    HW145284   7.324   4.125   4.110 -1.6445  0.2613 -0.8296
14717SOL    HW245285   7.312   4.202   3.980  1.2635  0.7530 -0.8679
14718SOL     OW45286   9.080   6.288   6.787  0.1612  0.3041  0.1069
14718SOL    HW145287   9.109   6.360   6.843  0.1908  0.4324 -0.0725
14718SOL    HW245288   9.149   6.222   6.796 -0.4970 -0.2519  1.2911
14719SOL     OW45289   6.702   2.407   7.609 -0.5139 -0.3106  0.8739
14719SOL    HW145290   6.763   2.418   7.682  0.9536 -0.2690 -0.2984
14719SOL    HW245291   6.733   2.330   7.563  0.6095  1.4180 -1.5056
14720SOL     OW45292   8.263   1.651   3.105  0.3147 -0.5172 -0.2674
14720SOL    HW145293   8.316   1.729   3.085 -0.6547  0.2643  0.1253
14720SOL    HW245294   8.263   1.602   3.023  3.1123 -1.4847  0.1828
14721SOL     OW45295   9.055   6.679   8.781  0.4207 -0.6342 -0.1445
14721SOL    HW145296   9.147   6.651   8.786  1.0020  0.8751 -1.4934
14721SOL    HW245297   9.023   6.639   8.701  1.1350  1.9704 -1.8634
14722SOL     OW45298   8.256   7.632   0.744  0.5030  0.1364 -0.3290
14722SOL    HW145299   8.188   7.695   0.770 -0.7310 -0.2110 -2.4490
14722SOL    HW245300   8.245   7.624   0.649  2.9191 -0.6776 -0.6048
14723SOL     OW45301   7.338   2.770   7.259 -0.2007  0.3275  0.3208
14723SOL    HW145302   7.255   2.759   7.304 -0.5243 -2.8029 -0.8069
14723SOL    HW245303   7.405   2.757   7.326 -0.5609  1.8883  1.0290
14724SOL     OW45304   4.942   3.894   7.529  0.0227  0.0011 -0.1541
14724SOL    HW145305   4.966   3.863   7.616 -1.7609  1.5038  0.9411
14724SOL    HW245306   4.903   3.818   7.486 -2.1485  0.0261  1.6197
14725SOL     OW45307   5.751   4.247   0.095  0.0272 -0.3975  0.2751
14725SOL    HW145308   5.832   4.214   0.135  0.8716  1.2234  0.0181
14725SOL    HW245309   5.682   4.223   0.156  1.0529  0.4240  1.8027
14726SOL     OW45310   4.392   2.118   8.765  0.0044  0.0999  0.5847
14726SOL    HW145311   4.487   2.128   8.770  0.0896 -0.4231  0.1182
14726SOL    HW245312   4.367   2.159   8.682 -0.1690  0.1634  0.6664
14727SOL     OW45313   3.473   8.592   6.749  0.2795  0.1986 -0.4162
14727SOL    HW145314   3.440   8.568   6.663 -2.2255 -0.9126  0.7604
14727SOL    HW245315   3.560   8.629   6.732  0.4415 -1.2419 -3.2482
14728SOL     OW45316   7.895   7.604   7.333 -0.3649  0.5319  0.2050
14728SOL    HW145317   7.862   7.572   7.416  0.4248  0.9711  0.6977
14728SOL    HW245318   7.843   7.683   7.315  1.2401  2.0196  1.6587
14729SOL     OW45319   3.297   6.948   2.923  0.2823 -0.0578 -0.0048
14729SOL    HW145320   3.296   6.873   2.862  1.9422  0.6087 -0.9217
14729SOL    HW245321   3.368   6.927   2.984  0.2816  0.4385  0.1648
14730SOL     OW45322   1.851   2.962   5.364  0.1603  0.4553  0.5779
14730SOL    HW145323   1.810   3.020   5.300  2.2328 -1.1022 -2.4518
14730SOL    HW245324   1.936   3.003   5.382  1.8375 -1.5631 -1.9306
14731SOL     OW45325   8.489   6.853   6.181 -0.2356 -0.6892 -0.0601
14731SOL    HW145326   8.440   6.929   6.211  0.6182 -0.4637  0.8241
14731SOL    HW245327   8.580   6.882   6.180  0.0631 -1.5887 -0.0412
14732SOL     OW45328   0.316   0.322   8.075  0.2088  0.1520 -0.2652
14732SOL    HW145329   0.234   0.274   8.077  0.6013 -0.6695 -2.1644
14732SOL    HW245330   0.361   0.291   7.997  1.1415  2.5544 -0.7956
14733SOL     OW45331   5.004   1.703   2.207  0.4197 -0.0433  0.2630
14733SOL    HW145332   4.947   1.760   2.259  0.3448 -0.2059  0.3597
14733SOL    HW245333   5.093   1.724   2.236  0.3591 -0.3684  0.6939
14734SOL     OW45334   8.311   8.238   5.469 -0.4517  0.1720 -0.4097
14734SOL    HW145335   8.338   8.172   5.532  1.1350 -0.7622 -1.9841
14734SOL    HW245336   8.247   8.193   5.413 -2.2631  1.1508  0.7590
14735SOL     OW45337   2.419   6.603   2.104 -0.4398 -0.2456  0.0527
14735SOL    HW145338   2.328   6.633   2.110 -0.0859  0.7777  0.6371
14735SOL    HW245339   2.441   6.576   2.194 -0.5193 -1.6012 -0.3197
14736SOL     OW45340   2.926   8.485   4.836 -0.3161 -0.5769  0.8935
14736SOL    HW145341   2.849   8.429   4.843 -1.2088  0.1433 -1.7677
14736SOL    HW245342   2.992   8.429   4.794 -0.2578 -0.4610  0.8287
14737SOL     OW45343   8.716   5.444   6.894  0.1363 -0.5028 -0.4501
14737SOL    HW145344   8.784   5.510   6.905 -0.5019 -0.0928  1.2490
14737SOL    HW245345   8.764   5.361   6.891  0.7128 -0.2444  1.0178
14738SOL     OW45346   7.843   0.406   1.963  0.5299 -0.9665 -0.3128
14738SOL    HW145347   7.887   0.360   1.892 -0.3454 -0.7777 -0.9914
14738SOL    HW245348   7.757   0.428   1.928  0.1503 -0.7071  0.7462
14739SOL     OW45349   7.200   7.057   8.602  0.0396  0.4748 -0.0550
14739SOL    HW145350   7.289   7.043   8.570  0.2876 -1.6381  1.4004
14739SOL    HW245351   7.208   7.130   8.664  1.1926 -0.9308  1.5392
14740SOL     OW45352   2.634   4.419   4.556 -0.5957 -0.0838 -0.0727
14740SOL    HW145353   2.726   4.443   4.547 -0.8229  0.7151 -0.4041
14740SOL    HW245354   2.598   4.429   4.468 -0.5977 -2.2383 -0.3664
14741SOL     OW45355   1.185   4.851   7.884 -0.1034  0.3352 -0.2985
14741SOL    HW145356   1.164   4.889   7.798  0.8030  0.7312 -0.3557
14741SOL    HW245357   1.115   4.882   7.941 -0.4324  0.4985 -0.7790
14742SOL     OW45358   0.431   3.523   6.678 -0.5610 -0.0262 -0.2496
14742SOL    HW145359   0.445   3.430   6.693  0.3802  0.2769  0.9770
14742SOL    HW245360   0.488   3.545   6.604  1.1771  0.0314  1.0370
14743SOL     OW45361   2.515   2.701   7.131  0.1488 -0.0865  0.3462
14743SOL    HW145362   2.490   2.610   7.117 -1.1405  0.2902  0.0515
14743SOL    HW245363   2.525   2.737   7.043 -0.3337  0.2974  0.4384
14744SOL     OW45364   0.542   8.303   5.353  0.2968  0.4017  0.0303
14744SOL    HW145365   0.520   8.342   5.438 -0.6006 -0.1090  0.0507
14744SOL    HW245366   0.587   8.372   5.305  0.5373  0.7932  0.8087
14745SOL     OW45367   5.903   0.122   0.994  0.1061  0.2745 -0.3961
14745SOL    HW145368   5.830   0.142   0.936  0.1299  0.7591 -0.2577
14745SOL    HW245369   5.970   0.187   0.972  0.0979  0.4939  0.2039
14746SOL     OW45370   0.000   1.507   7.480  0.2211  0.7059  0.3250
14746SOL    HW145371   0.069   1.445   7.455 -0.0765 -0.6335  2.5302
14746SOL    HW245372  -0.057   1.511   7.404  1.0148 -0.6772 -0.3946
14747SOL     OW45373   0.523   3.818   8.658 -0.1803 -0.2462  0.1873
14747SOL    HW145374   0.551   3.903   8.692 -1.5571  0.2959  0.0214
14747SOL    HW245375   0.481   3.838   8.574  0.8807 -1.2799 -0.6248
14748SOL     OW45376   8.067   8.991   0.614 -0.1249 -1.0606 -0.0816
14748SOL    HW145377   7.973   8.972   0.617  0.1031 -3.2112 -2.6050
14748SOL    HW245378   8.107   8.923   0.669  0.0260 -0.9321 -0.0325
14749SOL     OW45379   7.182   8.911   3.545 -0.1928  0.0654 -0.2330
14749SOL    HW145380   7.088   8.920   3.530 -0.4814  0.4200  1.6133
14749SOL    HW245381   7.220   8.990   3.505 -0.7790  0.4151 -0.1028
14750SOL     OW45382   5.032   0.590   3.595  0.5580 -0.2627  0.3383
14750SOL    HW145383   4.939   0.582   3.575  0.7374 -0.3155 -0.5379
14750SOL    HW245384   5.039   0.669   3.648  0.0181 -0.2405  0.3799
14751SOL     OW45385   3.778   1.984   0.789  0.3753  0.2446 -0.7929
14751SOL    HW145386   3.847   1.920   0.803  0.6937  0.8813  0.7106
14751SOL    HW245387   3.816   2.067   0.816 -0.4780  0.8585 -1.4104
14752SOL     OW45388   2.079   4.905   1.786 -0.1485  0.3476 -0.0923
14752SOL    HW145389   2.118   4.992   1.789 -1.0521  0.7475  2.7489
14752SOL    HW245390   1.994   4.919   1.744  0.6532  0.3675 -1.7665
14753SOL     OW45391   0.977   4.782   4.648 -0.4859 -0.2859 -0.4485
14753SOL    HW145392   0.921   4.854   4.620  1.1879  0.6544 -1.5710
14753SOL    HW245393   0.952   4.765   4.739 -0.8358  1.7943 -0.1249
14754SOL     OW45394   0.712   1.041   2.343  0.1406 -0.3261  0.2573
14754SOL    HW145395   0.765   1.043   2.422 -0.9516 -0.4134  1.0093
14754SOL    HW245396   0.699   1.133   2.319  0.0723 -0.2833  0.4587
14755SOL     OW45397   7.694   9.090   8.806  0.0955  0.6319  0.4944
14755SOL    HW145398   7.732   9.002   8.807  0.1595  0.6610  0.7505
14755SOL    HW245399   7.605   9.077   8.774  0.2725  0.5411  0.0265
14756SOL     OW45400   1.152   4.416   8.599  0.1310 -0.3156 -0.0937
14756SOL    HW145401   1.091   4.419   8.525 -0.2621  1.0262  0.2667
14756SOL    HW245402   1.096   4.402   8.675  0.0280  2.5876  0.4509
14757SOL     OW45403   0.718   3.538   4.523  0.1465 -0.8312 -0.1355
14757SOL    HW145404   0.781   3.482   4.567 -0.3580 -1.1447  0.1856
14757SOL    HW245405   0.658   3.567   4.591  1.5002  1.6840  0.1100
14758SOL     OW45406   0.242   4.391   6.066 -0.0160  0.1401  0.0004
14758SOL    HW145407   0.231   4.368   5.973  2.8994 -1.1540 -0.1423
14758SOL    HW245408   0.294   4.320   6.102 -0.2573  1.0994  2.4469
14759SOL     OW45409   2.683   2.953   1.948  0.2215 -0.3398 -0.1138
14759SOL    HW145410   2.744   2.892   1.906  0.7517 -1.9810  2.7647
14759SOL    HW245411   2.738   3.008   2.004 -0.6519  0.3130  0.1287
14760SOL     OW45412   3.112   5.809   7.258 -0.2715  0.0629 -0.3153
14760SOL    HW145413   3.207   5.819   7.253 -0.3437  0.3205 -2.1468
14760SOL    HW245414   3.097   5.744   7.326  1.2404 -0.2187 -0.2279
14761SOL     OW45415   4.405   4.216   1.819 -0.2341  0.8871 -0.7764
14761SOL    HW145416   4.332   4.277   1.820 -2.4787 -1.6176 -0.1801
14761SOL    HW245417   4.388   4.157   1.746 -0.1327 -1.1219  0.7080
14762SOL     OW45418   4.161   6.671   3.850  0.1736 -0.3157  0.6963
14762SOL    HW145419   4.141   6.581   3.876 -2.1396  0.1574  0.7135
14762SOL    HW245420   4.234   6.696   3.906 -0.7236 -1.3782  2.4122
14763SOL     OW45421   5.718   3.953   0.530 -0.0514 -0.4745 -1.1393
14763SOL    HW145422   5.623   3.950   0.528 -0.1217  0.7627 -0.5064
14763SOL    HW245423   5.745   3.921   0.444 -1.0147 -1.2363 -1.1772
14764SOL     OW45424   2.320   2.454   0.347 -0.2213 -0.1435 -0.0947
14764SOL    HW145425   2.246   2.512   0.365 -1.0893 -0.4801 -2.2141
14764SOL    HW245426   2.285   2.366   0.356 -0.2249 -0.3086 -1.4724
14765SOL     OW45427   6.660   4.116   2.372  0.1525  0.3052 -0.5772
14765SOL    HW145428   6.716   4.041   2.392  0.3773  0.5524 -0.2689
14765SOL    HW245429   6.629   4.146   2.458  1.2207  1.4555 -0.5809
14766SOL     OW45430   7.527   2.302   7.222  0.1864 -0.1520 -0.4311
14766SOL    HW145431   7.524   2.259   7.136  1.9179 -0.7228 -0.2394
14766SOL    HW245432   7.616   2.337   7.228 -0.1602  0.5569  0.8100
14767SOL     OW45433   5.812   5.851   2.379 -0.5368 -1.1353  0.6570
14767SOL    HW145434   5.817   5.755   2.371  0.2246 -1.1841  1.5241
14767SOL    HW245435   5.753   5.878   2.309  1.7285 -1.9501 -1.7512
14768SOL     OW45436   6.413   2.188   5.709  0.0825  0.4569  0.2498
14768SOL    HW145437   6.453   2.151   5.630 -2.5770  0.8882 -1.4165
14768SOL    HW245438   6.332   2.137   5.721 -0.7949  2.0169  1.2388
14769SOL     OW45439   8.725   1.850   3.361  0.4395 -0.3251  0.1114
14769SOL    HW145440   8.666   1.800   3.417  0.2746  0.0774  0.3014
14769SOL    HW245441   8.763   1.916   3.419  2.4475 -1.6637  0.4366
14770SOL     OW45442   7.265   6.249   5.393  0.0739  0.0531 -0.3614
14770SOL    HW145443   7.209   6.316   5.354  0.6798  2.2027  2.1940
14770SOL    HW245444   7.204   6.183   5.425 -0.6083 -0.1732 -2.0457
14771SOL     OW45445   7.625   6.803   7.975  0.0420 -0.2629 -0.1015
14771SOL    HW145446   7.686   6.826   7.905  0.6585 -0.6903  0.2947
14771SOL    HW245447   7.539   6.804   7.933  0.5763 -2.5293 -1.3897
14772SOL     OW45448   2.192   6.877   3.139 -0.1184  0.2784  0.0229
14772SOL    HW145449   2.130   6.831   3.195  1.0731 -0.4737  0.7617
14772SOL    HW245450   2.169   6.969   3.149 -1.2917 -0.0124  0.0634
14773SOL     OW45451   4.007   3.795   7.731  0.2357 -0.1026  0.3287
14773SOL    HW145452   4.074   3.839   7.783 -0.1550  0.2425  0.5455
14773SOL    HW245453   3.942   3.766   7.795 -1.5914  2.6449 -0.1498
14774SOL     OW45454   8.762   6.339   5.061  0.2888  0.1375  0.4144
14774SOL    HW145455   8.674   6.307   5.078  0.0569  1.4441  1.8281
14774SOL    HW245456   8.758   6.433   5.076  1.5740  0.4845 -1.0499
14775SOL     OW45457   1.471   3.699   2.953  0.1427  0.1295  0.1133
14775SOL    HW145458   1.556   3.731   2.922  0.1992  1.4087  1.4872
14775SOL    HW245459   1.407   3.761   2.918 -0.0615  0.0443  0.3278
14776SOL     OW45460   5.212   0.311   0.405 -0.3054 -0.1901 -0.7200
14776SOL    HW145461   5.231   0.312   0.311  1.7157  0.1541 -0.3493
14776SOL    HW245462   5.242   0.396   0.437 -0.9364 -0.3126  0.2622
14777SOL     OW45463   3.933   4.027   2.266 -0.3741 -0.4111  0.1324
14777SOL    HW145464   4.027   4.025   2.244 -0.7155 -1.4500 -1.3879
14777SOL    HW245465   3.902   4.107   2.224 -0.2701 -0.3234  0.2193
14778SOL     OW45466   5.899   3.686   3.898 -0.0155 -0.2281  0.5239
14778SOL    HW145467   5.851   3.728   3.826  1.3376  2.2896  0.9883
14778SOL    HW245468   5.979   3.653   3.857  0.6008  0.9163  0.7494
14779SOL     OW45469   1.040   3.833   7.687  0.2685 -0.5721  0.4627
14779SOL    HW145470   1.019   3.840   7.594 -0.2408 -0.5386  0.5776
14779SOL    HW245471   1.078   3.745   7.697  1.2939 -0.1944  0.0462
14780SOL     OW45472   8.442   7.961   2.221  0.1359 -0.2424  0.0644
14780SOL    HW145473   8.412   7.994   2.306  2.0364 -0.0154  0.6932
14780SOL    HW245474   8.499   7.887   2.243  0.2430 -0.5045 -1.0420
14781SOL     OW45475   2.594   3.574   3.946  0.0863  0.0034  0.2754
14781SOL    HW145476   2.576   3.481   3.935 -2.1917  0.0822  2.4910
14781SOL    HW245477   2.515   3.618   3.914 -0.5610  0.8844  2.8637
14782SOL     OW45478   0.596   7.762   0.511 -0.0746 -0.6650 -0.0702
14782SOL    HW145479   0.652   7.685   0.521  0.9065  0.0616  0.1758
14782SOL    HW245480   0.532   7.736   0.444 -0.1649 -1.9036  0.4586
14783SOL     OW45481   8.623   1.212   1.037  0.3317  0.3822  0.1634
14783SOL    HW145482   8.643   1.149   1.106  0.7314 -2.1079 -2.0675
14783SOL    HW245483   8.707   1.232   0.997 -0.1227 -0.1988 -1.1503
14784SOL     OW45484   8.622   2.224   8.115 -0.6293 -0.5751 -1.0813
14784SOL    HW145485   8.714   2.218   8.091  0.0735  1.1338  0.8531
14784SOL    HW245486   8.622   2.231   8.210 -2.8735 -1.9158 -0.9000
14785SOL     OW45487   7.166   1.384   6.079 -0.6159 -0.0583  0.2309
14785SOL    HW145488   7.210   1.386   5.994  0.9588  0.1648  1.0193
14785SOL    HW245489   7.110   1.306   6.075  0.1546 -0.5873 -0.6507
14786SOL     OW45490   0.796   7.536   1.739 -0.4724  0.1714  0.0089
14786SOL    HW145491   0.774   7.625   1.711 -0.2918  0.2785  0.2043
14786SOL    HW245492   0.842   7.548   1.822 -0.6997 -0.1226  0.1781
14787SOL     OW45493   6.728   1.528   4.193 -0.2191  0.1529 -0.0839
14787SOL    HW145494   6.709   1.611   4.237 -0.8710 -1.6162  3.3081
14787SOL    HW245495   6.662   1.523   4.124 -2.2326  1.1444  1.6237
14788SOL     OW45496   4.837   1.917   5.181  0.1881 -0.8514  0.7342
14788SOL    HW145497   4.754   1.922   5.134  0.1509 -2.9121  0.4749
14788SOL    HW245498   4.903   1.910   5.112  0.6117  0.7183  0.9398
14789SOL     OW45499   5.176   7.710   1.477  0.3404 -0.2333 -0.4678
14789SOL    HW145500   5.237   7.784   1.481 -0.9475  0.8741 -0.5997
14789SOL    HW245501   5.223   7.643   1.427  1.7211  0.3006  0.0661
14790SOL     OW45502   5.353   3.708   3.578  0.2851  0.6764 -0.1816
14790SOL    HW145503   5.259   3.694   3.570  0.4925 -1.9996  0.8455
14790SOL    HW245504   5.390   3.676   3.496  0.3164  2.4365 -0.9058
14791SOL     OW45505   1.495   0.632   6.737  0.2542  0.0191  0.1993
14791SOL    HW145506   1.525   0.670   6.819 -1.0821  1.7306 -0.0399
14791SOL    HW245507   1.415   0.584   6.761  1.1215 -1.4691  0.2460
14792SOL     OW45508   6.677   6.990   8.993 -0.6995  0.0131 -0.2959
14792SOL    HW145509   6.587   6.999   9.026 -0.3404  1.1489  0.4433
14792SOL    HW245510   6.703   6.902   9.018 -1.2915  0.0045  0.3362
14793SOL     OW45511   6.046   7.080   7.743  0.1696 -0.2693  0.4913
14793SOL    HW145512   6.032   7.073   7.648  3.7523  1.3425 -0.3122
14793SOL    HW245513   6.021   6.994   7.777  1.2963 -1.8559 -2.3353
14794SOL     OW45514   1.574   5.273   2.288  0.0989 -0.1555  0.3901
14794SOL    HW145515   1.633   5.198   2.290  0.5538  0.1909  0.2060
14794SOL    HW245516   1.512   5.253   2.219 -0.3311 -0.7669  0.9435
14795SOL     OW45517   3.259   8.400   2.068  0.4289  0.0910 -0.3910
14795SOL    HW145518   3.325   8.447   2.118 -0.7325  1.8985 -0.4766
14795SOL    HW245519   3.265   8.435   1.980  0.5146 -1.0008 -0.8400
14796SOL     OW45520   6.708   4.603   7.394 -0.3934  0.5398  0.5721
14796SOL    HW145521   6.738   4.581   7.306 -0.6625  0.3782  0.5189
14796SOL    HW245522   6.613   4.592   7.390 -0.7546  3.3339  0.0677
14797SOL     OW45523   1.429   5.215   4.066 -0.2012  0.2144 -0.3993
14797SOL    HW145524   1.383   5.154   4.124 -0.7412 -1.0396 -2.0697
14797SOL    HW245525   1.470   5.159   4.000 -0.1658  1.6136 -1.6160
14798SOL     OW45526   2.239   6.368   0.593 -0.6053 -0.3157  0.0100
14798SOL    HW145527   2.155   6.327   0.615  0.9569 -2.3764  2.7532
14798SOL    HW245528   2.269   6.322   0.515 -1.7678  0.1273 -0.7227
14799SOL     OW45529   5.741   0.503   5.566  0.0327 -0.2225 -0.3047
14799SOL    HW145530   5.765   0.413   5.543 -1.1096 -0.3052 -1.3293
14799SOL    HW245531   5.786   0.520   5.648  0.1263 -1.7983  0.0046
14800SOL     OW45532   5.854   3.775   5.798 -0.2723  0.1591  0.1795
14800SOL    HW145533   5.835   3.754   5.889  0.7678 -1.2136  0.1038
14800SOL    HW245534   5.882   3.693   5.759  0.2177  0.9179 -1.1470
14801SOL     OW45535   0.856   7.248   7.410  0.8023  0.1786 -0.3149
14801SOL    HW145536   0.831   7.197   7.333  0.7616  0.5938 -0.5801
14801SOL    HW245537   0.789   7.316   7.417  0.2427 -0.4470  0.6782
14802SOL     OW45538   8.230   5.977   6.880  0.0113 -0.0269  0.5520
14802SOL    HW145539   8.169   5.966   6.807 -1.2671 -0.0082  1.5810
14802SOL    HW245540   8.257   5.887   6.902 -2.1002 -0.3815  2.0598
14803SOL     OW45541   7.265   7.903   1.213  0.0422  0.2420  0.5320
14803SOL    HW145542   7.298   7.936   1.130 -1.2360  1.2439  0.3929
14803SOL    HW245543   7.283   7.809   1.211 -2.4822 -0.3098 -2.1241
14804SOL     OW45544   3.126   5.429   6.130  0.4029  0.1612 -0.3393
14804SOL    HW145545   3.058   5.395   6.071  0.5040 -0.4334 -0.1268
14804SOL    HW245546   3.203   5.439   6.073 -0.0373  1.4737 -0.7227
14805SOL     OW45547   8.277   7.762   2.536 -0.6691 -0.2736  0.6648
14805SOL    HW145548   8.266   7.856   2.527  2.9623  0.4005  1.5702
14805SOL    HW245549   8.288   7.731   2.446 -2.1727  0.0723  0.3399
14806SOL     OW45550   4.448   0.737   6.028  0.2122  0.5931  0.3730
14806SOL    HW145551   4.497   0.760   5.949 -1.1262  1.0706 -0.3347
14806SOL    HW245552   4.395   0.815   6.047  0.1880  0.3247  1.4983
14807SOL     OW45553   7.942   2.757   6.577  0.1848 -0.2603  0.0889
14807SOL    HW145554   7.852   2.789   6.572 -0.3818 -1.7777  0.1325
14807SOL    HW245555   7.934   2.666   6.605  1.5529 -1.1966 -2.2477
14808SOL     OW45556   2.781   4.658   0.934  0.2175 -0.6972  0.2194
14808SOL    HW145557   2.734   4.583   0.971 -0.1182 -0.0009  1.2460
14808SOL    HW245558   2.730   4.734   0.961  0.5082 -0.0878 -0.8773
14809SOL     OW45559   8.589   8.550   3.732  0.2462  0.0570  0.9163
14809SOL    HW145560   8.568   8.624   3.675 -0.2981 -0.7623  0.0387
14809SOL    HW245561   8.534   8.479   3.701  2.3073 -1.3723  0.3020
14810SOL     OW45562   8.185   8.520   6.364  0.4047 -0.2513 -0.6873
14810SOL    HW145563   8.246   8.584   6.401  0.9237 -1.0230 -0.1795
14810SOL    HW245564   8.236   8.476   6.296 -0.1151  0.2177 -1.3973
14811SOL     OW45565   8.177   0.133   6.922  0.2692  0.1756 -1.0723
14811SOL    HW145566   8.214   0.066   6.865  0.7453  0.9536 -1.6928
14811SOL    HW245567   8.223   0.123   7.005 -0.2326 -0.7854 -0.9050
14812SOL     OW45568   8.938   0.222   2.800  0.5042 -0.0170  0.3991
14812SOL    HW145569   8.855   0.269   2.788 -0.4803 -1.6771  0.4112
14812SOL    HW245570   8.927   0.173   2.881 -0.0081 -3.1015 -1.3748
14813SOL     OW45571   1.329   4.177   3.081  0.3230 -0.6540 -0.0731
14813SOL    HW145572   1.421   4.181   3.055  0.4060 -4.7548 -1.1304
14813SOL    HW245573   1.331   4.168   3.176  0.7104  2.4250  0.3013
14814SOL     OW45574   7.496   1.971   4.117  0.1776 -0.4295 -0.0590
14814SOL    HW145575   7.439   1.915   4.065  0.2993 -0.2389 -0.3982
14814SOL    HW245576   7.512   2.047   4.062  1.1426 -0.6943 -0.1497
14815SOL     OW45577   5.513   2.467   7.559 -0.3660  0.1641  0.0287
14815SOL    HW145578   5.420   2.479   7.542 -0.0118 -0.0042 -2.4622
14815SOL    HW245579   5.537   2.388   7.511  0.8536 -0.4615  1.5837
14816SOL     OW45580   1.671   5.021   2.215 -0.7606  0.1920 -1.2159
14816SOL    HW145581   1.609   4.959   2.176 -0.6424 -0.9711  0.3632
14816SOL    HW245582   1.749   5.012   2.161 -0.4592 -1.6822 -0.5578
14817SOL     OW45583   7.050   6.398   7.761  0.5919 -0.3223  0.3523
14817SOL    HW145584   7.137   6.358   7.757  1.1256  0.6974  1.2611
14817SOL    HW245585   7.048   6.442   7.846 -0.7508 -0.1735  0.2580
14818SOL     OW45586   6.393   9.069   0.102 -0.2075 -0.1784  0.8658
14818SOL    HW145587   6.486   9.073   0.078 -0.5026 -0.5960 -0.3797
14818SOL    HW245588   6.347   9.061   0.019 -1.2672 -1.6578  1.5649
14819SOL     OW45589   8.205   5.979   8.870 -0.3188  0.0409  0.5492
14819SOL    HW145590   8.213   5.883   8.864 -0.5948 -0.0183  1.0155
14819SOL    HW245591   8.114   5.993   8.894 -0.4893  0.4688 -0.3367
14820SOL     OW45592   2.446   1.237   0.395  0.6453 -0.2953  0.2514
14820SOL    HW145593   2.520   1.284   0.355  0.2545  1.2191  1.2234
14820SOL    HW245594   2.397   1.203   0.320  1.8888 -0.6538 -0.4302
14821SOL     OW45595   1.783   1.442   4.606 -0.7586  0.0054 -0.1565
14821SOL    HW145596   1.776   1.504   4.533 -0.2970 -0.5833 -0.7110
14821SOL    HW245597   1.840   1.486   4.669  1.4100 -0.7224 -1.5132
14822SOL     OW45598   2.502   1.602   2.657 -0.3971 -0.3241 -0.3434
14822SOL    HW145599   2.493   1.686   2.613  0.0357  0.2144  0.5602
14822SOL    HW245600   2.421   1.592   2.707 -0.0289  0.0490  0.3461
14823SOL     OW45601   4.936   7.063   2.594 -0.0069  0.3181  0.6317
14823SOL    HW145602   4.899   7.065   2.682  2.4970 -0.7854  1.7951
14823SOL    HW245603   5.014   7.117   2.599  1.2533 -1.3057 -0.3380
14824SOL     OW45604   7.675   6.234   0.874 -0.2098  0.2935  0.1979
14824SOL    HW145605   7.750   6.213   0.929  1.1160  2.0392 -0.8509
14824SOL    HW245606   7.623   6.153   0.873  3.4903 -2.4049 -1.9512
14825SOL     OW45607   3.994   0.157   1.913 -0.1230  0.1299 -0.7129
14825SOL    HW145608   3.994   0.210   1.833 -0.4786 -0.7669 -1.3341
14825SOL    HW245609   3.937   0.204   1.973 -0.5431  0.3894 -1.3026
14826SOL     OW45610   6.184   7.294   4.003 -0.1765  0.9794  0.5209
14826SOL    HW145611   6.150   7.210   4.036  0.8591 -0.3447 -1.5812
14826SOL    HW245612   6.128   7.316   3.929  1.6633  0.2230 -1.2007
14827SOL     OW45613   1.481   4.770   7.104  0.3524  0.3105 -0.2952
14827SOL    HW145614   1.451   4.753   7.014 -0.9967  0.0009  0.1929
14827SOL    HW245615   1.544   4.841   7.094  0.3185  0.2076 -1.5024
14828SOL     OW45616   3.497   0.844   5.815  0.0195 -0.0409 -0.0406
14828SOL    HW145617   3.563   0.899   5.773 -0.8575  0.9651 -0.1478
14828SOL    HW245618   3.488   0.881   5.903 -1.2144  0.5739 -0.4017
14829SOL     OW45619   1.849   7.307   1.207  0.5710  0.1874 -0.5648
14829SOL    HW145620   1.776   7.254   1.240  0.7683  0.1858 -0.1129
14829SOL    HW245621   1.812   7.394   1.193  0.2765 -0.0345 -1.1821
14830SOL     OW45622   6.995   0.864   7.225 -0.4066 -0.2335 -0.3069
14830SOL    HW145623   6.952   0.899   7.147 -0.2089 -0.1345 -0.3730
14830SOL    HW245624   7.078   0.912   7.230  0.3541 -1.4008 -0.9978
14831SOL     OW45625   6.040   3.696   2.848 -0.1006 -0.0274  0.5555
14831SOL    HW145626   6.128   3.682   2.883 -0.3682 -1.2903  0.7557
14831SOL    HW245627   5.991   3.618   2.874 -1.2266  0.5648  0.2637
14832SOL     OW45628   4.257   5.270   0.405 -0.0579 -0.4579 -0.6041
14832SOL    HW145629   4.220   5.195   0.452  1.6883 -0.6004  0.6160
14832SOL    HW245630   4.334   5.295   0.456 -0.3440  1.9100 -1.2240
14833SOL     OW45631   4.361   2.334   2.094  0.5032  0.0494  0.2332
14833SOL    HW145632   4.284   2.336   2.036  0.6622 -1.4392 -0.0658
14833SOL    HW245633   4.387   2.242   2.096  0.5764  0.0615  2.5833
14834SOL     OW45634   1.765   1.601   2.947 -0.0726  0.6553 -0.1836
14834SOL    HW145635   1.786   1.566   3.034  2.3387  0.0544 -0.9326
14834SOL    HW245636   1.718   1.530   2.903  1.6099 -0.3658 -0.4396
14835SOL     OW45637   4.331   2.759   3.492 -0.3770  0.2445  0.4263
14835SOL    HW145638   4.240   2.788   3.478 -0.7838  0.1467  2.5889
14835SOL    HW245639   4.332   2.670   3.458 -0.3539  1.0665 -1.9636
14836SOL     OW45640   7.034   0.019   0.395  0.1874  0.0277 -0.0016
14836SOL    HW145641   7.031  -0.053   0.332  1.4065 -1.4774  1.5437
14836SOL    HW245642   6.980  -0.011   0.468 -2.2341  2.2682 -0.7141
14837SOL     OW45643   1.248   5.015   4.168 -0.1562 -0.2724 -0.2397
14837SOL    HW145644   1.196   4.999   4.247  0.4432 -0.1042  0.1963
14837SOL    HW245645   1.320   4.954   4.173  0.3269  0.2871 -0.2486
14838SOL     OW45646   7.363   1.537   0.363 -0.6362 -0.3744 -0.2421
14838SOL    HW145647   7.309   1.458   0.362  2.8447 -3.1578  2.8189
14838SOL    HW245648   7.452   1.506   0.353  0.9162  3.2459  0.6802
14839SOL     OW45649   4.160   4.987   7.484 -0.4170 -0.0433 -0.4092
14839SOL    HW145650   4.212   4.959   7.560 -0.3970 -1.3127 -0.8606
14839SOL    HW245651   4.069   4.986   7.515 -0.4523 -1.0262 -0.5190
14840SOL     OW45652   7.705   5.132   0.743  0.5398  0.4807  0.5506
14840SOL    HW145653   7.673   5.042   0.743 -0.3261  0.7865  0.9220
14840SOL    HW245654   7.773   5.133   0.674 -0.3495 -0.1358 -0.3608
14841SOL     OW45655   5.340   1.527   7.188  0.4428 -0.3501 -0.0472
14841SOL    HW145656   5.357   1.594   7.121 -0.1703  0.4101  0.5424
14841SOL    HW245657   5.244   1.520   7.191  0.3466  0.9604  2.0064
14842SOL     OW45658   2.574   1.535   6.120 -0.6367 -0.6348 -0.1500
14842SOL    HW145659   2.596   1.483   6.197 -0.6429 -1.2140 -0.5315
14842SOL    HW245660   2.479   1.544   6.123 -0.6472 -0.7512 -0.1545
14843SOL     OW45661   6.639   1.402   2.298 -0.2322  0.0868  0.1874
14843SOL    HW145662   6.735   1.405   2.296 -0.2170  0.1907  0.7204
14843SOL    HW245663   6.615   1.470   2.362 -0.7129  0.8699 -0.7927
14844SOL     OW45664   1.657   7.576   5.796  0.5854  0.0775 -0.0055
14844SOL    HW145665   1.623   7.663   5.773 -0.4757 -0.6306 -1.2277
14844SOL    HW245666   1.592   7.515   5.763  1.7610 -1.2386  0.0138
14845SOL     OW45667   5.377   0.292   0.710 -0.1089  0.0270  0.1633
14845SOL    HW145668   5.351   0.217   0.656 -0.7014  0.3259  0.0264
14845SOL    HW245669   5.413   0.252   0.790  1.1350 -0.4278 -0.5857
14846SOL     OW45670   0.040   5.612   0.407  0.3097 -0.3420 -0.4189
14846SOL    HW145671   0.041   5.588   0.314 -0.9620  0.7411 -0.7472
14846SOL    HW245672   0.057   5.706   0.407 -2.6367  0.3118  0.1488
14847SOL     OW45673   1.066   1.233   2.660  0.4931 -0.0340 -0.0377
14847SOL    HW145674   1.069   1.323   2.627  1.2204  0.4190  1.1735
14847SOL    HW245675   1.140   1.228   2.721  0.6689 -1.5705 -0.3498
14848SOL     OW45676   8.699   5.583   7.790  0.1692 -0.3943 -0.6624
14848SOL    HW145677   8.707   5.582   7.694  0.6074 -0.0097 -0.6335
14848SOL    HW245678   8.661   5.498   7.812  1.9502 -1.3362 -1.0138
14849SOL     OW45679   1.657   0.206   6.468 -0.1058  0.2597  0.0842
14849SOL    HW145680   1.566   0.178   6.476  0.5624 -1.4721  2.6469
14849SOL    HW245681   1.683   0.177   6.381 -1.4488 -1.0209  0.0684
14850SOL     OW45682   8.503   8.124   0.092 -0.0147 -0.3517  0.2823
14850SOL    HW145683   8.509   8.098   0.183 -1.1680  1.1718  0.8393
14850SOL    HW245684   8.592   8.153   0.070  0.5037 -1.6591  0.5940
14851SOL     OW45685   7.059   6.872   3.828  0.2375 -0.2943 -0.7562
14851SOL    HW145686   6.977   6.879   3.878  0.2151 -3.2731 -0.1826
14851SOL    HW245687   7.117   6.821   3.885  1.0893 -1.6084 -2.7040
14852SOL     OW45688   0.685   1.470   3.116  0.1248 -0.1862 -0.1150
14852SOL    HW145689   0.741   1.409   3.164  0.7135 -0.3040 -0.9395
14852SOL    HW245690   0.602   1.423   3.107  0.1066 -0.2898  0.4892
14853SOL     OW45691   6.731   3.458   4.028  0.3087  0.1988 -0.3527
14853SOL    HW145692   6.729   3.546   3.989  1.0428  0.3821  0.0190
14853SOL    HW245693   6.748   3.400   3.954  1.4069  0.5215 -0.3762
14854SOL     OW45694   0.987   6.244   7.056  0.0207  0.0090 -0.0765
14854SOL    HW145695   0.928   6.263   6.983 -0.3460 -0.1607  0.1760
14854SOL    HW245696   0.943   6.177   7.107  1.3984 -1.7325 -1.0681
14855SOL     OW45697   1.731   3.859   0.800 -0.5260 -0.2513  0.9294
14855SOL    HW145698   1.733   3.775   0.755 -0.8466  0.9846 -1.5997
14855SOL    HW245699   1.813   3.862   0.850 -0.3978 -1.9240  0.8700
14856SOL     OW45700   8.248   4.222   7.134  0.0427 -0.4247  0.2343
14856SOL    HW145701   8.249   4.243   7.228 -0.0898  1.6944 -0.2040
14856SOL    HW245702   8.310   4.149   7.126  0.9568  0.1206  1.7981
14857SOL     OW45703   5.635   7.741   8.038  0.0247  0.1588 -0.7340
14857SOL    HW145704   5.597   7.676   7.979  0.4431  0.9677 -1.9246
14857SOL    HW245705   5.717   7.701   8.069  0.3259  0.1417 -1.5321
14858SOL     OW45706   3.390   1.020   7.290 -0.4218 -0.8435 -0.8843
14858SOL    HW145707   3.468   1.068   7.319  0.2692 -2.6406  0.4450
14858SOL    HW245708   3.421   0.968   7.216 -0.4596 -1.2419 -0.6224
14859SOL     OW45709   7.730   7.194   6.710 -0.3293 -0.4488  0.2957
14859SOL    HW145710   7.796   7.132   6.678 -0.5205 -0.3767 -0.2463
14859SOL    HW245711   7.743   7.195   6.805 -0.1535 -1.1266  0.2902
14860SOL     OW45712   7.118   3.362   5.295  0.2643  0.1487 -0.5555
14860SOL    HW145713   7.076   3.385   5.378  1.4206 -0.9972  0.3945
14860SOL    HW245714   7.045   3.344   5.235 -0.5866  1.4112  0.0623
14861SOL     OW45715   2.093   0.828   1.311 -0.3098 -0.1144  0.3040
14861SOL    HW145716   2.019   0.887   1.318 -0.4261 -0.1346 -0.6442
14861SOL    HW245717   2.147   0.864   1.242 -0.7612 -1.4949 -0.8243
14862SOL     OW45718   2.715   8.406   1.793  0.0074 -0.3843 -0.1661
14862SOL    HW145719   2.665   8.403   1.874 -1.2317  1.2348 -0.8290
14862SOL    HW245720   2.667   8.467   1.737  1.3844 -0.6891 -1.7466
14863SOL     OW45721   0.297   3.070   4.592 -0.3244 -0.1728  0.6333
14863SOL    HW145722   0.339   3.104   4.513  0.7011 -0.0915  1.1944
14863SOL    HW245723   0.217   3.027   4.561 -1.0809  1.7229 -0.2334
14864SOL     OW45724   8.006   3.423   8.899 -0.2667  0.2829  0.5061
14864SOL    HW145725   8.056   3.342   8.885  0.0862  0.7017 -0.7299
14864SOL    HW245726   7.927   3.395   8.944 -0.1111 -0.7412  0.1596
14865SOL     OW45727   0.672   5.000   7.884  0.1054 -1.1392 -0.2687
14865SOL    HW145728   0.645   5.033   7.970 -1.5923 -1.8899 -0.4574
14865SOL    HW245729   0.747   4.943   7.902 -0.2596 -1.3290  0.7346
14866SOL     OW45730   5.003   4.873   4.094 -0.2399  0.3868 -0.0560
14866SOL    HW145731   5.020   4.790   4.138 -0.3555  0.9751  1.1470
14866SOL    HW245732   4.907   4.881   4.094 -0.2322  0.4994 -0.2370
14867SOL     OW45733   0.688   6.972   0.552 -0.0815 -0.5468 -0.4393
14867SOL    HW145734   0.616   6.916   0.580 -0.5714  0.7028  0.9360
14867SOL    HW245735   0.680   7.051   0.606  0.7154  0.7643 -2.1204
14868SOL     OW45736   2.538   9.088   6.636  0.2534 -0.2242  0.3123
14868SOL    HW145737   2.503   9.132   6.558 -2.4435 -2.1486  0.2876
14868SOL    HW245738   2.483   9.120   6.708  0.4120 -1.0482  0.8144
14869SOL     OW45739   6.644   0.484   3.299  0.2119 -0.6018  0.1068
14869SOL    HW145740   6.605   0.520   3.378 -0.3742  1.0996 -0.9233
14869SOL    HW245741   6.699   0.412   3.331 -1.0511 -0.8431  1.9104
14870SOL     OW45742   3.920   0.130   7.013 -0.2763  0.7266 -0.3314
14870SOL    HW145743   3.987   0.107   7.077 -1.0116 -0.9300 -0.1176
14870SOL    HW245744   3.968   0.143   6.931  0.2476 -1.3209 -0.3911
14871SOL     OW45745   6.013   0.801   6.632 -0.1640 -0.1127 -0.1440
14871SOL    HW145746   6.010   0.759   6.546 -0.7252 -0.8983  0.2413
14871SOL    HW245747   6.085   0.756   6.678 -0.1086  0.0450 -0.0750
14872SOL     OW45748   2.880   6.908   0.383  0.0683  0.5030  0.5091
14872SOL    HW145749   2.973   6.889   0.397  0.5014  0.8025 -1.5992
14872SOL    HW245750   2.871   6.913   0.287 -2.2658 -0.2256  0.6321
14873SOL     OW45751   4.515   0.529   2.003 -0.4099  0.6521  0.1877
14873SOL    HW145752   4.502   0.524   2.098 -3.5253  1.6960 -0.0747
14873SOL    HW245753   4.610   0.538   1.992 -0.0721  2.1511  3.2965
14874SOL     OW45754   5.356   8.836   2.575  0.0065 -0.1176  0.2959
14874SOL    HW145755   5.321   8.748   2.589 -0.6687  0.2366  0.9368
14874SOL    HW245756   5.312   8.890   2.641  1.5035  0.4277  0.9059
14875SOL     OW45757   6.209   1.055   6.445 -0.0346 -0.1340  0.8310
14875SOL    HW145758   6.120   1.039   6.415  0.3391  0.7425 -0.9185
14875SOL    HW245759   6.205   1.141   6.487  0.0776  0.1772  0.2205
14876SOL     OW45760   8.634   4.939   5.624 -0.2202 -0.5742 -0.2555
14876SOL    HW145761   8.702   4.878   5.596  2.0622  1.4832  0.4320
14876SOL    HW245762   8.655   5.021   5.579 -0.3199  0.9997  2.3365
14877SOL     OW45763   5.420   8.974   8.630  0.2057  0.1646  0.4719
14877SOL    HW145764   5.364   8.909   8.588  0.9745  0.1063 -0.5299
14877SOL    HW245765   5.509   8.946   8.608  0.5706  1.1808  0.5699
14878SOL     OW45766   8.654   8.978   3.833 -0.4735 -0.1845 -0.1156
14878SOL    HW145767   8.633   9.026   3.913  1.0119  0.3482 -0.0269
14878SOL    HW245768   8.618   9.032   3.762  0.5168  0.7083  0.0356
14879SOL     OW45769   3.147   4.704   8.494  0.5415  0.2074  0.0666
14879SOL    HW145770   3.155   4.674   8.404  1.1712  0.5409  0.0102
14879SOL    HW245771   3.229   4.677   8.536 -0.1635 -0.8654  0.8160
14880SOL     OW45772   2.233   4.305   2.031  0.0057 -0.1745  0.0449
14880SOL    HW145773   2.137   4.310   2.037  0.0570 -0.3078  1.3182
14880SOL    HW245774   2.263   4.393   2.056  0.1981  0.2567 -1.6031
14881SOL     OW45775   5.641   5.727   8.038  0.1857  0.5239 -0.8348
14881SOL    HW145776   5.552   5.694   8.021  0.8663 -1.0377 -1.5656
14881SOL    HW245777   5.653   5.716   8.132  0.1364 -0.7138 -0.9608
14882SOL     OW45778   7.363   1.721   7.690  0.1602 -0.0764  0.1313
14882SOL    HW145779   7.345   1.671   7.770 -0.3206 -0.6089 -0.3060
14882SOL    HW245780   7.285   1.708   7.635  0.4348  0.3858 -0.3747
14883SOL     OW45781   5.366   0.072   1.597  0.8178  0.4333  0.0335
14883SOL    HW145782   5.462   0.074   1.592  0.8748  1.1026  1.1355
14883SOL    HW245783   5.345   0.107   1.683 -0.2874 -4.2148  1.9385
14884SOL     OW45784   2.188   5.574   1.411  0.3816  0.0833 -0.0063
14884SOL    HW145785   2.180   5.645   1.475  2.1136  1.2813 -1.0264
14884SOL    HW245786   2.146   5.608   1.332  2.5326  0.6733 -0.9729
14885SOL     OW45787   8.332   2.626   7.428  0.9118  0.7898  0.0803
14885SOL    HW145788   8.425   2.603   7.424  0.7710  0.3027 -2.5416
14885SOL    HW245789   8.287   2.548   7.397 -0.1885  1.7794 -0.8998
14886SOL     OW45790   4.379   2.579   5.972  0.0669  0.1747 -0.4579
14886SOL    HW145791   4.426   2.506   5.932 -0.4783 -0.3738 -0.1152
14886SOL    HW245792   4.439   2.615   6.037  0.2982 -0.0364 -0.5548
14887SOL     OW45793   6.185   3.292   5.878 -0.0208 -0.1289 -0.0915
14887SOL    HW145794   6.277   3.267   5.874  0.0491  0.3282 -3.5420
14887SOL    HW245795   6.155   3.257   5.963  2.4365 -3.3404 -0.3534
14888SOL     OW45796   4.185   7.172   5.324 -0.2850 -0.1176 -0.6567
14888SOL    HW145797   4.160   7.264   5.320  1.4516  0.5493  1.6074
14888SOL    HW245798   4.280   7.174   5.332 -0.1059 -2.1916 -1.6956
14889SOL     OW45799   3.030   1.024   1.807 -0.2164  0.3594  0.5317
14889SOL    HW145800   2.948   0.982   1.833 -0.2156  0.4296  0.6483
14889SOL    HW245801   3.018   1.046   1.715 -0.5622  0.9200  0.7042
14890SOL     OW45802   5.051   7.684   5.554  0.0007  0.2265 -0.2483
14890SOL    HW145803   5.117   7.691   5.623  0.5873  2.7839 -0.9695
14890SOL    HW245804   5.078   7.607   5.503 -0.1107 -1.3501  1.9334
14891SOL     OW45805   7.240   9.031   7.801  0.0574 -0.6047 -0.5330
14891SOL    HW145806   7.267   8.986   7.881  3.7335  2.4343  0.2590
14891SOL    HW245807   7.180   9.099   7.831  1.5301  0.6135 -0.1960
14892SOL     OW45808   5.181   1.672   4.554  0.0286  0.2183 -0.4301
14892SOL    HW145809   5.178   1.768   4.552  0.5112  0.2896  1.1289
14892SOL    HW245810   5.274   1.651   4.539 -0.0934 -0.0115 -0.8762
14893SOL     OW45811   5.960   4.515   0.489  0.1042 -0.1409 -0.1750
14893SOL    HW145812   5.997   4.474   0.567  1.0399  0.7758 -0.1254
14893SOL    HW245813   5.867   4.524   0.508  0.1699 -0.7588  0.4567
14894SOL     OW45814   8.927   5.921   6.782  0.8273 -0.1067 -0.7920
14894SOL    HW145815   8.946   6.003   6.737 -1.8371  0.4031 -1.1854
14894SOL    HW245816   8.901   5.861   6.713 -0.0054 -0.3661 -0.2710
14895SOL     OW45817   0.765   4.653   0.652  0.0358  0.6154  0.1994
14895SOL    HW145818   0.740   4.692   0.568  0.2377  3.7099  1.4246
14895SOL    HW245819   0.859   4.636   0.644 -0.2121 -0.4328 -0.6410
14896SOL     OW45820   7.066   6.630   7.420  0.5085 -0.2156  0.4307
14896SOL    HW145821   7.088   6.683   7.343 -1.3470 -0.7347 -0.5152
14896SOL    HW245822   7.042   6.693   7.487 -1.4366  0.2417 -0.6051
14897SOL     OW45823   0.793   3.690   1.354  0.5108  0.0089 -0.0118
14897SOL    HW145824   0.832   3.776   1.370  2.0320 -0.6524  0.0469
14897SOL    HW245825   0.770   3.658   1.441  0.7070  0.0211  0.0457
14898SOL     OW45826   2.112   3.466   3.091  0.4207  0.1860 -0.4866
14898SOL    HW145827   2.144   3.514   3.015  2.3566  0.0480  0.1872
14898SOL    HW245828   2.177   3.397   3.105 -1.6558 -1.9529 -0.7181
14899SOL     OW45829   9.099   7.669   6.899  0.3797  0.1069 -0.8977
14899SOL    HW145830   9.154   7.689   6.974 -0.7784  1.7043 -0.4107
14899SOL    HW245831   9.143   7.713   6.825  0.0928  0.8731 -0.6218
14900SOL     OW45832   7.475   4.071   8.635  0.2073  0.2439  0.0168
14900SOL    HW145833   7.500   4.005   8.700  2.6205  0.5778 -0.4831
14900SOL    HW245834   7.469   4.153   8.685 -2.6558 -0.2229  0.6119
14901SOL     OW45835   8.400   4.583   5.535  0.4025  0.4665  0.0685
14901SOL    HW145836   8.450   4.520   5.588  0.0763  0.2728  0.1500
14901SOL    HW245837   8.362   4.531   5.465 -2.5601 -0.1112  1.9257
14902SOL     OW45838   3.098   5.080   5.980  0.2836 -0.0543 -0.3166
14902SOL    HW145839   3.137   5.003   6.021  0.4627  0.3276  0.2289
14902SOL    HW245840   3.005   5.074   6.002  0.1791 -0.4702 -0.8425
14903SOL     OW45841   2.367   0.103   0.371  0.2627 -0.5196 -0.1544
14903SOL    HW145842   2.273   0.089   0.371  0.0669  0.5369 -1.5342
14903SOL    HW245843   2.378   0.198   0.372  1.3354 -0.6276  0.7639
14904SOL     OW45844   1.757   7.037   0.826 -0.2374  1.1718 -0.3889
14904SOL    HW145845   1.680   7.002   0.871  0.4482 -0.5287 -0.4591
14904SOL    HW245846   1.750   7.004   0.737  1.6121 -0.8924  0.1220
14905SOL     OW45847   1.775   7.021   3.481 -0.6188  0.0905  0.1392
14905SOL    HW145848   1.715   7.083   3.522 -1.1532 -0.8452  0.7913
14905SOL    HW245849   1.752   7.023   3.388  2.6439  4.5791 -0.9024
14906SOL     OW45850   7.379   8.755   1.931 -0.5223  0.1831 -0.2752
14906SOL    HW145851   7.410   8.725   2.016 -0.0040 -1.2464 -0.9476
14906SOL    HW245852   7.452   8.738   1.871 -1.3653 -0.0811 -1.2594
14907SOL     OW45853   7.282   5.307   3.672  0.1610 -0.2936  0.4562
14907SOL    HW145854   7.326   5.222   3.665 -0.0943 -0.4134  0.2694
14907SOL    HW245855   7.204   5.289   3.724  0.6043  0.0273  1.2467
14908SOL     OW45856   0.408   5.671   5.204  0.2610  0.1836  0.3731
14908SOL    HW145857   0.400   5.766   5.215  3.4031  0.5277  0.5443
14908SOL    HW245858   0.491   5.659   5.158 -0.0074 -2.5143  0.4234
14909SOL     OW45859   0.320   8.295   6.341 -0.0423 -0.4450 -0.2165
14909SOL    HW145860   0.410   8.269   6.359 -0.4404 -1.9465 -0.2640
14909SOL    HW245861   0.302   8.261   6.253 -0.7608 -0.4589 -0.0708
14910SOL     OW45862   4.376   4.608   8.820 -0.1066  0.2653 -0.1857
14910SOL    HW145863   4.438   4.672   8.856 -3.1324  2.6250  1.3479
14910SOL    HW245864   4.332   4.656   8.749 -0.6727 -1.0700 -0.7623
14911SOL     OW45865   7.246   2.831   6.438  0.2145  0.4153  0.1531
14911SOL    HW145866   7.310   2.864   6.375 -0.1297  0.4199 -0.2011
14911SOL    HW245867   7.201   2.910   6.470 -0.4369  0.3217 -0.5057
14912SOL     OW45868   2.545   3.480   7.417 -0.5479  0.4895 -0.0086
14912SOL    HW145869   2.630   3.522   7.403 -0.1933 -0.5024 -0.9434
14912SOL    HW245870   2.539   3.469   7.512  0.8216 -0.3053  0.0050
14913SOL     OW45871   4.802   5.718   7.771 -0.0078 -0.7414 -0.4077
14913SOL    HW145872   4.723   5.682   7.812 -1.0513  2.7762  1.0607
14913SOL    HW245873   4.863   5.729   7.843 -0.3857  1.8805 -0.4156
14914SOL     OW45874   4.632   0.963   0.067  0.1499 -0.0324 -0.8010
14914SOL    HW145875   4.623   0.949  -0.028 -0.7565  1.3018 -0.9368
14914SOL    HW245876   4.659   1.054   0.075 -2.0294  0.5903  0.2942
14915SOL     OW45877   2.324   3.855   7.243  0.0234 -0.3615 -0.4261
14915SOL    HW145878   2.342   3.761   7.238  0.6004 -0.4436  2.0889
14915SOL    HW245879   2.231   3.861   7.262  0.3732 -0.5597  1.5276
14916SOL     OW45880   7.241   1.402   3.924  0.4752  0.3512 -0.6342
14916SOL    HW145881   7.215   1.493   3.938 -0.3070  0.0685 -0.1904
14916SOL    HW245882   7.173   1.366   3.867 -0.0143 -0.3374  0.3648
14917SOL     OW45883   0.908   8.118   7.747 -0.4874  0.3317  0.1588
14917SOL    HW145884   0.876   8.197   7.703 -1.2926  0.2561  0.5912
14917SOL    HW245885   0.955   8.070   7.680  1.0756  1.7600  0.1798
14918SOL     OW45886   0.051   7.743   8.340 -0.5635  0.4109  0.1885
14918SOL    HW145887   0.105   7.673   8.304 -1.1557  0.6135 -1.1567
14918SOL    HW245888   0.106   7.784   8.407  0.0177 -0.9357  0.5649
14919SOL     OW45889   8.341   8.816   7.727 -0.0178 -0.1048  0.2438
14919SOL    HW145890   8.272   8.773   7.778  1.1187 -1.2587  0.8685
14919SOL    HW245891   8.320   8.794   7.636 -1.2531  0.7547  0.3082
14920SOL     OW45892   3.236   7.216   5.824 -0.1749 -0.4646  0.3269
14920SOL    HW145893   3.281   7.221   5.740 -1.8531 -1.5543 -0.6841
14920SOL    HW245894   3.288   7.273   5.882  1.4967 -0.3542 -1.1875
14921SOL     OW45895   5.170   6.812   4.064  0.1411 -0.0930  0.1321
14921SOL    HW145896   5.203   6.902   4.058  0.6756 -0.2238  0.9745
14921SOL    HW245897   5.094   6.811   4.006 -0.6072  1.2290  1.0337
14922SOL     OW45898   6.212   4.643   2.213  0.2368  0.5736 -0.3337
14922SOL    HW145899   6.295   4.610   2.179  0.3644  1.0743 -0.5257
14922SOL    HW245900   6.166   4.565   2.244  0.2377  0.1328 -1.3980
14923SOL     OW45901   0.057   0.307   6.228 -0.5236 -0.1541 -0.2228
14923SOL    HW145902   0.140   0.271   6.258 -0.2102  0.1455 -0.6953
14923SOL    HW245903   0.027   0.363   6.299 -0.4719 -0.5019  0.0710
14924SOL     OW45904   8.610   1.156   0.637 -0.2328  0.4695  0.3401
14924SOL    HW145905   8.676   1.148   0.568 -1.7323 -1.2768 -0.9898
14924SOL    HW245906   8.639   1.095   0.705  0.0351  0.4729  0.2318
14925SOL     OW45907   2.141   5.710   9.028  0.3344  0.0053  0.8231
14925SOL    HW145908   2.073   5.751   9.080 -0.1111 -0.9758  1.0416
14925SOL    HW245909   2.164   5.631   9.077  1.1795 -0.0109  0.4290
14926SOL     OW45910   8.624   2.880   7.522 -0.0952  0.2203 -0.1967
14926SOL    HW145911   8.664   2.958   7.482  0.1471 -0.1387 -0.6559
14926SOL    HW245912   8.605   2.822   7.449 -2.0601  0.6311 -0.0766
14927SOL     OW45913   8.525   6.402   8.508  0.0505  0.3158 -0.7441
14927SOL    HW145914   8.551   6.312   8.527  0.5754  0.3995 -1.0610
14927SOL    HW245915   8.509   6.441   8.594  1.7872  0.5062 -0.4739
14928SOL     OW45916   4.182   5.114   8.262  0.1353 -0.1350  0.4359
14928SOL    HW145917   4.156   5.024   8.242  0.9478 -0.4074  0.5730
14928SOL    HW245918   4.269   5.105   8.302 -0.7226  0.5239  2.5525
14929SOL     OW45919   4.870   7.701   5.116 -0.3347  0.3139  0.0543
14929SOL    HW145920   4.910   7.617   5.138  1.0295  0.6149 -1.0812
14929SOL    HW245921   4.784   7.698   5.156 -0.2050 -1.4966  0.2936
14930SOL     OW45922   4.339   2.927   0.746 -0.4100  0.3198  0.1781
14930SOL    HW145923   4.258   2.878   0.764 -0.3940  0.1073 -0.3288
14930SOL    HW245924   4.311   3.001   0.693 -0.1838 -0.1142 -0.5574
14931SOL     OW45925   3.267   8.003   2.047 -0.3065  0.2410 -0.1584
14931SOL    HW145926   3.252   8.010   1.953 -0.5944 -0.2128 -0.1477
14931SOL    HW245927   3.192   8.049   2.087  0.3375  1.3310 -0.1566
14932SOL     OW45928   6.748   0.310   2.128  1.1035 -0.1412  0.2623
14932SOL    HW145929   6.782   0.254   2.058  0.6814  1.9872 -1.7414
14932SOL    HW245930   6.656   0.283   2.138  1.0489 -0.1661 -0.3012
14933SOL     OW45931   7.666   0.711   3.114 -0.1963  0.4748 -0.3955
14933SOL    HW145932   7.587   0.764   3.128 -1.7383 -1.6051 -0.6887
14933SOL    HW245933   7.733   0.754   3.166 -1.3909  2.5851 -0.4813
14934SOL     OW45934   7.676   3.329   2.487 -0.4802 -1.0011 -0.1912
14934SOL    HW145935   7.616   3.260   2.458  0.1970 -1.4820 -0.4616
14934SOL    HW245936   7.748   3.325   2.425  1.2853 -2.4337  1.8218
14935SOL     OW45937   1.438   8.553   6.430  0.0583 -1.1819 -0.0426
14935SOL    HW145938   1.351   8.549   6.470 -0.3847 -0.8556 -0.9445
14935SOL    HW245939   1.486   8.616   6.483 -0.7620 -0.1777 -0.4679
14936SOL     OW45940   5.473   4.442   6.999 -0.5688 -0.4212  0.0554
14936SOL    HW145941   5.457   4.457   7.092  0.4582  0.2271  0.1421
14936SOL    HW245942   5.520   4.359   6.996  0.2803  0.0434  0.2122
14937SOL     OW45943   3.110   1.427   7.818  0.5397 -0.2020  0.2350
14937SOL    HW145944   3.132   1.477   7.739 -1.1148  0.2569  0.0225
14937SOL    HW245945   3.094   1.338   7.786  0.3513 -0.1251  0.1080
14938SOL     OW45946   4.020   4.970   1.312  0.3723  0.2601 -0.1662
14938SOL    HW145947   3.960   4.977   1.386  1.0505  1.0214  0.3310
14938SOL    HW245948   3.966   4.988   1.236 -0.1876  0.1818  0.2024
14939SOL     OW45949   5.317   6.729   7.376 -0.5323 -0.8020 -0.1055
14939SOL    HW145950   5.242   6.748   7.431 -1.4744  0.0388 -1.5959
14939SOL    HW245951   5.279   6.705   7.291  0.8711  0.0934 -1.0304
14940SOL     OW45952   3.970   0.015   3.486 -0.4327  0.5169  0.2815
14940SOL    HW145953   3.900   0.041   3.426 -0.1341 -0.3309 -0.4620
14940SOL    HW245954   3.950  -0.076   3.508  0.5984  0.1590 -0.1951
14941SOL     OW45955   8.626   0.030   2.952  0.4969 -0.7254  0.0060
14941SOL    HW145956   8.703  -0.027   2.953  0.0433 -1.3542  0.2880
14941SOL    HW245957   8.558  -0.024   2.910  0.2386 -0.1517 -0.3120
14942SOL     OW45958   3.428   8.518   8.247  0.5145 -0.5985 -0.6155
14942SOL    HW145959   3.426   8.425   8.223  0.5579 -0.8396  0.3091
14942SOL    HW245960   3.359   8.528   8.312  0.5414  0.0143 -0.6758
14943SOL     OW45961   7.811   2.368   5.520 -0.7080  0.7276  0.4211
14943SOL    HW145962   7.876   2.318   5.471 -0.7047  2.2011 -1.1328
14943SOL    HW245963   7.774   2.304   5.581  1.4162 -0.4138  0.6216
14944SOL     OW45964   2.784   9.073   8.448 -0.5320  0.0785 -0.0717
14944SOL    HW145965   2.722   9.001   8.443 -0.2236 -0.0888 -1.9583
14944SOL    HW245966   2.753   9.136   8.384  1.7196 -0.4187 -1.7671
14945SOL     OW45967   6.787   1.838   0.183 -0.0606  0.6710 -0.1010
14945SOL    HW145968   6.695   1.824   0.203 -0.3128 -1.0958 -2.1299
14945SOL    HW245969   6.812   1.913   0.237 -1.6825 -0.9855  3.2966
14946SOL     OW45970   4.522   7.461   0.659  0.8642  0.1778  0.4429
14946SOL    HW145971   4.507   7.497   0.747 -1.0132 -0.4943  0.4460
14946SOL    HW245972   4.534   7.368   0.673 -1.9495 -0.3695 -0.1314
14947SOL     OW45973   8.305   7.238   1.417  0.4293 -0.1915 -0.2416
14947SOL    HW145974   8.260   7.299   1.359  1.6358 -1.5092 -2.7550
14947SOL    HW245975   8.264   7.251   1.502 -1.1116  2.2344 -1.2288
14948SOL     OW45976   8.328   0.662   6.912  0.1874  0.7294 -0.3741
14948SOL    HW145977   8.270   0.686   6.984 -0.4888  0.5091 -0.8228
14948SOL    HW245978   8.268   0.633   6.843  0.8376  0.5774 -0.8854
14949SOL     OW45979   8.719   8.335   0.982  0.0751 -0.5836 -0.0921
14949SOL    HW145980   8.765   8.259   0.946  1.3227  0.4630 -0.8055
14949SOL    HW245981   8.629   8.325   0.952  0.0676 -2.0828  0.3431
14950SOL     OW45982   6.068   4.409   8.669 -0.1213  0.0979 -0.0178
14950SOL    HW145983   5.996   4.425   8.608 -1.1206  1.1406  1.3539
14950SOL    HW245984   6.074   4.490   8.721  1.6994 -0.1704  0.2630
14951SOL     OW45985   3.146   5.329   7.007  0.0433 -0.5277 -0.4245
14951SOL    HW145986   3.091   5.297   6.936 -0.2217  0.2200 -0.5712
14951SOL    HW245987   3.175   5.250   7.053 -1.8135 -0.9020  0.1562
14952SOL     OW45988   4.539   2.942   3.509  0.1774 -0.3619 -0.1736
14952SOL    HW145989   4.482   2.865   3.513  0.6583 -0.7798 -1.0587
14952SOL    HW245990   4.480   3.013   3.484  0.0166 -0.7898 -1.0785
14953SOL     OW45991   6.381   1.836   4.109 -0.1309  0.1009  0.1570
14953SOL    HW145992   6.459   1.786   4.132  0.2061  0.4986 -0.0934
14953SOL    HW245993   6.375   1.903   4.176 -0.5240 -0.2134  0.4359
14954SOL     OW45994   5.610   2.695   1.604  0.1582 -0.8786  0.1861
14954SOL    HW145995   5.547   2.724   1.670 -0.0622 -2.3038  0.6345
14954SOL    HW245996   5.646   2.613   1.639  2.1435 -0.1918 -0.1366
14955SOL     OW45997   2.149   6.358   8.039 -0.0210 -0.1986  0.0921
14955SOL    HW145998   2.080   6.336   7.977 -2.0001  0.0942  2.0742
14955SOL    HW245999   2.228   6.366   7.985 -1.9181  1.8025 -2.6512
14956SOL     OW46000   2.041   6.073   6.334 -0.4027  0.0321  0.1944
14956SOL    HW146001   1.972   6.013   6.362  0.2852 -0.8750 -0.0294
14956SOL    HW246002   2.122   6.023   6.342  0.1071  0.6792 -0.7138
14957SOL     OW46003   6.419   8.002   0.255 -0.2668 -0.2204 -0.0917
14957SOL    HW146004   6.407   7.908   0.267 -1.2781 -0.0777  0.1493
14957SOL    HW246005   6.395   8.018   0.164 -2.9143  0.1805  0.5992
14958SOL     OW46006   4.954   1.763   0.226  0.2371  0.3911 -0.5641
14958SOL    HW146007   5.018   1.733   0.290  0.5227  1.5172 -0.2987
14958SOL    HW246008   4.876   1.711   0.244  0.6748 -0.0990 -0.0506
14959SOL     OW46009   8.065   4.507   2.607 -0.0100 -0.4210  0.1926
14959SOL    HW146010   8.129   4.440   2.631  0.2693 -0.1267  0.2764
14959SOL    HW246011   8.116   4.576   2.564 -0.3989 -0.5923 -0.5544
14960SOL     OW46012   5.596   4.380   8.829  0.2985  0.4020 -0.0547
14960SOL    HW146013   5.532   4.448   8.845  0.8300  0.8521  0.2150
14960SOL    HW246014   5.546   4.306   8.795 -0.4079  0.6181  0.4974
14961SOL     OW46015   6.619   4.201   1.158 -0.5765 -0.0230 -0.0514
14961SOL    HW146016   6.646   4.284   1.119  0.2879  0.2985  1.1710
14961SOL    HW246017   6.535   4.221   1.199 -0.3536  0.2613  0.2717
14962SOL     OW46018   6.042   2.194   4.844 -0.3507  0.4337 -0.2920
14962SOL    HW146019   6.086   2.250   4.779 -0.9084  1.5863  0.2818
14962SOL    HW246020   6.111   2.168   4.904  0.1124 -0.3816 -1.1572
14963SOL     OW46021   1.022   5.693   0.333 -0.3776  0.0439  0.2819
14963SOL    HW146022   0.997   5.663   0.421 -0.9801  0.4130  0.2453
14963SOL    HW246023   1.117   5.692   0.333 -0.3718 -1.3806  0.4516
14964SOL     OW46024   2.685   6.610   2.950 -0.2888 -0.3225  0.3516
14964SOL    HW146025   2.737   6.690   2.944 -1.0322  0.1586  0.3112
14964SOL    HW246026   2.602   6.637   2.989 -0.6777 -1.0068  0.0205
14965SOL     OW46027   2.129   7.652   8.179 -0.0075  0.4699  0.0314
14965SOL    HW146028   2.085   7.608   8.107  0.5150 -1.9203  1.0722
14965SOL    HW246029   2.064   7.711   8.215 -1.2300 -0.4385 -0.6114
14966SOL     OW46030   1.482   2.858   1.076 -0.0392 -0.0020  0.1076
14966SOL    HW146031   1.555   2.919   1.076 -0.6619  0.7825 -0.9044
14966SOL    HW246032   1.520   2.774   1.102  0.9034  0.7192  1.1334
14967SOL     OW46033   3.454   2.429   0.874 -0.3179 -0.1093 -0.2442
14967SOL    HW146034   3.364   2.440   0.841 -0.9332 -0.1358  1.3423
14967SOL    HW246035   3.448   2.355   0.935  0.6452  0.3231  0.3861
14968SOL     OW46036   6.965   7.779   3.998  0.2706 -0.5960  0.8458
14968SOL    HW146037   6.886   7.748   3.953 -0.8433  3.4570 -0.4240
14968SOL    HW246038   6.935   7.805   4.085  0.1014  1.0844  0.3127
14969SOL     OW46039   6.044   6.399   7.533 -0.0628  0.2478 -0.1916
14969SOL    HW146040   6.027   6.420   7.441  2.6917 -1.1332 -1.1270
14969SOL    HW246041   6.107   6.465   7.562  0.6093 -0.4907  0.0702
14970SOL     OW46042   4.421   3.321   0.757 -0.0099 -0.2828  0.2124
14970SOL    HW146043   4.345   3.375   0.777  0.0564  0.0990 -0.5307
14970SOL    HW246044   4.494   3.383   0.752  0.1571 -0.5053 -0.1531
14971SOL     OW46045   7.193   7.385   4.459 -0.2159  0.2670 -0.2716
14971SOL    HW146046   7.251   7.371   4.534  0.1608  1.3269 -0.3586
14971SOL    HW246047   7.132   7.453   4.488  1.7386  2.8762 -1.8430
14972SOL     OW46048   0.385   7.652   0.352 -0.2609  0.3118  0.5462
14972SOL    HW146049   0.357   7.684   0.266  0.0162  0.1429  0.3907
14972SOL    HW246050   0.370   7.557   0.348 -1.1897  0.4239  1.0445
14973SOL     OW46051   3.565   8.698   7.254 -0.4361  0.5021 -0.3573
14973SOL    HW146052   3.518   8.637   7.311  1.5443 -0.8690 -0.0878
14973SOL    HW246053   3.616   8.753   7.315  0.0005  0.4888 -0.7039
14974SOL     OW46054   6.349   2.296   0.021  0.5278 -0.3290 -0.1296
14974SOL    HW146055   6.332   2.221  -0.035  2.2708 -1.7309  1.0700
14974SOL    HW246056   6.355   2.370  -0.038 -1.8813 -0.9712 -1.2970
14975SOL     OW46057   4.902   2.223   4.977  0.2307 -0.1621 -0.1577
14975SOL    HW146058   4.968   2.260   5.036  0.2301 -1.6358  0.8373
14975SOL    HW246059   4.936   2.136   4.956 -0.6563 -0.3405 -0.8791
14976SOL     OW46060   8.842   8.769   6.664  0.5998 -0.1241 -0.0831
14976SOL    HW146061   8.917   8.780   6.606  1.1162 -0.4921  0.5005
14976SOL    HW246062   8.814   8.858   6.685  1.0302  0.0183 -0.1053
14977SOL     OW46063   3.082   4.674   6.733 -0.1349 -0.4017  0.4019
14977SOL    HW146064   3.154   4.613   6.715  0.5883  0.3093  0.8531
14977SOL    HW246065   3.095   4.701   6.823  0.8646  2.1047 -0.4157
14978SOL     OW46066   1.615   6.146   6.321  0.2028 -0.3666  0.0964
14978SOL    HW146067   1.529   6.116   6.290 -0.4848  1.5806  0.0015
14978SOL    HW246068   1.662   6.169   6.241  1.5252 -3.0021 -0.0002
14979SOL     OW46069   3.442   7.877   2.213  0.3211  0.4480 -0.3858
14979SOL    HW146070   3.384   7.843   2.282 -0.0847  1.4484 -0.2236
14979SOL    HW246071   3.385   7.929   2.157  1.2101  2.3646  0.3832
14980SOL     OW46072   2.610   8.834   8.029 -0.0192 -0.1097 -0.0399
14980SOL    HW146073   2.702   8.817   8.049  0.2781  0.6715 -0.6660
14980SOL    HW246074   2.590   8.915   8.078 -0.2394 -0.0248 -0.2704
14981SOL     OW46075   7.500   2.202   3.956 -0.5648  0.1194  0.1596
14981SOL    HW146076   7.511   2.174   3.865 -2.6704 -2.4782  0.5634
14981SOL    HW246077   7.563   2.273   3.968  4.3090 -3.3545 -1.6022
14982SOL     OW46078   5.941   1.570   6.162 -0.2243  0.5374  0.2940
14982SOL    HW146079   5.984   1.610   6.238 -0.1522  1.5572 -0.2605
14982SOL    HW246080   6.009   1.567   6.095 -0.4546  0.2072  0.0739
14983SOL     OW46081   1.681   6.310   1.802  0.1715 -0.2383 -0.3607
14983SOL    HW146082   1.629   6.262   1.737 -1.0127 -1.4549  1.3763
14983SOL    HW246083   1.723   6.241   1.854  2.2604  0.7203 -0.6920
14984SOL     OW46084   6.770   7.418   6.466  0.6254  0.4948  0.4801
14984SOL    HW146085   6.862   7.394   6.465  0.5616  0.2589  0.0627
14984SOL    HW246086   6.737   7.384   6.549  0.8542  0.3504  0.5119
14985SOL     OW46087   6.629   0.070   2.966  0.0640 -0.1835 -0.1212
14985SOL    HW146088   6.583  -0.014   2.965 -0.0705 -0.1706  1.5582
14985SOL    HW246089   6.711   0.053   2.919  0.0392 -1.2681  0.1906
14986SOL     OW46090   5.839   5.214   3.762 -0.2013  0.1661 -0.4601
14986SOL    HW146091   5.783   5.288   3.784 -1.8645 -1.0824 -0.2875
14986SOL    HW246092   5.806   5.142   3.817  2.9439 -0.1468  1.2525
14987SOL     OW46093   5.048   6.117   6.141  0.5331  0.7625  0.6297
14987SOL    HW146094   5.098   6.076   6.211  2.6294  2.6575  0.3339
14987SOL    HW246095   5.039   6.209   6.167 -0.0840  1.1485 -0.8053
14988SOL     OW46096   0.455   4.177   5.316  0.1455 -0.3908  0.3919
14988SOL    HW146097   0.501   4.233   5.253  0.2550  0.5484  1.2767
14988SOL    HW246098   0.378   4.227   5.341  0.0770 -0.7713  0.9684
14989SOL     OW46099   7.204   4.842   4.218  0.4506  0.1940  0.3082
14989SOL    HW146100   7.122   4.890   4.232  1.6440  2.2097  0.8924
14989SOL    HW246101   7.192   4.798   4.134 -1.3738  0.0804  0.5905
14990SOL     OW46102   3.209   5.214   4.510  0.2923  0.1596 -0.3725
14990SOL    HW146103   3.150   5.288   4.522  0.2778  0.1756 -0.5381
14990SOL    HW246104   3.284   5.234   4.565  0.4716  0.4964 -0.7363
14991SOL     OW46105   6.815   4.097   8.995  0.0794 -0.1069 -0.7016
14991SOL    HW146106   6.804   4.067   8.905 -2.2475  1.2128 -0.9299
14991SOL    HW246107   6.910   4.096   9.009  0.3785 -3.7139 -1.9137
14992SOL     OW46108   8.775   4.012   0.932 -0.0705  0.2213  0.0069
14992SOL    HW146109   8.753   4.048   1.018 -1.9979 -3.3156  1.1779
14992SOL    HW246110   8.702   4.039   0.876 -0.1364  0.3808  0.1676
14993SOL     OW46111   5.164   6.331   3.940  0.3797 -0.0257 -0.0621
14993SOL    HW146112   5.104   6.269   3.980 -0.5117  0.8083 -0.0643
14993SOL    HW246113   5.167   6.405   4.001  1.3010  0.0041 -0.1319
14994SOL     OW46114   7.475   6.114   3.993 -0.2083 -0.3387  0.2535
14994SOL    HW146115   7.412   6.047   4.019  0.5337 -0.6458  1.3551
14994SOL    HW246116   7.474   6.177   4.066 -0.6759  0.6997 -0.6270
14995SOL     OW46117   2.422   2.454   3.336 -0.3725  0.5876  0.4608
14995SOL    HW146118   2.433   2.499   3.253  1.9298 -1.6044 -0.5592
14995SOL    HW246119   2.432   2.522   3.403 -0.7911  2.1391 -1.0030
14996SOL     OW46120   2.030   5.193   3.377  0.2015 -0.5745 -0.1666
14996SOL    HW146121   2.006   5.156   3.462  0.1007  0.4646  0.2713
14996SOL    HW246122   2.012   5.286   3.385 -0.4055 -0.5330 -1.5410
14997SOL     OW46123   0.891   3.196   2.316  0.1864 -0.6498  0.3419
14997SOL    HW146124   0.840   3.251   2.374 -0.4635  0.3862 -1.1337
14997SOL    HW246125   0.981   3.229   2.325  0.0804 -0.4595  0.7184
14998SOL     OW46126   2.504   1.208   5.422 -0.2351  0.3164 -0.0835
14998SOL    HW146127   2.555   1.281   5.387 -0.1320 -0.0162 -0.6343
14998SOL    HW246128   2.413   1.232   5.404 -0.3845  1.4470  1.9082
14999SOL     OW46129   0.053   0.809   4.377  0.7531  0.0085  0.2148
14999SOL    HW146130   0.016   0.722   4.362 -0.4139  0.7541 -1.5574
14999SOL    HW246131  -0.022   0.862   4.407  1.4910  0.3777  1.4708
15000SOL     OW46132   8.733   9.080   8.888  0.2741  0.7116  0.1660
15000SOL    HW146133   8.801   9.142   8.915 -0.0607  1.8272 -1.4113
15000SOL    HW246134   8.768   8.994   8.911  0.8535  1.4441  2.2039
15001SOL     OW46135   8.251   7.003   0.018  0.4420 -0.3103 -1.0069
15001SOL    HW146136   8.325   7.049  -0.022  0.5025  0.2402 -0.2747
15001SOL    HW246137   8.264   6.911  -0.006  0.7525 -0.0655 -1.8164
15002SOL     OW46138   8.463   7.006   7.897  0.4104 -0.2854 -0.3491
15002SOL    HW146139   8.532   6.982   7.835  1.1814  0.3327  0.2619
15002SOL    HW246140   8.386   7.022   7.842  1.3389  1.2305 -1.2705
15003SOL     OW46141   1.782   6.479   1.382 -0.1065 -0.0726  0.1534
15003SOL    HW146142   1.843   6.543   1.417  0.3756  0.1531 -1.0632
15003SOL    HW246143   1.779   6.497   1.288 -2.1009 -0.0328  0.1741
15004SOL     OW46144   6.756   2.847   4.031  0.3559  0.2200 -0.2887
15004SOL    HW146145   6.846   2.876   4.015 -0.2432  1.4356 -1.6796
15004SOL    HW246146   6.745   2.857   4.126  1.5239  0.5441 -0.1665
15005SOL     OW46147   3.027   1.640   2.520  0.0325 -0.8831 -0.0852
15005SOL    HW146148   3.054   1.559   2.563 -2.1108 -0.8301  1.5199
15005SOL    HW246149   3.077   1.709   2.564  0.7074 -1.1739 -0.3834
15006SOL     OW46150   1.265   3.329   6.478 -0.1444  0.0524 -0.6427
15006SOL    HW146151   1.254   3.362   6.389  0.4414  1.8310 -0.0884
15006SOL    HW246152   1.198   3.374   6.529  0.1033 -0.2858 -0.0110
15007SOL     OW46153   3.525   2.154   1.400 -0.4048  0.3981 -0.6055
15007SOL    HW146154   3.590   2.145   1.469  1.0363  2.5782 -1.5795
15007SOL    HW246155   3.538   2.076   1.344  0.4682  0.1526 -0.0754
15008SOL     OW46156   6.332   6.249   1.840 -0.1264 -0.3113  0.4505
15008SOL    HW146157   6.341   6.269   1.933 -1.9455 -0.4494  0.7010
15008SOL    HW246158   6.411   6.201   1.817  0.5739  0.1722  1.8033
15009SOL     OW46159   0.308   0.585   1.906  0.5131  0.1743  0.0274
15009SOL    HW146160   0.237   0.646   1.927  0.1970 -0.3664  0.5816
15009SOL    HW246161   0.271   0.529   1.838  0.7292  0.4643 -0.3298
15010SOL     OW46162   5.843   5.750   3.066 -0.7118 -0.0615  0.1890
15010SOL    HW146163   5.900   5.770   2.992  0.3090 -0.4450  0.8583
15010SOL    HW246164   5.765   5.711   3.026 -0.0620 -0.5119 -0.6800
15011SOL     OW46165   3.975   1.638   3.170 -1.0197  0.2742 -0.0942
15011SOL    HW146166   3.933   1.713   3.127 -0.2562  1.5027  1.2307
15011SOL    HW246167   4.066   1.640   3.139 -1.6266 -1.9242 -2.3545
15012SOL     OW46168   1.108   2.118   0.080  0.0795  0.0149 -0.6245
15012SOL    HW146169   1.036   2.072   0.037  0.2687 -0.8703 -0.0286
15012SOL    HW246170   1.081   2.210   0.082 -1.4048 -0.4178  0.3392
15013SOL     OW46171   3.583   7.000   1.097 -0.0252  0.1030  0.3498
15013SOL    HW146172   3.553   7.027   1.184 -1.3612 -0.9812  0.2600
15013SOL    HW246173   3.510   7.022   1.039  0.4151 -0.1879 -0.3211
15014SOL     OW46174   2.657   4.809   2.264  0.1637  0.7864  0.0555
15014SOL    HW146175   2.590   4.854   2.315  0.6401  0.2517  1.1932
15014SOL    HW246176   2.716   4.879   2.236 -0.2796  1.1285 -0.0318
15015SOL     OW46177   8.061   7.329   0.533 -0.7023  0.1777 -0.5822
15015SOL    HW146178   8.117   7.358   0.605 -0.2587  0.0388 -0.8726
15015SOL    HW246179   7.976   7.314   0.574 -0.1331 -1.1836  0.1761
15016SOL     OW46180   0.258   6.295   2.126 -0.0773 -0.0771 -0.0187
15016SOL    HW146181   0.218   6.235   2.064  2.9321 -1.5348 -0.7572
15016SOL    HW246182   0.224   6.381   2.102 -0.0590 -0.7741 -2.8693
15017SOL     OW46183   7.505   1.303   2.604 -0.0048  0.1895 -0.1899
15017SOL    HW146184   7.561   1.372   2.640  0.2500  1.6227 -3.0692
15017SOL    HW246185   7.435   1.349   2.558 -0.0844 -1.4496 -1.8384
15018SOL     OW46186   8.384   0.784   8.615  0.1418 -0.3093 -0.6258
15018SOL    HW146187   8.430   0.713   8.660  0.4963  0.1290 -0.2966
15018SOL    HW246188   8.372   0.852   8.682 -1.2415 -0.5189 -0.6140
15019SOL     OW46189   5.790   3.652   0.854 -0.4062  0.2857 -0.6975
15019SOL    HW146190   5.804   3.737   0.812 -2.0307  0.9682  0.0575
15019SOL    HW246191   5.762   3.674   0.943  0.5827 -1.0824  0.0027
15020SOL     OW46192   7.213   3.534   3.727 -0.4581  1.0157  0.4118
15020SOL    HW146193   7.130   3.540   3.776 -0.4367  0.3062  0.5438
15020SOL    HW246194   7.187   3.548   3.636 -1.2318 -2.0812  0.0357
15021SOL     OW46195   4.166   6.999   7.270 -0.1825 -0.1946 -0.3942
15021SOL    HW146196   4.233   7.057   7.233  0.7675 -0.2848  1.0681
15021SOL    HW246197   4.167   6.922   7.214 -0.1915  0.4587 -1.3165
15022SOL     OW46198   4.225   4.097   3.786 -0.1141 -0.0060 -0.1571
15022SOL    HW146199   4.230   4.034   3.857 -0.1876  0.8769  0.6584
15022SOL    HW246200   4.136   4.089   3.752 -0.6062  0.6717  0.9221
15023SOL     OW46201   6.562   0.353   7.389  0.3925  0.6591 -0.4364
15023SOL    HW146202   6.545   0.292   7.318  0.1701 -0.3276  0.4444
15023SOL    HW246203   6.592   0.298   7.462  2.0341  1.7713 -0.1960
15024SOL     OW46204   5.186   8.613   8.268 -0.2382  0.3672 -0.1682
15024SOL    HW146205   5.097   8.648   8.260 -0.0456  1.1427  0.8414
15024SOL    HW246206   5.211   8.632   8.359  1.2244  0.8289 -0.6416
15025SOL     OW46207   5.729   1.530   2.724 -0.3074  0.1464  0.0305
15025SOL    HW146208   5.764   1.619   2.727  0.5737 -0.2003  0.3167
15025SOL    HW246209   5.782   1.486   2.657 -0.4281 -0.2891  0.2200
15026SOL     OW46210   7.370   0.187   2.534  0.1432 -0.1177 -0.0047
15026SOL    HW146211   7.342   0.096   2.544 -0.1438 -0.0411 -0.0902
15026SOL    HW246212   7.436   0.185   2.465  0.9336 -0.4165  0.7499
15027SOL     OW46213   5.321   3.830   0.255  0.4197 -0.1890 -0.1343
15027SOL    HW146214   5.257   3.773   0.298 -0.5036  1.0007  0.1436
15027SOL    HW246215   5.300   3.824   0.162 -0.8229  0.9703  0.0294
15028SOL     OW46216   6.678   1.711   7.621  0.1697 -0.0859 -0.1686
15028SOL    HW146217   6.582   1.702   7.615  0.3018 -0.8176 -1.5960
15028SOL    HW246218   6.706   1.629   7.662  0.2702 -0.3212 -0.7084
15029SOL     OW46219   7.666   2.561   6.895  0.2677 -0.4157 -0.1515
15029SOL    HW146220   7.630   2.597   6.976  1.0844  0.0059  0.0283
15029SOL    HW246221   7.596   2.572   6.831  0.6117  1.8538 -0.2104
15030SOL     OW46222   1.525   2.010   4.245 -0.0091 -0.8191 -0.0860
15030SOL    HW146223   1.619   2.026   4.240 -0.2933  0.8703 -0.8072
15030SOL    HW246224   1.498   2.050   4.329 -0.4070  0.8154 -0.9478
15031SOL     OW46225   9.062   7.238   7.130  0.3697  0.2728 -0.5627
15031SOL    HW146226   9.110   7.191   7.062  1.0191 -1.4083  0.9973
15031SOL    HW246227   9.061   7.329   7.100  1.5067 -0.2462 -2.3073
15032SOL     OW46228   2.259   5.954   7.956  0.1440  0.2329 -0.8480
15032SOL    HW146229   2.351   5.979   7.948 -0.4849  2.4734 -2.0746
15032SOL    HW246230   2.249   5.879   7.898  1.2073 -0.1556 -0.5594
15033SOL     OW46231   8.501   2.011   3.600 -0.0867  0.6320  0.1847
15033SOL    HW146232   8.436   2.012   3.671 -1.6670 -1.3699 -1.1142
15033SOL    HW246233   8.461   1.957   3.532  2.5442  0.1919 -1.1299
15034SOL     OW46234   3.219   6.291   2.875 -0.2148 -0.1716 -0.4221
15034SOL    HW146235   3.222   6.205   2.833  1.8686 -0.1185 -0.5029
15034SOL    HW246236   3.249   6.352   2.808  0.0022  0.3592  0.1416
15035SOL     OW46237   4.196   0.654   3.923 -0.7259  0.5925  0.4230
15035SOL    HW146238   4.289   0.631   3.916 -1.1164 -0.4238 -3.2686
15035SOL    HW246239   4.195   0.749   3.921  0.2137  0.6306  0.9358
15036SOL     OW46240   0.717   5.208   4.883 -0.1405 -0.3822 -0.0527
15036SOL    HW146241   0.761   5.203   4.968 -1.7093  0.5564  0.8758
15036SOL    HW246242   0.629   5.241   4.904 -0.6544 -0.3893 -2.0185
15037SOL     OW46243   5.826   7.346   3.361  0.2618  0.2968 -0.5378
15037SOL    HW146244   5.832   7.351   3.266 -1.0852  0.9175 -0.6127
15037SOL    HW246245   5.851   7.255   3.382 -1.4736 -0.4955 -1.6862
15038SOL     OW46246   0.217   0.553   3.099  0.3525  0.3109 -0.1279
15038SOL    HW146247   0.201   0.533   3.007  0.1879  2.4495 -0.5999
15038SOL    HW246248   0.290   0.614   3.099  0.8709 -0.2558  1.2310
15039SOL     OW46249   4.350   9.099   5.556 -0.5077 -0.1590  0.3935
15039SOL    HW146250   4.369   9.015   5.598  0.7593 -0.4140 -0.6361
15039SOL    HW246251   4.255   9.099   5.546 -0.4277 -2.1687 -0.9571
15040SOL     OW46252   4.807   2.768   6.619 -0.2337 -0.0440 -0.1033
15040SOL    HW146253   4.825   2.804   6.706 -2.4219 -1.4659  1.0296
15040SOL    HW246254   4.778   2.843   6.567  0.8302  0.7761  0.4561
15041SOL     OW46255   7.006   5.126   8.090 -0.0834 -0.4502 -0.4021
15041SOL    HW146256   7.070   5.070   8.046 -0.7711 -0.9101 -0.8308
15041SOL    HW246257   7.044   5.142   8.176  1.5422  0.8755 -1.2901
15042SOL     OW46258   5.577   3.222   5.789  0.1469 -0.0312  0.1918
15042SOL    HW146259   5.487   3.194   5.769  0.9078 -1.6937 -1.2779
15042SOL    HW246260   5.575   3.245   5.881 -2.2365  1.9742 -0.2310
15043SOL     OW46261   3.663   7.815   6.106  0.3897  0.0377 -0.2759
15043SOL    HW146262   3.690   7.763   6.182  0.0140  0.3119  0.0457
15043SOL    HW246263   3.687   7.761   6.030 -0.6672 -0.9561  0.0640
15044SOL     OW46264   6.720   4.289   6.839  0.0687 -0.1504 -0.1763
15044SOL    HW146265   6.667   4.317   6.914 -0.5771  0.1286 -0.7323
15044SOL    HW246266   6.808   4.280   6.875 -0.1711  0.2920  0.5480
15045SOL     OW46267   7.727   0.182   4.269  0.4031 -0.3142  0.4123
15045SOL    HW146268   7.716   0.206   4.361 -0.1558 -0.7974  0.4846
15045SOL    HW246269   7.637   0.171   4.237  0.4702  2.3024 -0.8813
15046SOL     OW46270   6.266   7.463   0.898 -0.1685  0.6298 -0.1758
15046SOL    HW146271   6.187   7.462   0.952  1.1913 -1.7534  1.9814
15046SOL    HW246272   6.338   7.456   0.961  1.5854 -0.7225 -2.1969
15047SOL     OW46273   0.313   5.429   0.768 -0.0396 -0.1708  0.7503
15047SOL    HW146274   0.265   5.506   0.798 -0.9508 -0.7548  0.8199
15047SOL    HW246275   0.314   5.437   0.673 -0.3426 -0.2008  0.7448
15048SOL     OW46276   7.280   6.425   6.883 -0.1563 -0.7499 -0.1691
15048SOL    HW146277   7.237   6.463   6.806  0.7417 -0.4125 -0.5207
15048SOL    HW246278   7.340   6.494   6.913 -0.8830 -0.6704  1.1681
15049SOL     OW46279   0.010   3.690   3.685  0.4160  1.0343 -0.2642
15049SOL    HW146280   0.033   3.736   3.604  0.5968  1.0326 -0.2150
15049SOL    HW246281   0.049   3.743   3.754  1.3188  0.3926 -0.2544
15050SOL     OW46282   6.244   8.736   3.100 -0.0313 -0.1239 -0.0592
15050SOL    HW146283   6.178   8.765   3.036  0.7027 -1.0635 -1.2734
15050SOL    HW246284   6.225   8.644   3.115  0.7913 -0.3134 -0.1424
15051SOL     OW46285   2.751   3.286   6.472  0.5052  0.5168  0.0434
15051SOL    HW146286   2.675   3.330   6.434 -0.8384 -0.8713  1.0236
15051SOL    HW246287   2.825   3.318   6.420 -0.9217  0.6679 -2.0329
15052SOL     OW46288   4.459   3.045   5.450 -0.6371  0.4447 -0.0011
15052SOL    HW146289   4.380   3.047   5.504 -1.0171 -0.2830 -0.5124
15052SOL    HW246290   4.500   2.961   5.471 -0.5195  0.3840 -0.4669
15053SOL     OW46291   0.949   4.134   6.587  0.6840 -0.5343 -0.2735
15053SOL    HW146292   0.961   4.228   6.575  2.0116 -0.6404  0.0683
15053SOL    HW246293   1.033   4.103   6.620  0.9616 -2.1674 -2.3103
15054SOL     OW46294   2.926   4.302   7.871 -0.1148  0.4834 -0.3619
15054SOL    HW146295   2.870   4.224   7.875  0.5755 -0.0155 -0.2689
15054SOL    HW246296   2.927   4.327   7.779 -0.9894  0.8662 -0.2744
15055SOL     OW46297   3.992   6.769   2.793 -0.0598 -0.4590  0.0132
15055SOL    HW146298   4.060   6.766   2.861 -0.9254  0.4002  0.9503
15055SOL    HW246299   3.916   6.728   2.833 -1.0067  1.3032  0.0951
15056SOL     OW46300   6.355   5.896   0.846  0.7167 -0.0542 -0.4591
15056SOL    HW146301   6.348   5.946   0.764  1.5270  0.6169 -0.1386
15056SOL    HW246302   6.443   5.917   0.879  0.5436 -0.6179  0.3875
15057SOL     OW46303   7.367   2.276   7.838 -0.3315 -0.7996  0.0941
15057SOL    HW146304   7.418   2.356   7.834 -0.9517 -0.4088 -0.1370
15057SOL    HW246305   7.352   2.253   7.746 -0.4024 -1.0271  0.1603
15058SOL     OW46306   5.926   3.803   2.231 -0.6125  0.2514  0.1839
15058SOL    HW146307   5.836   3.787   2.258 -0.5634 -0.2121  0.0858
15058SOL    HW246308   5.959   3.717   2.203 -0.0161  0.3387  0.5888
15059SOL     OW46309   1.548   4.952   5.028  0.3484 -0.1343  0.1660
15059SOL    HW146310   1.480   4.891   5.056 -0.7906  1.0751  0.1298
15059SOL    HW246311   1.592   4.908   4.955 -0.1326 -1.0949  0.4490
15060SOL     OW46312   3.281   8.609   4.362 -0.1019  0.0555 -0.0959
15060SOL    HW146313   3.283   8.705   4.371 -0.5092 -0.0428  1.3969
15060SOL    HW246314   3.357   8.588   4.308  1.6576  1.0402  1.8414
15061SOL     OW46315   4.732   2.606   2.962  0.0047  0.1100  0.7134
15061SOL    HW146316   4.781   2.590   2.882  1.5585  2.3134  1.1452
15061SOL    HW246317   4.654   2.652   2.934  1.5695  2.8431  0.5484
15062SOL     OW46318   5.128   2.488   3.969  0.4882  0.4128 -0.3146
15062SOL    HW146319   5.136   2.482   3.873  0.7663  0.8884 -0.3261
15062SOL    HW246320   5.213   2.522   3.997  1.0938 -1.4753  0.2840
15063SOL     OW46321   4.374   3.745   3.117 -0.2130  0.2710 -0.1314
15063SOL    HW146322   4.383   3.803   3.041  1.8466 -0.7632 -0.7649
15063SOL    HW246323   4.395   3.658   3.083  3.0561  0.0537  1.9528
15064SOL     OW46324   1.213   9.080   1.755  0.4594  0.5015  0.0336
15064SOL    HW146325   1.285   9.042   1.806  0.7423 -1.2538 -1.5462
15064SOL    HW246326   1.178   9.006   1.705 -0.4064  1.9325 -1.5852
15065SOL     OW46327   2.761   5.080   3.199  0.0355 -0.2868  0.0213
15065SOL    HW146328   2.765   4.995   3.154 -0.5206 -0.3510  0.0805
15065SOL    HW246329   2.669   5.087   3.226  0.0134  0.4632 -0.2333
15066SOL     OW46330   2.754   6.516   5.410  0.1038  0.0068 -0.3030
15066SOL    HW146331   2.667   6.556   5.403 -0.7071 -1.4499  0.9283
15066SOL    HW246332   2.750   6.441   5.351  0.1924 -0.6130  0.4731
15067SOL     OW46333   4.671   4.346   0.841 -0.4013 -0.4904 -0.5895
15067SOL    HW146334   4.652   4.418   0.901 -1.5903 -0.5326 -0.8840
15067SOL    HW246335   4.662   4.385   0.754  1.1262 -0.4721 -0.7715
15068SOL     OW46336   2.886   6.643   9.112  0.0509  0.0364  0.0306
15068SOL    HW146337   2.841   6.560   9.094  2.3415 -1.4796  0.6783
15068SOL    HW246338   2.954   6.619   9.176  1.4884  2.2161 -0.5780
15069SOL     OW46339   6.754   1.010   6.531  0.0280  0.3621  0.0729
15069SOL    HW146340   6.821   0.958   6.487 -0.4264 -1.1526  1.1264
15069SOL    HW246341   6.688   1.026   6.463  1.5100  2.1200 -1.0623
15070SOL     OW46342   2.478   1.967   0.350  0.0893 -0.1291 -0.1991
15070SOL    HW146343   2.553   1.941   0.298 -0.1374 -1.5769  0.1678
15070SOL    HW246344   2.511   1.973   0.439  0.0471  0.4909 -0.2190
15071SOL     OW46345   1.438   6.474   7.806  0.1209 -0.5099  0.3644
15071SOL    HW146346   1.421   6.540   7.739 -0.9019 -0.1462  0.9608
15071SOL    HW246347   1.516   6.506   7.852  0.2864 -0.2933 -0.0591
15072SOL     OW46348   7.979   5.480   7.765 -0.2344 -0.2053 -0.9222
15072SOL    HW146349   7.965   5.436   7.849 -0.8135  1.9963  0.2276
15072SOL    HW246350   7.895   5.474   7.719 -0.4760  0.1424 -0.5336
15073SOL     OW46351   5.029   4.742   2.369  0.1448 -0.0188 -0.4251
15073SOL    HW146352   5.029   4.813   2.434 -0.9282 -1.4153  1.1825
15073SOL    HW246353   5.120   4.736   2.340  0.5722  0.9055  0.6592
15074SOL     OW46354   7.469   7.581   5.402  0.6126  0.7304  0.4570
15074SOL    HW146355   7.398   7.599   5.463 -1.4519 -0.5298 -1.4383
15074SOL    HW246356   7.531   7.528   5.452  0.5748  2.3186  2.3099
15075SOL     OW46357   2.067   3.383   4.974 -0.0651  0.1411 -0.0853
15075SOL    HW146358   2.091   3.440   4.901  0.7099 -0.0989 -0.0302
15075SOL    HW246359   1.979   3.412   4.999  1.1967  3.0751  1.5808
15076SOL     OW46360   2.775   5.448   1.500  0.4477 -0.3605 -0.3548
15076SOL    HW146361   2.686   5.425   1.527  0.3898 -1.6005 -1.5103
15076SOL    HW246362   2.793   5.391   1.425  1.9716  0.3460 -0.5616
15077SOL     OW46363   1.608   4.154   7.992 -0.4554  0.3310 -0.4676
15077SOL    HW146364   1.569   4.068   7.977 -0.6040  0.1507  0.8541
15077SOL    HW246365   1.696   4.148   7.956  0.4327 -1.1997  1.7757
15078SOL     OW46366   8.596   4.831   4.040  0.1021 -0.4113  0.4296
15078SOL    HW146367   8.510   4.834   4.082 -0.4868 -2.5310 -0.4644
15078SOL    HW246368   8.651   4.784   4.102  0.1813 -0.4203  0.3525
15079SOL     OW46369   8.015   5.664   5.114  0.2073  0.2953  0.1026
15079SOL    HW146370   7.989   5.572   5.105  0.4578  0.1334  0.9019
15079SOL    HW246371   8.102   5.668   5.074 -0.1238  0.3646 -0.6304
15080SOL     OW46372   4.152   2.405   0.483  0.4796  0.0629  0.0050
15080SOL    HW146373   4.065   2.381   0.452  0.9625 -0.1995 -1.1766
15080SOL    HW246374   4.166   2.349   0.560 -0.1088 -0.4104 -0.2220
15081SOL     OW46375   7.086   7.702   6.194 -0.0589  0.0703  0.2345
15081SOL    HW146376   7.074   7.666   6.282 -0.8031 -0.7444 -0.1794
15081SOL    HW246377   7.077   7.796   6.205 -1.0910 -0.0823  0.9035
15082SOL     OW46378   0.487   4.585   2.500  0.0038 -0.2250  0.9831
15082SOL    HW146379   0.551   4.541   2.557  0.4915 -1.6223 -0.5442
15082SOL    HW246380   0.405   4.583   2.549  0.5395 -0.8669  1.8735
15083SOL     OW46381   0.097   6.743   3.284  0.0036  0.1118 -0.3913
15083SOL    HW146382   0.168   6.712   3.228 -0.0437 -1.1894  0.2216
15083SOL    HW246383   0.022   6.688   3.261 -0.5442  0.8380 -0.3721
15084SOL     OW46384   8.930   8.335   2.087 -0.5939  0.1345 -0.1260
15084SOL    HW146385   8.972   8.279   2.022 -1.4502 -2.2198  1.1993
15084SOL    HW246386   8.837   8.313   2.081 -1.0267  1.7728  0.1624
15085SOL     OW46387   5.823   5.693   4.803 -0.2196 -0.0594  0.3029
15085SOL    HW146388   5.854   5.706   4.713 -0.3543  0.8304  0.3766
15085SOL    HW246389   5.728   5.696   4.796 -0.2727 -1.1267  0.3237
15086SOL     OW46390   5.148   6.777   8.210 -0.2385 -0.1812  0.8628
15086SOL    HW146391   5.169   6.779   8.117 -1.2198 -2.1428  0.5426
15086SOL    HW246392   5.064   6.823   8.217  0.5152  1.2390  1.0456
15087SOL     OW46393   4.674   1.670   2.706  0.3178  0.0434 -0.1963
15087SOL    HW146394   4.636   1.731   2.643  1.3391  0.5749 -0.3199
15087SOL    HW246395   4.620   1.592   2.699 -0.9329  0.8835 -0.1299
15088SOL     OW46396   0.183   4.132   7.930 -0.2426 -0.2454  0.2963
15088SOL    HW146397   0.119   4.093   7.872 -3.5887  2.5889  1.7609
15088SOL    HW246398   0.256   4.069   7.931 -2.6332 -3.3509 -1.9983
15089SOL     OW46399   6.434   0.109   0.471 -0.1108 -0.1175 -0.2487
15089SOL    HW146400   6.515   0.085   0.426 -0.7328  0.9041 -2.0402
15089SOL    HW246401   6.367   0.054   0.430 -0.7945  1.2839 -1.1059
15090SOL     OW46402   8.145   4.107   1.697  0.0787 -0.0326 -0.2163
15090SOL    HW146403   8.224   4.113   1.751 -0.7422  0.3644  0.9866
15090SOL    HW246404   8.084   4.169   1.738 -1.4110 -1.5029 -0.1484
15091SOL     OW46405   7.565   3.750   0.135 -0.1155  0.4086  0.7432
15091SOL    HW146406   7.524   3.784   0.215 -0.5279  1.5409  0.0648
15091SOL    HW246407   7.611   3.825   0.098  0.9746 -0.3753  0.4635
15092SOL     OW46408   2.947   3.433   1.612  0.2717 -0.0326  0.2275
15092SOL    HW146409   2.975   3.509   1.664  0.9068  0.0647 -0.2497
15092SOL    HW246410   3.008   3.364   1.638 -1.4060 -0.9491  2.0311
15093SOL     OW46411   7.240   1.019   7.152 -0.1747  0.1604 -0.1281
15093SOL    HW146412   7.316   1.036   7.097 -2.0241  0.1857 -2.8851
15093SOL    HW246413   7.219   1.104   7.191  0.3286  0.4927 -0.5746
15094SOL     OW46414   0.077   0.788   1.555  0.3549  1.0856 -0.2263
15094SOL    HW146415   0.147   0.836   1.600  0.7232  0.5094 -0.1757
15094SOL    HW246416  -0.004   0.830   1.585  0.4376 -0.4185  2.4563
15095SOL     OW46417   5.207   2.463   3.693  0.3492 -0.1558 -0.9057
15095SOL    HW146418   5.210   2.535   3.630 -0.3496  2.7332  2.0787
15095SOL    HW246419   5.123   2.420   3.676 -1.0773  2.2305 -0.4184
15096SOL     OW46420   5.173   0.808   0.887  0.3230  0.1661  0.2152
15096SOL    HW146421   5.252   0.833   0.839 -0.1408 -0.1565 -0.7646
15096SOL    HW246422   5.111   0.781   0.818 -0.5234  0.0996  0.9791
15097SOL     OW46423   3.302   5.428   2.880  0.2357  0.1552  0.0076
15097SOL    HW146424   3.313   5.503   2.938  1.2800  0.1252 -0.1236
15097SOL    HW246425   3.210   5.430   2.855  0.0565  0.8859  0.6909
15098SOL     OW46426   8.888   0.375   1.676 -0.0034  0.3688 -0.4706
15098SOL    HW146427   8.872   0.321   1.599 -0.4321  0.4857 -0.4662
15098SOL    HW246428   8.812   0.361   1.732 -0.1338  0.9871 -0.4807
15099SOL     OW46429   0.438   1.306   1.705 -0.2993  0.0332 -0.1685
15099SOL    HW146430   0.488   1.269   1.632  0.7300 -1.4966  1.2200
15099SOL    HW246431   0.463   1.252   1.780 -0.7208  2.0299  1.4825
15100SOL     OW46432   3.609   3.578   6.559 -0.1306 -0.1383 -0.3322
15100SOL    HW146433   3.683   3.591   6.500 -0.1987 -1.6259 -0.7890
15100SOL    HW246434   3.606   3.484   6.573 -1.1478  0.0289  0.7320
15101SOL     OW46435   2.113   4.948   4.676  0.5912 -0.2828 -0.1167
15101SOL    HW146436   2.132   4.889   4.749  0.5275 -0.0291  0.1020
15101SOL    HW246437   2.198   4.965   4.636  0.6999  0.0652  0.2664
15102SOL     OW46438   8.930   2.070   3.421  0.4711 -0.3863  0.1131
15102SOL    HW146439   8.840   2.092   3.443 -0.1687 -0.3064 -2.3146
15102SOL    HW246440   8.978   2.152   3.432  0.7015 -0.8095  3.1135
15103SOL     OW46441   8.549   7.449   8.286 -0.1698  0.4116 -0.1994
15103SOL    HW146442   8.636   7.444   8.327  0.4684  0.7920 -1.4423
15103SOL    HW246443   8.498   7.504   8.345  0.3647 -0.0055  0.6654
15104SOL     OW46444   2.669   3.674   4.352 -0.1557  0.2338 -0.0442
15104SOL    HW146445   2.657   3.708   4.263 -1.2157  0.3910  0.1402
15104SOL    HW246446   2.601   3.606   4.361  0.1302  0.0193  0.5463
15105SOL     OW46447   0.260   1.862   8.727 -0.8150 -0.3736 -0.6047
15105SOL    HW146448   0.316   1.930   8.688 -2.4687  1.4459  0.0210
15105SOL    HW246449   0.195   1.843   8.660 -1.4197  0.0014 -0.1393
15106SOL     OW46450   7.472   3.921   7.219  0.7240 -0.0396  0.1340
15106SOL    HW146451   7.536   3.858   7.252  0.0345 -1.3605 -0.9516
15106SOL    HW246452   7.517   3.968   7.149  0.5096 -1.0423 -0.7025
15107SOL     OW46453   4.127   0.916   3.883 -0.1000  0.5520  0.2547
15107SOL    HW146454   4.060   0.902   3.949 -1.3618  1.9819 -0.6579
15107SOL    HW246455   4.189   0.976   3.923  0.7760 -0.8970  1.1589
15108SOL     OW46456   5.727   7.490   3.879 -0.2592  0.7582  0.3125
15108SOL    HW146457   5.746   7.468   3.787  2.6492  1.5803  0.6184
15108SOL    HW246458   5.733   7.407   3.925  1.9340  0.8033  0.2162
15109SOL     OW46459   4.492   0.360   2.723 -0.0620  0.3745 -0.2269
15109SOL    HW146460   4.543   0.441   2.728  0.7463 -0.0980 -0.4645
15109SOL    HW246461   4.532   0.304   2.790  0.5280 -0.4269 -1.2216
15110SOL     OW46462   5.908   1.077   6.614 -0.3801  0.4566  0.3380
15110SOL    HW146463   5.936   0.994   6.574  0.7047  1.0601 -0.1886
15110SOL    HW246464   5.813   1.078   6.601 -0.1900  0.1933 -1.4177
15111SOL     OW46465   3.827   4.565   5.897  0.2909  0.8050 -0.3178
15111SOL    HW146466   3.799   4.573   5.988  2.1329  0.0366  0.3523
15111SOL    HW246467   3.769   4.624   5.849  0.9397  3.2625  1.7124
15112SOL     OW46468   8.725   6.771   3.128 -0.2890  0.0029  0.3610
15112SOL    HW146469   8.645   6.717   3.126 -0.6666  0.5278  1.0181
15112SOL    HW246470   8.710   6.833   3.199  0.4417  0.5230  0.0654
15113SOL     OW46471   6.129   0.505   5.684 -0.1935  0.0222  0.1753
15113SOL    HW146472   6.149   0.507   5.591 -2.0478 -0.6594 -0.2774
15113SOL    HW246473   6.183   0.575   5.721 -1.6996  2.4991 -1.9196
15114SOL     OW46474   9.105   8.241   1.551  0.0477  0.0291  0.0975
15114SOL    HW146475   9.198   8.256   1.533  0.1413 -0.8270 -0.1814
15114SOL    HW246476   9.092   8.147   1.536 -0.7974  0.0795  0.4333
15115SOL     OW46477   8.998   8.169   6.386  0.1089 -0.2785 -0.5894
15115SOL    HW146478   9.038   8.255   6.400  1.9001 -1.3264  1.4815
15115SOL    HW246479   9.069   8.116   6.350 -0.3342 -1.3882  0.1198
15116SOL     OW46480   6.741   3.745   2.919 -0.1444  0.3034  0.3876
15116SOL    HW146481   6.719   3.652   2.914  0.9845  0.0179  0.4378
15116SOL    HW246482   6.658   3.790   2.908 -0.7418 -0.7193  0.5867
15117SOL     OW46483   8.534   8.774   3.598 -0.3331  0.6306 -0.6749
15117SOL    HW146484   8.553   8.800   3.508 -2.7766 -0.7372 -1.7028
15117SOL    HW246485   8.495   8.852   3.638  1.0208  1.3318 -0.6554
15118SOL     OW46486   2.473   8.957   3.142  0.5511 -0.0931 -0.1034
15118SOL    HW146487   2.477   8.871   3.099  1.1111  0.9907 -2.3787
15118SOL    HW246488   2.539   8.952   3.211  0.0036 -1.7461  0.3487
15119SOL     OW46489   4.709   8.112   0.121  1.0208 -0.0977  0.2262
15119SOL    HW146490   4.708   8.108   0.217  1.1054 -1.0032  0.1916
15119SOL    HW246491   4.738   8.201   0.102 -0.6183  0.6718  1.0413
15120SOL     OW46492   2.148   2.586   8.693 -0.0435 -0.3377  0.3207
15120SOL    HW146493   2.154   2.631   8.609  1.1081 -1.1762 -0.0696
15120SOL    HW246494   2.141   2.657   8.757 -2.3528  0.2884 -0.5387
15121SOL     OW46495   1.537   7.802   8.353 -0.0512  0.1008 -0.1984
15121SOL    HW146496   1.483   7.857   8.410 -0.2341 -1.8057  1.5948
15121SOL    HW246497   1.508   7.713   8.371  2.3757 -0.8562 -0.6368
15122SOL     OW46498   2.594   6.344   8.851  0.6601 -0.3244 -0.7215
15122SOL    HW146499   2.667   6.319   8.794  0.3446  1.5503 -2.0512
15122SOL    HW246500   2.521   6.290   8.822  1.3040 -1.7254  0.1628
15123SOL     OW46501   7.657   2.660   4.892  0.4936  0.0499 -0.1534
15123SOL    HW146502   7.572   2.661   4.936  0.6933  1.9205  0.2678
15123SOL    HW246503   7.714   2.612   4.952 -0.2599 -1.3709 -0.5168
15124SOL     OW46504   5.603   6.027   3.649 -0.2953  0.4608 -0.1225
15124SOL    HW146505   5.541   5.961   3.680  1.9120 -0.5545  2.5221
15124SOL    HW246506   5.607   6.092   3.719  2.2140  0.0429  0.1992
15125SOL     OW46507   1.942   6.787   4.475  0.0614 -0.3127 -0.5211
15125SOL    HW146508   1.975   6.708   4.433  0.2587  0.1623 -1.2764
15125SOL    HW246509   1.962   6.775   4.568 -1.0526 -1.7159 -0.4166
15126SOL     OW46510   3.444   0.844   4.939  0.5537  0.0738 -0.0703
15126SOL    HW146511   3.512   0.784   4.970 -0.0793 -0.7373 -0.2178
15126SOL    HW246512   3.375   0.837   5.005  0.2943  0.3161 -0.3155
15127SOL     OW46513   3.981   8.547   5.688  0.3072 -0.3723  0.1974
15127SOL    HW146514   4.034   8.597   5.750  1.5749 -1.2680 -0.1249
15127SOL    HW246515   3.935   8.483   5.742 -2.1098  1.6967  0.7469
15128SOL     OW46516   0.099   5.121   2.330  0.5144 -0.3006  0.3023
15128SOL    HW146517   0.162   5.077   2.273  1.5396 -0.6892  1.6901
15128SOL    HW246518   0.135   5.110   2.418 -1.3257 -0.2220  1.0944
15129SOL     OW46519   1.377   0.413   6.526 -0.1664 -0.2860 -0.0657
15129SOL    HW146520   1.286   0.403   6.554  0.0213 -0.3921  0.5259
15129SOL    HW246521   1.427   0.363   6.590  0.3799  0.4855  0.1263
15130SOL     OW46522   7.135   0.217   3.201 -0.0589 -0.7195 -0.3656
15130SOL    HW146523   7.132   0.123   3.182  1.3668 -0.7179 -0.6933
15130SOL    HW246524   7.084   0.226   3.281  3.2126 -2.4811  2.1787
15131SOL     OW46525   5.787   7.994   2.884 -0.0189  0.4335  0.0490
15131SOL    HW146526   5.745   7.971   2.801 -0.3209  1.9669 -0.2469
15131SOL    HW246527   5.792   8.089   2.884 -0.4368  0.5110  2.0004
15132SOL     OW46528   6.281   4.879   0.112  0.2831 -0.1066 -0.3805
15132SOL    HW146529   6.360   4.910   0.155 -0.0677  0.3064 -0.0264
15132SOL    HW246530   6.210   4.900   0.173 -0.2621  0.7587 -1.2768
15133SOL     OW46531   7.966   4.557   5.885 -0.0629  0.0677  0.2327
15133SOL    HW146532   8.005   4.506   5.814  0.4801  0.3174  0.3455
15133SOL    HW246533   7.902   4.614   5.842 -1.4330 -1.4068  0.2137
15134SOL     OW46534   7.192   3.760   6.124 -0.4748  0.6693 -0.5796
15134SOL    HW146535   7.127   3.713   6.177 -0.7857  1.7485  0.0369
15134SOL    HW246536   7.269   3.765   6.180 -0.4284  0.8428 -0.6590
15135SOL     OW46537   7.293   4.641   0.697 -0.4724  0.3711 -0.2573
15135SOL    HW146538   7.252   4.624   0.612  0.4192 -1.9721 -0.2805
15135SOL    HW246539   7.386   4.650   0.677 -0.2993  0.1332  0.4189
15136SOL     OW46540   3.479   6.955   4.729 -0.8172  0.3041  0.5702
15136SOL    HW146541   3.434   7.004   4.661  0.3063  0.1246 -0.3447
15136SOL    HW246542   3.466   6.863   4.706  2.8357  0.1586 -1.8443
15137SOL     OW46543   4.682   1.006   1.215  0.2378  0.6095 -0.0850
15137SOL    HW146544   4.663   1.062   1.140 -2.4380 -2.3020 -1.8193
15137SOL    HW246545   4.735   0.935   1.180  0.0454 -0.1348  1.0692
15138SOL     OW46546   6.932   3.243   8.982 -0.0187  0.5197  0.2841
15138SOL    HW146547   6.886   3.316   8.939 -0.2473  0.5051  0.4995
15138SOL    HW246548   6.961   3.280   9.065  0.1309  0.4509  0.2621
15139SOL     OW46549   7.976   3.582   8.299  0.2941 -0.2382  0.1213
15139SOL    HW146550   7.957   3.618   8.212 -0.2975 -2.3779 -0.7200
15139SOL    HW246551   8.071   3.594   8.309  0.3127  0.3644 -0.6663
15140SOL     OW46552   3.408   1.875   8.380 -0.8436 -0.4749  0.0846
15140SOL    HW146553   3.460   1.941   8.427 -0.2247 -0.8134 -0.1171
15140SOL    HW246554   3.457   1.794   8.390 -1.6297 -0.9276  0.3718
15141SOL     OW46555   6.208   2.911   2.648 -0.3390 -0.1621  0.3668
15141SOL    HW146556   6.242   2.941   2.563 -1.4877 -1.1265 -0.4754
15141SOL    HW246557   6.196   2.992   2.698  0.4915  0.4190 -0.3263
15142SOL     OW46558   0.705   5.285   7.513  0.6331  0.2544 -0.3613
15142SOL    HW146559   0.799   5.272   7.497  0.4167  0.0615 -1.5756
15142SOL    HW246560   0.700   5.371   7.555  1.4275 -0.1943  0.7143
15143SOL     OW46561   1.960   1.676   6.265  0.5645  0.1494 -0.2917
15143SOL    HW146562   1.883   1.673   6.209  0.0287 -0.7510  0.4517
15143SOL    HW246563   2.021   1.734   6.220 -0.1481  0.0608 -1.4049
15144SOL     OW46564   2.482   2.550   0.565  0.0666 -0.1691  0.1745
15144SOL    HW146565   2.572   2.524   0.546 -0.2088 -1.9956  1.1124
15144SOL    HW246566   2.434   2.529   0.485  0.7034  2.6149 -1.0771
15145SOL     OW46567   8.534   6.564   1.705 -0.2807 -0.4793  0.1314
15145SOL    HW146568   8.601   6.533   1.644 -0.3882  0.1162 -0.2961
15145SOL    HW246569   8.486   6.485   1.729  1.5041 -1.1727  1.6255
15146SOL     OW46570   5.493   6.029   8.538 -0.4089  0.3082  0.4942
15146SOL    HW146571   5.407   6.042   8.577 -0.2038 -1.7608  1.7679
15146SOL    HW246572   5.481   6.051   8.446 -1.7626  2.0178  1.0261
15147SOL     OW46573   3.566   2.607   5.712 -0.6937 -0.1142 -0.3161
15147SOL    HW146574   3.558   2.532   5.771  0.1244 -0.6570 -0.8652
15147SOL    HW246575   3.616   2.573   5.638 -0.2976  0.9874 -0.5672
15148SOL     OW46576   6.114   6.051   8.026 -0.1045  0.4478  0.5272
15148SOL    HW146577   6.045   6.019   7.967  0.8596 -0.4916 -0.1365
15148SOL    HW246578   6.161   6.116   7.974 -0.5685  1.2190  1.0423
15149SOL     OW46579   4.883   5.879   6.256 -0.1750  0.0428  0.3219
15149SOL    HW146580   4.903   5.934   6.180  2.0722 -1.2697 -0.1335
15149SOL    HW246581   4.791   5.898   6.276 -0.1974  2.0722 -1.3220
15150SOL     OW46582   0.619   1.310   5.820  0.1634  0.1302  0.6471
15150SOL    HW146583   0.579   1.321   5.906  0.3742  0.1753  0.7412
15150SOL    HW246584   0.545   1.297   5.760 -0.0638  1.3153  0.6387
15151SOL     OW46585   8.597   2.966   6.023 -1.0863  0.2335 -0.2345
15151SOL    HW146586   8.540   3.006   6.089 -0.0532 -2.0348  2.2590
15151SOL    HW246587   8.676   3.020   6.024 -1.6886  1.1601 -0.8779
15152SOL     OW46588   7.310   5.243   2.315 -0.1025 -0.2148 -0.2152
15152SOL    HW146589   7.344   5.266   2.228 -0.2683 -1.1331 -0.5282
15152SOL    HW246590   7.378   5.188   2.353  0.0914  0.4062  0.3571
15153SOL     OW46591   8.001   7.523   8.960  0.1080  0.3696 -0.0676
15153SOL    HW146592   7.972   7.612   8.981 -1.0205  0.0926 -0.3658
15153SOL    HW246593   8.071   7.534   8.896 -0.8718  1.0113 -1.0582
15154SOL     OW46594   0.870   0.188   8.182 -0.0075  0.2145  0.2674
15154SOL    HW146595   0.932   0.260   8.179  2.3081 -1.6788 -2.3302
15154SOL    HW246596   0.836   0.182   8.092  0.5650 -2.3906  0.1440
15155SOL     OW46597   5.439   1.731   0.154  0.1953  0.6002  0.0677
15155SOL    HW146598   5.527   1.738   0.118  0.4155 -1.8831 -0.0454
15155SOL    HW246599   5.382   1.751   0.080  0.6442  1.8480  0.0443
15156SOL     OW46600   5.463   7.663   7.781 -0.2658 -0.0789  0.1307
15156SOL    HW146601   5.437   7.583   7.827 -1.4880  0.8532  1.1475
15156SOL    HW246602   5.388   7.684   7.726  1.4652 -1.6133 -3.0677
15157SOL     OW46603   3.448   3.307   3.915 -0.4210 -0.0401  0.4989
15157SOL    HW146604   3.353   3.308   3.900 -0.2001  0.2446 -0.9354
15157SOL    HW246605   3.474   3.399   3.914 -0.2361 -0.0507  1.7992
15158SOL     OW46606   7.921   8.214   0.899 -0.4024 -0.5743 -0.6176
15158SOL    HW146607   7.837   8.170   0.887 -1.4521  1.3382 -0.6700
15158SOL    HW246608   7.923   8.238   0.991 -0.0203 -0.4094 -0.6669
15159SOL     OW46609   4.716   8.087   4.983  0.0675  0.1657 -0.0913
15159SOL    HW146610   4.670   8.014   5.024  0.6965  0.3287  0.9321
15159SOL    HW246611   4.708   8.070   4.889  0.4399 -1.3791  0.1259
15160SOL     OW46612   8.908   2.111   4.975  0.1770 -0.1006 -0.2699
15160SOL    HW146613   8.845   2.040   4.962  0.0903 -0.2332  0.7879
15160SOL    HW246614   8.865   2.188   4.940  0.4462 -0.6219 -1.8569
15161SOL     OW46615   4.816   4.348   1.429  0.7651  0.7069 -0.2512
15161SOL    HW146616   4.737   4.351   1.483  0.0965 -0.1197 -1.1644
15161SOL    HW246617   4.887   4.366   1.491 -0.0626  0.7413  0.7227
15162SOL     OW46618   0.913   0.124   2.816  0.6493  0.0471  0.7484
15162SOL    HW146619   0.924   0.207   2.769  1.0210 -0.5692 -0.2752
15162SOL    HW246620   0.867   0.148   2.897 -2.6689  0.7632 -1.1724
15163SOL     OW46621   4.704   4.231   4.968  0.2258 -0.0258 -0.0601
15163SOL    HW146622   4.786   4.245   4.922  0.5997 -1.2967  0.1717
15163SOL    HW246623   4.730   4.189   5.051 -0.5454  0.8509  0.6474
15164SOL     OW46624   6.949   0.127   1.088 -0.2984 -0.0310  0.1841
15164SOL    HW146625   6.946   0.150   1.180  2.1415  0.5712  0.1837
15164SOL    HW246626   7.042   0.114   1.069 -0.6964  0.0690 -2.2450
15165SOL     OW46627   5.047   6.447   1.344  0.3284 -0.2713 -0.2237
15165SOL    HW146628   5.115   6.504   1.381  0.9097 -2.5499  2.5358
15165SOL    HW246629   4.974   6.455   1.405 -1.4890  1.1151 -2.4457
15166SOL     OW46630   0.399   4.413   5.056 -0.3706  0.1468  0.9316
15166SOL    HW146631   0.380   4.457   4.972 -0.2278  2.0682  1.8487
15166SOL    HW246632   0.394   4.320   5.035  0.4677  0.5409 -1.4147
15167SOL     OW46633   6.918   7.190   0.559  0.4281 -0.7126  0.4928
15167SOL    HW146634   6.892   7.204   0.650  0.0467 -0.3500  0.3309
15167SOL    HW246635   6.843   7.147   0.518  0.0003  0.4679 -0.0103
15168SOL     OW46636   7.610   0.992   5.127  0.4215 -0.3360 -0.2728
15168SOL    HW146637   7.625   0.901   5.151  0.0963 -0.1476  0.7089
15168SOL    HW246638   7.669   1.042   5.184  0.0371  0.0995 -0.2458
15169SOL     OW46639   7.420   4.702   3.491 -0.2794 -0.0066 -0.3896
15169SOL    HW146640   7.376   4.786   3.494  0.7230  0.8198 -4.1186
15169SOL    HW246641   7.407   4.670   3.402  3.7819 -1.2260 -0.7766
15170SOL     OW46642   1.274   0.023   8.303 -0.2469  0.2273  0.2194
15170SOL    HW146643   1.226  -0.014   8.228 -0.6053 -0.8183  0.9425
15170SOL    HW246644   1.212   0.018   8.376  0.6519 -0.3149  0.9733
15171SOL     OW46645   3.020   8.494   0.244 -0.1371 -0.2649 -0.1641
15171SOL    HW146646   3.106   8.521   0.275 -0.2896 -0.0792  0.0993
15171SOL    HW246647   3.030   8.400   0.226  0.3406 -0.0684 -0.9200
15172SOL     OW46648   6.144   5.147   2.263 -0.1563 -0.3681 -0.0013
15172SOL    HW146649   6.145   5.052   2.274 -0.2242 -0.0950  3.0237
15172SOL    HW246650   6.056   5.173   2.289  0.1539  0.6249  0.0926
15173SOL     OW46651   2.032   0.650   0.881  0.1675  0.0709 -0.1674
15173SOL    HW146652   2.084   0.620   0.955 -0.3802  0.1954  0.2691
15173SOL    HW246653   2.095   0.696   0.825  0.4141  0.7772  0.6697
15174SOL     OW46654   4.405   0.638   0.654  0.4806 -0.4349  0.5651
15174SOL    HW146655   4.493   0.616   0.685  1.5943 -1.0158 -2.6876
15174SOL    HW246656   4.398   0.732   0.670  1.9985 -0.2351  0.2075
15175SOL     OW46657   4.040   1.583   2.285 -0.3705  1.1650  0.3184
15175SOL    HW146658   4.068   1.492   2.275 -0.7386  0.8188  2.0757
15175SOL    HW246659   4.121   1.633   2.295 -0.2153  0.6631  1.7968
15176SOL     OW46660   6.564   1.692   3.320  0.1038 -0.3089  0.1449
15176SOL    HW146661   6.640   1.748   3.333 -0.0441 -0.5358  2.3008
15176SOL    HW246662   6.524   1.684   3.406 -2.7012  0.2117 -0.9892
15177SOL     OW46663   5.326   5.568   3.090 -0.4662 -0.4138  0.0291
15177SOL    HW146664   5.232   5.581   3.095 -0.3716  0.2586  0.1450
15177SOL    HW246665   5.337   5.473   3.094 -1.2476 -0.6304 -1.8801
15178SOL     OW46666   8.782   2.057   7.048 -0.0170 -0.1736 -0.0298
15178SOL    HW146667   8.864   2.069   7.096  0.6311 -0.5317 -1.0369
15178SOL    HW246668   8.773   1.963   7.039 -0.8181 -0.1597  0.5240
15179SOL     OW46669   6.821   7.663   1.101 -1.0245  0.1584 -0.2420
15179SOL    HW146670   6.874   7.677   1.179 -0.1783  0.9448 -0.9324
15179SOL    HW246671   6.768   7.586   1.121  0.5660 -0.8205  0.3742
15180SOL     OW46672   0.300   4.949   1.532  0.2984  0.2890 -0.6268
15180SOL    HW146673   0.304   4.853   1.530 -1.1186 -0.0211  2.9466
15180SOL    HW246674   0.359   4.974   1.603 -1.9888  1.6285  0.9699
15181SOL     OW46675   0.785   3.782   7.269  0.1835  0.4834  0.1763
15181SOL    HW146676   0.711   3.766   7.328 -0.3646  1.3221 -0.2712
15181SOL    HW246677   0.761   3.738   7.188  0.9504 -0.6925  0.5587
15182SOL     OW46678   0.011   3.910   8.659  0.8816  0.1190 -0.0513
15182SOL    HW146679  -0.010   3.856   8.583  1.4024  0.0211 -0.1252
15182SOL    HW246680  -0.050   3.880   8.727  0.5598  0.0632 -0.3652
15183SOL     OW46681   8.067   4.804   0.371  0.0654 -0.3257  0.4244
15183SOL    HW146682   8.034   4.850   0.293  0.7410  1.0915  0.9365
15183SOL    HW246683   7.998   4.743   0.394 -0.9345  0.5194 -0.2404
15184SOL     OW46684   8.773   2.251   2.795  0.0534  0.0364  0.3673
15184SOL    HW146685   8.779   2.264   2.700 -1.2033 -1.2569  0.0775
15184SOL    HW246686   8.795   2.336   2.832 -1.4120  1.1651 -1.1678
15185SOL     OW46687   6.325   1.299   1.634  0.0604 -0.1248  0.0162
15185SOL    HW146688   6.344   1.376   1.687 -0.4552 -0.7292  1.1214
15185SOL    HW246689   6.378   1.229   1.674  1.0452 -0.2183 -1.3797
15186SOL     OW46690   1.954   8.115   1.140  0.0459  0.2171 -0.2021
15186SOL    HW146691   1.874   8.087   1.182  0.9051  0.2018  1.5015
15186SOL    HW246692   2.020   8.051   1.168  0.6492  0.1546 -1.6537
15187SOL     OW46693   3.384   8.355   7.778  0.0875  0.1076 -0.2727
15187SOL    HW146694   3.421   8.443   7.777  0.2626  0.0487  0.3657
15187SOL    HW246695   3.436   8.308   7.844  0.4174 -0.6584 -1.0489
15188SOL     OW46696   5.834   2.070   3.690 -0.0709  0.3341  0.3032
15188SOL    HW146697   5.913   2.118   3.664 -0.6019  1.8010  1.2827
15188SOL    HW246698   5.787   2.054   3.609  0.7054  0.4006 -0.1706
15189SOL     OW46699   5.409   7.074   5.310  0.4589 -0.1455  0.0221
15189SOL    HW146700   5.334   7.070   5.369 -0.3979 -1.6279 -1.0646
15189SOL    HW246701   5.423   7.167   5.295 -0.6809  0.1848  0.8525
15190SOL     OW46702   1.154   0.012   6.727  0.1266  0.2763 -0.2799
15190SOL    HW146703   1.194  -0.054   6.784 -1.0009  0.1985  0.4563
15190SOL    HW246704   1.172  -0.019   6.638 -0.2108 -0.9182  0.0527
15191SOL     OW46705   7.642   7.277   7.641 -0.3441 -0.0199 -0.7984
15191SOL    HW146706   7.625   7.188   7.610 -1.9401 -0.2643  0.6226
15191SOL    HW246707   7.636   7.270   7.737 -0.9683  1.7025 -0.6839
15192SOL     OW46708   7.532   7.954   4.131  0.1773  0.3823  0.3549
15192SOL    HW146709   7.478   7.954   4.052  0.1100 -2.0814  0.3289
15192SOL    HW246710   7.618   7.983   4.102  0.1661 -0.5663 -0.6616
15193SOL     OW46711   7.144   5.141   5.160 -0.2863  0.8377 -0.1372
15193SOL    HW146712   7.136   5.062   5.214 -0.7584  1.0252  0.0689
15193SOL    HW246713   7.081   5.127   5.089 -2.2707  2.1290  1.2554
15194SOL     OW46714   5.992   5.417   9.091 -0.4530 -0.3039 -0.1049
15194SOL    HW146715   5.916   5.370   9.057 -1.0027 -0.2259  0.9803
15194SOL    HW246716   6.004   5.383   9.180 -1.1695  1.8946  0.9027
15195SOL     OW46717   4.250   8.956   7.486  0.0139 -0.4559  0.1799
15195SOL    HW146718   4.265   9.000   7.570 -0.4459  0.0751 -0.0056
15195SOL    HW246719   4.330   8.974   7.435  0.1350 -0.4542  0.3715
15196SOL     OW46720   3.500   6.041   0.200 -0.4143  0.0936 -0.9120
15196SOL    HW146721   3.535   5.955   0.222  2.5218  1.0353 -1.4198
15196SOL    HW246722   3.499   6.089   0.282 -1.5906 -0.2341 -0.7158
15197SOL     OW46723   6.436   8.277   2.810 -0.4910 -0.0624  0.5233
15197SOL    HW146724   6.450   8.307   2.720 -3.2126  1.0225  0.3770
15197SOL    HW246725   6.363   8.216   2.804 -0.7024  0.0252  1.9990
15198SOL     OW46726   0.974   1.141   3.992 -0.0524  0.6698 -0.6852
15198SOL    HW146727   1.043   1.078   4.009 -0.5411  0.2070 -0.3913
15198SOL    HW246728   1.020   1.221   3.968  0.6090  0.6095  0.3135
15199SOL     OW46729   8.293   6.194   0.572  0.3297  0.2685 -0.2523
15199SOL    HW146730   8.388   6.205   0.575  0.3640  0.4372 -1.4256
15199SOL    HW246731   8.257   6.278   0.601  0.5089 -0.2104  1.4588
15200SOL     OW46732   2.018   3.504   0.809 -0.2147 -0.6814  0.4663
15200SOL    HW146733   2.000   3.538   0.897  1.9568  0.1718  0.6564
15200SOL    HW246734   2.052   3.416   0.824 -1.0022 -1.0121  0.3624
15201SOL     OW46735   5.555   7.924   8.363 -0.5288 -0.4604  0.5991
15201SOL    HW146736   5.582   7.986   8.431  1.2802 -0.8098  0.2496
15201SOL    HW246737   5.600   7.954   8.284 -1.4217 -0.9204 -0.0939
15202SOL     OW46738   1.897   0.126   3.158 -0.0535  0.1418  0.0120
15202SOL    HW146739   1.936   0.081   3.233  0.1985 -0.7970 -0.6610
15202SOL    HW246740   1.853   0.202   3.196 -1.0805 -1.0172  1.3070
15203SOL     OW46741   4.779   2.064   3.408 -0.0414 -0.6824 -0.0002
15203SOL    HW146742   4.739   1.982   3.438  0.8266 -0.3545  2.2542
15203SOL    HW246743   4.827   2.040   3.329 -0.2881 -2.2391  0.2895
15204SOL     OW46744   1.567   8.746   4.539 -0.0707  0.5358  0.2173
15204SOL    HW146745   1.621   8.667   4.546  0.4371  0.6843 -1.4805
15204SOL    HW246746   1.504   8.725   4.470 -0.3188  1.4021  0.1748
15205SOL     OW46747   5.549   1.779   2.216 -0.2906  0.9827 -0.0791
15205SOL    HW146748   5.585   1.767   2.304 -0.8832  0.8096  0.1437
15205SOL    HW246749   5.625   1.779   2.159 -0.0818 -2.7154 -0.0188
15206SOL     OW46750   0.522   6.339   1.324 -0.2352  0.0115  0.1882
15206SOL    HW146751   0.438   6.382   1.341  0.1839  0.5272  1.0326
15206SOL    HW246752   0.520   6.260   1.377 -0.9904 -1.0361 -1.3388
15207SOL     OW46753   2.657   2.301   2.701  0.5243 -0.4372  0.2086
15207SOL    HW146754   2.750   2.317   2.687  0.1432  2.1981  0.3188
15207SOL    HW246755   2.632   2.243   2.628  2.4826 -2.4316  1.0152
15208SOL     OW46756   8.030   4.508   3.881 -0.0679 -0.1102 -0.1929
15208SOL    HW146757   7.937   4.504   3.901 -0.7076  1.7371 -2.4380
15208SOL    HW246758   8.035   4.527   3.788  2.4776  2.3284  0.3013
15209SOL     OW46759   3.972   8.709   7.751 -0.2850  0.4882 -0.2205
15209SOL    HW146760   4.012   8.694   7.836 -1.6835 -0.4535  0.3109
15209SOL    HW246761   3.985   8.627   7.703 -0.7588  0.4973 -0.3730
15210SOL     OW46762   0.116   7.155   6.622 -0.3153  0.6439 -0.1868
15210SOL    HW146763   0.143   7.240   6.587 -1.1100  1.0308  0.1242
15210SOL    HW246764   0.071   7.112   6.549  0.5234  0.2677 -0.5013
15211SOL     OW46765   3.785   7.058   5.764 -0.2601  0.7615 -0.1390
15211SOL    HW146766   3.865   7.086   5.809 -0.2682 -0.1050  0.4206
15211SOL    HW246767   3.807   6.972   5.728 -0.3342  1.3133 -1.6011
15212SOL     OW46768   5.745   7.490   1.799  0.1809  0.1609  0.6319
15212SOL    HW146769   5.775   7.578   1.819  0.1581  0.5980 -1.1128
15212SOL    HW246770   5.806   7.432   1.844  1.5780  1.0651 -0.0455
15213SOL     OW46771   3.343   5.791   0.190  0.2390 -0.4227  0.0493
15213SOL    HW146772   3.288   5.721   0.225 -1.1283  0.5370 -0.0967
15213SOL    HW246773   3.432   5.768   0.217 -0.5275 -0.6339  2.6835
15214SOL     OW46774   6.584   3.151   2.972  0.0677 -0.5632  0.3065
15214SOL    HW146775   6.624   3.066   2.955  0.6565 -0.3122  0.3883
15214SOL    HW246776   6.597   3.201   2.891  2.8331  0.6145  1.3366
15215SOL     OW46777   8.657   7.760   1.636 -0.1445 -0.0416 -0.2013
15215SOL    HW146778   8.732   7.756   1.694  0.2687 -1.1189 -0.7828
15215SOL    HW246779   8.582   7.743   1.693  0.1657 -0.2029  0.1623
15216SOL     OW46780   8.262   5.001   5.924  0.5637 -0.0624  0.3270
15216SOL    HW146781   8.218   4.941   5.864 -0.5123  3.2800 -2.5819
15216SOL    HW246782   8.356   4.982   5.912  0.2600 -1.2133 -0.4376
15217SOL     OW46783   2.039   0.271   0.216 -0.2214  0.3197 -0.1571
15217SOL    HW146784   1.997   0.353   0.190 -0.4729  0.0453 -0.6327
15217SOL    HW246785   2.020   0.211   0.144  0.1859 -0.0794  0.0666
15218SOL     OW46786   8.342   7.949   1.629 -0.1030  0.7246  0.4716
15218SOL    HW146787   8.327   7.858   1.605  1.3173  1.2617 -3.0989
15218SOL    HW246788   8.255   7.983   1.651 -0.9139 -1.0227  0.1043
15219SOL     OW46789   4.926   0.758   1.380 -0.5582  0.0746 -0.3566
15219SOL    HW146790   4.871   0.699   1.431 -0.7189 -0.0658 -0.6839
15219SOL    HW246791   4.913   0.730   1.289  1.3496 -1.0564 -0.3242
15220SOL     OW46792   1.376   7.839   0.721 -0.3650  0.2051  0.4574
15220SOL    HW146793   1.461   7.854   0.681  0.0232 -0.2382  1.0982
15220SOL    HW246794   1.382   7.883   0.806 -0.6751 -0.0708  0.6220
15221SOL     OW46795   9.068   8.854   8.734  0.0520 -0.0846  0.2608
15221SOL    HW146796   9.120   8.834   8.812  0.8458  0.1812 -0.1906
15221SOL    HW246797   9.078   8.948   8.722 -1.2534  0.1309  0.6574
15222SOL     OW46798   3.061   2.982   6.243  0.3214 -0.1238 -0.7144
15222SOL    HW146799   2.978   2.943   6.270  0.2933  0.8527  0.7186
15222SOL    HW246800   3.080   2.941   6.158 -1.6695 -0.2942 -1.1349
15223SOL     OW46801   1.488   3.707   3.414  0.0371  0.3873  0.3241
15223SOL    HW146802   1.547   3.780   3.391 -0.3312  0.3422 -0.8424
15223SOL    HW246803   1.516   3.680   3.501  1.3247  0.8038  0.0686
15224SOL     OW46804   4.329   3.776   3.375  0.4035 -0.1481 -0.2471
15224SOL    HW146805   4.268   3.702   3.374 -0.9414  0.9013  0.4690
15224SOL    HW246806   4.361   3.782   3.285 -2.0407  0.4082 -1.1712
15225SOL     OW46807   5.059   6.896   5.746  0.1815  0.9757 -0.3055
15225SOL    HW146808   5.008   6.867   5.822 -0.1509  1.4141 -0.3571
15225SOL    HW246809   5.015   6.976   5.717  1.6071  2.0638  0.4001
15226SOL     OW46810   3.297   6.603   0.349  0.4905 -0.6785  0.2411
15226SOL    HW146811   3.382   6.625   0.389 -0.5837  0.9993  1.7532
15226SOL    HW246812   3.291   6.508   0.359  0.3256 -0.4187  4.2549
15227SOL     OW46813   6.354   0.325   7.115  0.4319 -0.1779  0.0982
15227SOL    HW146814   6.434   0.354   7.158  0.5214 -0.0962 -0.1241
15227SOL    HW246815   6.353   0.230   7.127 -0.0172 -0.0561  1.0913
15228SOL     OW46816   7.378   4.599   7.621 -0.1014 -0.2550  0.0965
15228SOL    HW146817   7.341   4.511   7.609 -0.4262 -0.2188  0.7712
15228SOL    HW246818   7.315   4.658   7.580 -0.4169 -0.2553  0.5748
15229SOL     OW46819   4.123   5.030   5.727 -0.1467  0.5018 -0.2899
15229SOL    HW146820   4.082   4.970   5.665 -0.8484  1.0522 -0.3720
15229SOL    HW246821   4.188   5.078   5.676  0.3362 -0.0921 -0.2502
15230SOL     OW46822   7.668   2.288   0.367 -0.2318  0.4854  0.4550
15230SOL    HW146823   7.756   2.322   0.355  0.3284 -0.0230  2.6756
15230SOL    HW246824   7.629   2.344   0.435 -1.0817 -0.1752  0.5375
15231SOL     OW46825   6.891   6.971   7.847  0.0114 -0.3688 -0.0251
15231SOL    HW146826   6.834   7.027   7.899  0.5497 -0.5296  0.7578
15231SOL    HW246827   6.932   7.029   7.783 -0.7468 -0.1923 -0.3623
15232SOL     OW46828   2.174   2.796   1.817  0.6408 -0.4356 -0.2705
15232SOL    HW146829   2.141   2.874   1.860  1.1729 -1.3733  1.9685
15232SOL    HW246830   2.100   2.764   1.765 -0.5480 -0.0640  1.1348
15233SOL     OW46831   8.863   8.313   4.997 -0.1228  0.4120 -0.3768
15233SOL    HW146832   8.774   8.337   4.972 -0.6413  0.8777  1.6860
15233SOL    HW246833   8.914   8.392   4.984 -0.3813  0.6408 -0.0492
15234SOL     OW46834   1.982   8.563   5.924 -0.3823 -0.2267  0.0983
15234SOL    HW146835   1.990   8.601   5.836 -0.5291 -2.5126 -0.9643
15234SOL    HW246836   2.064   8.515   5.937  0.2587  1.2216  1.8554
15235SOL     OW46837   4.601   0.655   8.111  0.2641  0.2935  0.1442
15235SOL    HW146838   4.511   0.688   8.107  0.4077  0.9355  1.6634
15235SOL    HW246839   4.644   0.710   8.177  1.6616 -0.2766 -0.2593
15236SOL     OW46840   2.994   5.069   8.086 -0.5942  0.4924 -0.0211
15236SOL    HW146841   2.924   5.039   8.028 -1.3709  2.1451 -0.0149
15236SOL    HW246842   3.034   4.989   8.119 -1.4025 -0.4976 -1.3167
15237SOL     OW46843   2.486   4.179   6.973  0.2365  0.1462 -0.1461
15237SOL    HW146844   2.548   4.163   6.901 -1.1057  2.1627 -1.8520
15237SOL    HW246845   2.542   4.196   7.049  1.7397 -0.2170 -1.1327
15238SOL     OW46846   3.732   3.416   6.887 -0.2915  0.4773 -0.0065
15238SOL    HW146847   3.666   3.390   6.823  0.0111 -1.3378  0.3776
15238SOL    HW246848   3.711   3.366   6.966  1.9082 -0.6619 -0.0670
15239SOL     OW46849   4.437   3.812   7.879 -0.3584  0.0419  0.2492
15239SOL    HW146850   4.518   3.783   7.838 -0.7650 -1.6211  0.5567
15239SOL    HW246851   4.423   3.900   7.846  2.0238  0.7106  0.8658
15240SOL     OW46852   0.549   5.998   0.681 -0.3032 -0.1946  0.2446
15240SOL    HW146853   0.473   5.957   0.723 -1.5131 -0.6008 -2.1796
15240SOL    HW246854   0.513   6.077   0.639  1.0405  0.7122  0.7440
15241SOL     OW46855   1.372   8.304   7.570 -0.4987 -0.5597  0.1189
15241SOL    HW146856   1.376   8.223   7.519 -0.2768 -1.1401  1.0319
15241SOL    HW246857   1.399   8.278   7.658 -0.8425  0.4263  0.5280
15242SOL     OW46858   1.558   5.016   3.903 -0.3017 -0.1960 -0.7301
15242SOL    HW146859   1.599   4.936   3.936  0.3724  1.1919  2.0939
15242SOL    HW246860   1.614   5.043   3.830  0.5711 -1.2747 -0.4970
15243SOL     OW46861   0.782   2.838   8.784  0.0873  0.0817  0.0903
15243SOL    HW146862   0.831   2.885   8.851  2.6465 -0.9880 -0.9106
15243SOL    HW246863   0.748   2.907   8.726 -2.0605  1.0164  2.2468
15244SOL     OW46864   2.049   1.096   1.890 -0.6146 -0.2448  0.0778
15244SOL    HW146865   1.973   1.100   1.949 -1.7955 -0.5453 -1.3380
15244SOL    HW246866   2.010   1.089   1.802  1.0670  0.2497 -0.7523
15245SOL     OW46867   8.145   3.950   2.755 -0.8028 -0.0497 -0.5466
15245SOL    HW146868   8.193   3.939   2.838 -0.5415  1.0463 -0.5453
15245SOL    HW246869   8.179   3.881   2.699 -1.8105 -1.5769  0.6111
15246SOL     OW46870   2.543   1.516   4.803 -0.8701  0.5042 -0.2174
15246SOL    HW146871   2.528   1.586   4.866  1.2447  0.5843  0.2727
15246SOL    HW246872   2.633   1.528   4.775 -0.5086 -1.8833 -0.2815
15247SOL     OW46873   6.888   0.505   5.659  0.5209 -0.2339 -0.4777
15247SOL    HW146874   6.878   0.555   5.740 -1.0791  1.2987 -1.5325
15247SOL    HW246875   6.885   0.414   5.686  1.0435  0.2327  1.2754
15248SOL     OW46876   1.148   3.921   4.448  0.1385  0.3446  0.2255
15248SOL    HW146877   1.093   3.847   4.425  0.5838 -0.2993  1.1689
15248SOL    HW246878   1.165   3.910   4.542  0.7399  1.2830  0.2372
15249SOL     OW46879   0.816   1.067   0.894  0.3262 -0.5213 -0.2801
15249SOL    HW146880   0.876   1.091   0.965  1.4494 -2.1218 -0.6224
15249SOL    HW246881   0.832   0.973   0.881 -1.8047 -0.8527 -0.8293
15250SOL     OW46882   4.926   1.521   8.804  0.0409 -0.3397  0.3681
15250SOL    HW146883   4.871   1.507   8.882  0.4402  0.7626  0.8620
15250SOL    HW246884   5.010   1.548   8.840  0.2723  0.0305 -0.4589
15251SOL     OW46885   6.632   8.621   6.455 -0.0112  0.4796 -0.2710
15251SOL    HW146886   6.541   8.591   6.449  0.8030 -2.3348 -0.0621
15251SOL    HW246887   6.671   8.593   6.372  1.1070 -0.0461  0.4184
15252SOL     OW46888   7.475   3.661   7.947  0.4508  0.5612 -0.0458
15252SOL    HW146889   7.430   3.620   8.020 -0.0582  1.7024  0.3031
15252SOL    HW246890   7.413   3.654   7.874 -0.8395  3.0866  0.7006
15253SOL     OW46891   2.998   6.956   3.894 -0.1258  0.1220  0.3647
15253SOL    HW146892   3.073   7.004   3.929  1.3999 -1.2347 -0.8689
15253SOL    HW246893   2.962   7.013   3.826  1.1614 -0.0752 -0.5251
15254SOL     OW46894   7.781   0.853   5.602 -0.5372 -0.6619  0.4274
15254SOL    HW146895   7.839   0.784   5.569 -1.1296 -1.7036  1.4904
15254SOL    HW246896   7.788   0.847   5.697 -1.4186  0.0344  0.5462
15255SOL     OW46897   3.471   7.030   8.108 -0.2679 -0.1640  0.3572
15255SOL    HW146898   3.534   7.025   8.036 -1.0457  2.1780 -0.5731
15255SOL    HW246899   3.524   7.032   8.187  0.7818  0.5394 -0.3395
15256SOL     OW46900   7.558   5.837   2.068  0.0956  0.4256  0.2335
15256SOL    HW146901   7.642   5.876   2.043  0.1815  1.3802  1.9024
15256SOL    HW246902   7.580   5.771   2.133 -0.4339  0.6732  0.6733
15257SOL     OW46903   5.555   0.346   3.119  0.1151  0.6233  0.3908
15257SOL    HW146904   5.497   0.277   3.089  0.9553  0.1066 -0.0905
15257SOL    HW246905   5.577   0.323   3.209  0.2660  0.3472  0.2833
15258SOL     OW46906   4.682   1.767   1.411  0.4199 -0.0506 -0.5509
15258SOL    HW146907   4.654   1.818   1.487 -2.1041 -2.3977  0.2868
15258SOL    HW246908   4.637   1.809   1.337 -2.7591 -1.6055  0.3019
15259SOL     OW46909   4.889   8.277   3.590  0.6550 -0.5775  0.1214
15259SOL    HW146910   4.808   8.253   3.634  0.7037  0.4461  0.7951
15259SOL    HW246911   4.925   8.349   3.641  1.7969 -0.7447 -0.3904
15260SOL     OW46912   4.304   2.278   2.886  0.4402  0.0551  0.0226
15260SOL    HW146913   4.229   2.336   2.899  0.4366  0.3980 -1.3352
15260SOL    HW246914   4.364   2.299   2.957 -1.3273 -1.2212  2.0016
15261SOL     OW46915   1.566   4.077   4.761  0.3818  0.1735  0.4625
15261SOL    HW146916   1.561   3.984   4.739  1.1208  0.1812  0.2443
15261SOL    HW246917   1.630   4.082   4.832 -0.6594  0.3611  1.4103
15262SOL     OW46918   9.116   8.122   8.606 -0.2571  0.3614 -0.0425
15262SOL    HW146919   9.105   8.134   8.512  0.9641 -1.1240 -0.4167
15262SOL    HW246920   9.055   8.052   8.628 -0.0321  0.2172  0.1277
15263SOL     OW46921   2.619   4.804   7.379 -0.0703 -0.1413 -0.5833
15263SOL    HW146922   2.602   4.893   7.348  0.6573 -0.1409 -1.0171
15263SOL    HW246923   2.714   4.796   7.377 -0.0743 -0.6237  0.3353
15264SOL     OW46924   7.112   8.543   8.938  0.0096  0.1323  0.0886
15264SOL    HW146925   7.179   8.488   8.978 -0.4773 -1.7692 -1.5458
15264SOL    HW246926   7.157   8.626   8.918  0.9158  0.1637  2.0738
15265SOL     OW46927   6.396   6.334   7.621  0.3433  0.6394  0.0492
15265SOL    HW146928   6.385   6.426   7.642 -0.7924  0.2241  1.3770
15265SOL    HW246929   6.477   6.331   7.569  0.7182  2.2912  0.4797
15266SOL     OW46930   8.284   8.057   0.700  0.1992 -0.3161 -0.0842
15266SOL    HW146931   8.298   7.994   0.630  2.1671 -0.5810  0.4600
15266SOL    HW246932   8.345   8.030   0.769 -0.1713  1.1453  0.8862
15267SOL     OW46933   1.761   6.375   2.336  0.0212 -0.0724 -0.8837
15267SOL    HW146934   1.792   6.466   2.327  0.6279  0.3754  3.4541
15267SOL    HW246935   1.666   6.384   2.348 -0.0880 -0.1743 -1.6156
15268SOL     OW46936   2.955   0.419   1.785  0.4562 -0.2512  0.0343
15268SOL    HW146937   3.002   0.456   1.860 -0.0699 -0.7147  0.5905
15268SOL    HW246938   2.864   0.443   1.799  0.2742 -0.8062 -0.1768
15269SOL     OW46939   7.484   3.560   0.429  0.2623 -0.5383 -0.1835
15269SOL    HW146940   7.493   3.504   0.352 -0.6594 -0.9747  0.0189
15269SOL    HW246941   7.575   3.583   0.453  0.5334  0.9058 -2.3109
15270SOL     OW46942   5.814   4.504   2.295  0.0117 -1.2830  0.0183
15270SOL    HW146943   5.821   4.480   2.202  1.0279 -2.8333  0.4585
15270SOL    HW246944   5.720   4.519   2.309 -0.2197 -1.5440 -1.1299
15271SOL     OW46945   0.030   6.335   1.916  0.0032 -0.1566  0.3505
15271SOL    HW146946  -0.057   6.345   1.878  0.1140  0.4522  0.2517
15271SOL    HW246947   0.088   6.384   1.858  0.3372 -0.1304  0.6995
15272SOL     OW46948   1.164   4.685   7.569  0.0125  0.0703  0.0962
15272SOL    HW146949   1.168   4.780   7.557 -3.7595  0.3997  0.3250
15272SOL    HW246950   1.107   4.654   7.499  0.5620 -1.9777  0.4736
15273SOL     OW46951   1.312   0.321   1.812 -0.4121  0.0153 -0.0250
15273SOL    HW146952   1.248   0.338   1.743 -0.3625  0.1666 -0.0343
15273SOL    HW246953   1.367   0.400   1.813 -1.3070  0.6579  1.1793
15274SOL     OW46954   5.343   5.874   6.492 -0.1163  0.1884 -0.1582
15274SOL    HW146955   5.304   5.794   6.456  0.0861  0.1890 -0.3850
15274SOL    HW246956   5.292   5.945   6.452  0.8924  0.2343 -1.4387
15275SOL     OW46957   2.983   8.715   1.019  0.0645  0.2939  0.5183
15275SOL    HW146958   3.040   8.792   1.014 -1.5123  1.5079  0.3720
15275SOL    HW246959   2.970   8.702   1.113  0.0127  0.4520  0.5332
15276SOL     OW46960   1.592   8.936   7.599 -0.2022  0.0410 -0.0101
15276SOL    HW146961   1.635   8.898   7.675 -1.2717  0.2179  0.6951
15276SOL    HW246962   1.645   9.012   7.577  0.5674 -0.4599  0.0507
15277SOL     OW46963   5.411   3.966   0.907  0.4578  0.1977 -0.4440
15277SOL    HW146964   5.373   4.027   0.844  0.1929 -0.4909 -0.9617
15277SOL    HW246965   5.411   4.014   0.990 -1.2036  0.3606 -0.5077
15278SOL     OW46966   2.816   4.299   5.252  0.2014  0.7383  0.3795
15278SOL    HW146967   2.888   4.317   5.312 -0.0111 -0.0769  0.8958
15278SOL    HW246968   2.738   4.298   5.308 -0.1043  0.7766 -0.0406
15279SOL     OW46969   2.842   2.695   2.601  0.3710  0.0596 -0.3678
15279SOL    HW146970   2.798   2.735   2.527 -1.6216 -0.9771  0.2041
15279SOL    HW246971   2.925   2.743   2.608 -0.6327  2.0960 -1.4838
15280SOL     OW46972   4.078   4.810   3.679  0.0173 -0.7381  0.1175
15280SOL    HW146973   4.026   4.759   3.741 -1.6474  0.0494 -0.5424
15280SOL    HW246974   4.033   4.895   3.675  1.0082 -0.2405 -0.9607
15281SOL     OW46975   7.931   5.465   4.221  0.2294 -0.0753 -0.2973
15281SOL    HW146976   7.983   5.451   4.300 -1.7059  2.7636  1.6371
15281SOL    HW246977   7.858   5.404   4.229  0.4248 -0.3134 -0.3029
15282SOL     OW46978   7.115   6.312   0.515 -0.3295  0.2537  0.0595
15282SOL    HW146979   7.186   6.282   0.571 -0.4607 -0.3415 -0.0833
15282SOL    HW246980   7.099   6.239   0.455  0.9383  1.4766 -1.8865
15283SOL     OW46981   4.083   4.120   8.375 -0.0100  0.2653 -0.5348
15283SOL    HW146982   4.176   4.104   8.363  0.0879 -0.0861  0.5735
15283SOL    HW246983   4.067   4.203   8.330  1.4160  1.7761  1.5618
15284SOL     OW46984   6.559   1.180   6.990 -0.0938 -0.0181 -0.1769
15284SOL    HW146985   6.530   1.102   6.942 -0.0253 -0.3630  0.3304
15284SOL    HW246986   6.609   1.230   6.926  0.6813 -0.8629 -0.2636
15285SOL     OW46987   5.121   4.300   7.271 -0.5561 -0.0494  0.5522
15285SOL    HW146988   5.068   4.245   7.329  0.5817 -0.8750  0.8445
15285SOL    HW246989   5.195   4.327   7.325  0.5156 -0.8105 -0.4868
15286SOL     OW46990   7.645   7.152   8.892 -0.0284 -0.6337 -0.1934
15286SOL    HW146991   7.667   7.151   8.986  0.9023  1.5305 -0.3343
15286SOL    HW246992   7.727   7.128   8.849 -0.3371 -1.1707 -0.4914
15287SOL     OW46993   7.894   4.764   3.298 -0.1855  0.2687 -0.3586
15287SOL    HW146994   7.878   4.697   3.364  3.3234  0.2527  0.6915
15287SOL    HW246995   7.808   4.803   3.281 -1.4451 -0.4820  3.4085
15288SOL     OW46996   2.134   6.884   4.176 -0.0036 -0.4402  0.4647
15288SOL    HW146997   2.182   6.802   4.186  0.3738 -0.2481  0.2479
15288SOL    HW246998   2.102   6.883   4.086  0.9473  0.1435  0.0954
15289SOL     OW46999   5.661   4.289   0.474 -0.2231 -0.9009 -0.7365
15289SOL    HW147000   5.636   4.369   0.427  1.7329  1.5592  2.0114
15289SOL    HW247001   5.622   4.301   0.561  0.5392 -2.7211 -0.1097
15290SOL     OW47002   6.739   7.053   5.622  0.6722  0.6924  0.6352
15290SOL    HW147003   6.749   6.962   5.651 -0.3291  0.8383  1.5254
15290SOL    HW247004   6.763   7.052   5.529 -1.8828 -1.0282 -0.1000
15291SOL     OW47005   6.127   3.392   0.784  0.2857 -0.4875  0.2618
15291SOL    HW147006   6.163   3.466   0.734  1.1636  0.9173  2.7930
15291SOL    HW247007   6.106   3.429   0.870 -1.6961 -2.6571  0.8102
15292SOL     OW47008   4.619   2.031   1.238  0.2253  0.1752  0.3809
15292SOL    HW147009   4.570   2.110   1.214 -0.3648 -0.0591  0.8071
15292SOL    HW247010   4.659   2.003   1.156  0.0448  0.6441  0.1266
15293SOL     OW47011   3.471   2.615   2.961 -0.7557 -0.5284 -0.1798
15293SOL    HW147012   3.541   2.591   3.021 -1.1223 -0.1940  0.3814
15293SOL    HW247013   3.400   2.647   3.017 -1.2641 -0.6266 -0.7570
15294SOL     OW47014   6.505   3.501   1.115 -0.0717 -0.8138  0.7922
15294SOL    HW147015   6.456   3.419   1.103 -0.8665 -0.2599  0.1679
15294SOL    HW247016   6.438   3.569   1.116  0.7218  0.0188 -0.5950
15295SOL     OW47017   6.656   3.535   2.138 -0.1849 -0.1244 -0.3523
15295SOL    HW147018   6.637   3.510   2.047 -1.4774 -0.5699  0.0183
15295SOL    HW247019   6.720   3.606   2.130 -0.1025 -0.3113 -1.6062
15296SOL     OW47020   7.281   0.979   2.634 -0.0120  0.3276 -0.7125
15296SOL    HW147021   7.294   0.905   2.693 -0.2763 -0.4115 -1.5654
15296SOL    HW247022   7.208   1.027   2.672  0.2227  0.2069 -0.0990
15297SOL     OW47023   5.638   3.113   8.432 -0.2108  0.0073  0.2634
15297SOL    HW147024   5.668   3.043   8.490  0.8687  1.1710  1.1670
15297SOL    HW247025   5.678   3.193   8.467  0.9409  0.7040 -2.3797
15298SOL     OW47026   5.057   3.877   8.838 -0.2418 -0.0599  0.1053
15298SOL    HW147027   5.124   3.903   8.775  1.0544 -0.7834  1.1174
15298SOL    HW247028   5.039   3.785   8.817  0.8552 -0.5814  1.2830
15299SOL     OW47029   5.377   7.717   2.182  0.4081 -0.2260 -0.4415
15299SOL    HW147030   5.443   7.688   2.120  1.0115 -0.2044  0.1838
15299SOL    HW247031   5.419   7.710   2.268 -0.6094 -0.8369  0.0329
15300SOL     OW47032   6.126   2.404   1.771 -0.0879 -0.0558  0.2398
15300SOL    HW147033   6.038   2.430   1.798 -0.8725 -0.4335 -1.7531
15300SOL    HW247034   6.149   2.333   1.831 -0.3983  1.1531  1.8633
15301SOL     OW47035   1.787   1.616   8.544 -0.3599  0.1409 -0.2168
15301SOL    HW147036   1.873   1.655   8.559 -0.8766  1.4723 -0.6360
15301SOL    HW247037   1.779   1.550   8.613  0.3644  1.0459  0.7743
15302SOL     OW47038   0.904   2.448   0.497  0.4551  0.0979 -0.8868
15302SOL    HW147039   0.809   2.454   0.488  0.2270 -1.6681 -0.0184
15302SOL    HW247040   0.932   2.395   0.422  0.7218  0.2498 -0.8990
15303SOL     OW47041   3.640   8.726   5.880  0.0704  0.2845 -0.3067
15303SOL    HW147042   3.629   8.646   5.830  1.3399 -0.3069  0.3098
15303SOL    HW247043   3.735   8.742   5.879 -0.1878  2.0387 -0.8143
15304SOL     OW47044   0.099   0.442   5.391 -0.1319  0.6598  0.2454
15304SOL    HW147045   0.095   0.431   5.297 -0.6289  3.2109 -0.1101
15304SOL    HW247046   0.011   0.423   5.422 -0.1699  0.5772  0.0811
15305SOL     OW47047   6.855   4.830   3.788 -0.2633 -0.1357  0.2536
15305SOL    HW147048   6.927   4.890   3.808 -1.1076  0.4338  1.8367
15305SOL    HW247049   6.794   4.882   3.735 -1.3730  0.7681  2.2809
15306SOL     OW47050   0.151   3.110   5.653  0.0135 -0.3779  0.0349
15306SOL    HW147051   0.070   3.156   5.674  0.5662  0.3411  0.6200
15306SOL    HW247052   0.136   3.021   5.684  0.0663  0.1657  1.6854
15307SOL     OW47053   8.728   3.976   4.069 -0.1658 -0.7246 -1.0965
15307SOL    HW147054   8.657   4.040   4.074  1.4370  1.2922 -2.4056
15307SOL    HW247055   8.688   3.899   4.028 -1.5865  0.3632 -1.8580
15308SOL     OW47056   1.670   2.505   6.285 -0.5899  0.3697  0.2923
15308SOL    HW147057   1.712   2.422   6.261 -1.2794  0.0052  0.3195
15308SOL    HW247058   1.694   2.565   6.215 -0.6382 -0.0369 -0.0751
15309SOL     OW47059   8.497   7.840   4.996  0.6680  0.5217  0.1147
15309SOL    HW147060   8.574   7.847   4.940 -0.5183 -3.4497 -2.4154
15309SOL    HW247061   8.512   7.761   5.048 -1.6030 -0.3564 -0.4288
15310SOL     OW47062   3.529   6.585   4.734 -0.4200 -0.1012  0.6556
15310SOL    HW147063   3.517   6.504   4.685  0.6248  0.3026 -0.2923
15310SOL    HW247064   3.471   6.575   4.810 -1.7579 -0.9082 -0.4241
15311SOL     OW47065   1.577   5.173   2.633 -0.5263  0.8813 -0.2636
15311SOL    HW147066   1.543   5.089   2.604  0.2518  0.7769 -0.9124
15311SOL    HW247067   1.660   5.182   2.587  0.7761  0.7121  1.8858
15312SOL     OW47068   0.903   6.038   0.058  0.5022 -0.6304 -0.4738
15312SOL    HW147069   0.842   6.110   0.074  1.5813  0.1008  0.4788
15312SOL    HW247070   0.990   6.074   0.076  0.9602 -2.6560  2.0115
15313SOL     OW47071   6.793   6.342   2.138  0.2585 -0.0443 -0.0398
15313SOL    HW147072   6.884   6.360   2.164  0.1565  0.7016 -0.1697
15313SOL    HW247073   6.800   6.277   2.068  0.5883 -1.4593  1.2398
15314SOL     OW47074   7.642   2.486   5.365  0.0981  0.4836 -0.1480
15314SOL    HW147075   7.570   2.424   5.355 -1.2694  1.5526  2.2867
15314SOL    HW247076   7.693   2.452   5.439  1.0532  0.7268 -0.6706
15315SOL     OW47077   8.642   5.964   1.186  1.0969 -0.2803 -0.2093
15315SOL    HW147078   8.682   6.035   1.236  1.6742 -1.5336  1.1812
15315SOL    HW247079   8.591   6.008   1.118  0.9815  1.4803  0.9555
15316SOL     OW47080   2.961   2.326   1.892 -0.9037  0.0877  0.9317
15316SOL    HW147081   2.958   2.345   1.986 -0.9107 -0.8724  1.1348
15316SOL    HW247082   2.994   2.236   1.886 -0.2614  0.3715 -0.0215
15317SOL     OW47083   7.198   6.509   6.645  0.3032 -0.1930  0.0006
15317SOL    HW147084   7.112   6.541   6.619  0.3342 -1.6007 -2.2061
15317SOL    HW247085   7.257   6.583   6.633 -0.4261  0.4630  0.4364
15318SOL     OW47086   2.367   9.016   0.189  0.2087 -0.1963 -0.2924
15318SOL    HW147087   2.320   9.043   0.110  0.3115  1.0516  0.0513
15318SOL    HW247088   2.392   9.098   0.232  1.6494 -0.8327  0.1648
15319SOL     OW47089   1.410   0.716   6.489 -0.2871 -0.4483  0.2514
15319SOL    HW147090   1.318   0.742   6.491  0.2038  1.5653 -0.3192
15319SOL    HW247091   1.428   0.684   6.578 -1.5958 -1.2114  0.2683
15320SOL     OW47092   0.209   4.863   5.385  0.1826 -0.2951  0.1612
15320SOL    HW147093   0.149   4.845   5.314  1.0703  0.3255 -0.7742
15320SOL    HW247094   0.259   4.782   5.396 -1.4320 -1.1466  1.5962
15321SOL     OW47095   6.530   3.259   4.895 -0.3673  0.3168 -0.2187
15321SOL    HW147096   6.539   3.177   4.847 -1.1469  0.6907 -1.0306
15321SOL    HW247097   6.440   3.288   4.877 -2.1131 -1.3540  4.3817
15322SOL     OW47098   0.288   4.602   7.310  0.1722  0.6552  0.3670
15322SOL    HW147099   0.231   4.659   7.258 -0.2445  0.2096  0.3243
15322SOL    HW247100   0.232   4.530   7.336  0.5644  0.5177  0.8493
15323SOL     OW47101   8.374   8.887   1.291  0.3365  0.3096  0.2113
15323SOL    HW147102   8.283   8.894   1.319  0.7305  1.3091  1.3243
15323SOL    HW247103   8.369   8.866   1.198 -1.0209 -0.7603  0.4950
15324SOL     OW47104   3.077   5.775   8.638 -0.2328  0.1013 -0.3146
15324SOL    HW147105   3.048   5.685   8.627  0.2394  0.0753 -1.4814
15324SOL    HW247106   3.142   5.770   8.708  1.3634 -0.8637 -1.7719
15325SOL     OW47107   2.797   1.190   1.557  0.3747  0.4208 -0.2685
15325SOL    HW147108   2.738   1.207   1.483 -2.3876 -1.0867  1.4361
15325SOL    HW247109   2.766   1.248   1.626  0.9299 -0.3754  0.6605
15326SOL     OW47110   1.244   4.463   3.459 -0.2327  0.0002 -0.2895
15326SOL    HW147111   1.299   4.537   3.484 -2.8889  1.8818  0.4431
15326SOL    HW247112   1.189   4.448   3.536  0.4960 -3.1188 -0.2448
15327SOL     OW47113   8.803   8.342   3.796  0.2671  0.0396  0.3162
15327SOL    HW147114   8.797   8.438   3.799 -0.0074  0.0160  0.5685
15327SOL    HW247115   8.859   8.320   3.870  0.5419  0.0224  0.1016
15328SOL     OW47116   8.709   7.291   0.674  0.3825  0.2703  0.0134
15328SOL    HW147117   8.728   7.382   0.696  0.2215  0.7310 -1.5671
15328SOL    HW247118   8.645   7.297   0.602 -1.2071 -1.1301  1.2116
15329SOL     OW47119   7.107   8.882   1.144 -0.0921 -0.1277  0.1563
15329SOL    HW147120   7.164   8.810   1.116  0.0190 -0.4800  1.2454
15329SOL    HW247121   7.160   8.961   1.130 -0.1226 -0.2627 -0.8040
15330SOL     OW47122   1.751   2.630   1.099 -0.3592  0.5319 -0.3077
15330SOL    HW147123   1.739   2.537   1.119  0.8137  0.5389  0.5602
15330SOL    HW247124   1.732   2.637   1.006 -0.1126 -0.6543 -0.4645
15331SOL     OW47125   7.562   7.041   1.756 -0.3415  0.2510  0.7263
15331SOL    HW147126   7.472   7.020   1.732  0.1275 -0.3197 -0.5802
15331SOL    HW247127   7.615   6.973   1.715  0.7831  1.1785  0.5872
15332SOL     OW47128   1.875   3.166   1.597  0.0033 -0.8848 -0.6227
15332SOL    HW147129   1.808   3.235   1.593 -0.1683 -1.1038 -1.5867
15332SOL    HW247130   1.832   3.089   1.562  0.1176 -1.5706  0.6784
15333SOL     OW47131   7.327   1.565   2.978 -0.2421  0.4213 -0.2971
15333SOL    HW147132   7.280   1.486   2.955  0.3347  0.0132 -0.0952
15333SOL    HW247133   7.268   1.613   3.036 -0.8492  0.4499 -0.9319
15334SOL     OW47134   3.923   3.318   3.323 -0.6189 -0.3745  0.2934
15334SOL    HW147135   3.871   3.286   3.396  0.2941 -2.1875  0.2062
15334SOL    HW247136   4.013   3.319   3.356 -0.3783  0.2816 -0.3335
15335SOL     OW47137   1.114   3.935   3.196 -0.3960  0.1125  0.4623
15335SOL    HW147138   1.176   3.995   3.154 -0.4234 -1.5499 -2.1866
15335SOL    HW247139   1.147   3.924   3.285  2.2567  0.4304 -0.4143
15336SOL     OW47140   1.790   4.741   6.588  0.3266 -0.5456  0.0534
15336SOL    HW147141   1.841   4.774   6.662 -0.4418 -0.1275  0.4177
15336SOL    HW247142   1.785   4.815   6.528 -1.0269 -0.1004  0.6698
15337SOL     OW47143   0.244   5.451   1.195  0.6280  0.5732 -0.4898
15337SOL    HW147144   0.183   5.409   1.134  1.8067  0.6659 -1.7903
15337SOL    HW247145   0.330   5.439   1.154  1.3993  1.1038  0.9171
15338SOL     OW47146   5.730   3.264   3.065 -0.0874 -0.5747 -0.6553
15338SOL    HW147147   5.634   3.270   3.065 -0.0355  0.5442 -0.0078
15338SOL    HW247148   5.753   3.243   3.155  0.2459 -1.8393 -1.0169
15339SOL     OW47149   4.122   6.055   5.364 -0.1958  0.2557 -0.3609
15339SOL    HW147150   4.042   6.107   5.378 -0.3023  0.8200 -2.7206
15339SOL    HW247151   4.112   6.018   5.277  0.9487 -1.8993  0.3525
15340SOL     OW47152   0.811   7.588   6.135 -0.4555  0.1878 -0.1522
15340SOL    HW147153   0.813   7.601   6.229 -1.5692  0.0502 -0.0900
15340SOL    HW247154   0.798   7.675   6.098 -3.2602 -0.0723  0.0209
15341SOL     OW47155   1.470   6.817   3.070 -0.2288 -0.0848 -0.2928
15341SOL    HW147156   1.435   6.886   3.014  0.9132  0.0202 -0.9112
15341SOL    HW247157   1.518   6.759   3.011  0.8282 -0.0924  0.5176
15342SOL     OW47158   2.187   8.984   3.593 -0.3457 -0.3551  0.5840
15342SOL    HW147159   2.136   8.905   3.610  0.3525 -0.9869 -0.1304
15342SOL    HW247160   2.246   8.958   3.522 -0.7350  1.0864 -0.3008
15343SOL     OW47161   0.627   4.348   0.782  0.1550 -0.2764  0.1765
15343SOL    HW147162   0.611   4.265   0.736 -0.6961 -0.6910  1.1579
15343SOL    HW247163   0.600   4.415   0.720  1.3080 -0.6973 -0.8191
15344SOL     OW47164   7.756   0.685   6.686  0.7048  0.2221 -0.2820
15344SOL    HW147165   7.733   0.695   6.593  0.7025  4.5442  0.0118
15344SOL    HW247166   7.851   0.686   6.688  0.8379 -2.7221 -0.3100
15345SOL     OW47167   6.197   7.776   0.943 -0.1441 -0.3854  0.1386
15345SOL    HW147168   6.252   7.809   0.871 -0.4980  0.8062  0.3940
15345SOL    HW247169   6.131   7.722   0.899  0.8309 -1.3374 -0.2309
15346SOL     OW47170   7.836   7.240   0.213  0.1079 -0.2601 -0.0256
15346SOL    HW147171   7.834   7.326   0.253  2.7324  0.4053 -1.1116
15346SOL    HW247172   7.826   7.257   0.119 -1.0342 -1.3265 -0.1311
15347SOL     OW47173   0.788   6.180   2.340  1.2390 -0.1911  0.0570
15347SOL    HW147174   0.843   6.102   2.334 -0.1726 -1.2288 -0.0128
15347SOL    HW247175   0.775   6.207   2.249  0.5582 -0.7711 -0.0354
15348SOL     OW47176   0.341   3.509   5.841 -0.1292 -0.0551 -0.0560
15348SOL    HW147177   0.352   3.600   5.867  0.6647 -0.7477  2.2742
15348SOL    HW247178   0.310   3.465   5.920 -1.0162 -1.7377 -1.2704
15349SOL     OW47179   2.267   0.015   1.623 -0.2622  0.0546 -0.0310
15349SOL    HW147180   2.194  -0.041   1.597 -1.0078 -0.9700  3.6736
15349SOL    HW247181   2.232   0.104   1.616 -1.2178 -0.3099 -0.0494
15350SOL     OW47182   4.226   8.631   3.183  0.3622 -0.2099  0.6993
15350SOL    HW147183   4.260   8.550   3.222  1.6554  0.6993  1.5445
15350SOL    HW247184   4.287   8.651   3.112 -0.4189 -0.3892 -0.0407
15351SOL     OW47185   5.767   1.871   8.892 -0.2121  0.3053  0.2759
15351SOL    HW147186   5.848   1.906   8.932 -0.7079 -0.5406  2.1181
15351SOL    HW247187   5.722   1.949   8.860  0.9697  0.8722 -0.0913
15352SOL     OW47188   6.081   6.731   1.146 -0.0497  0.1134  0.1581
15352SOL    HW147189   6.086   6.728   1.050  0.0781  0.9384  0.1370
15352SOL    HW247190   6.140   6.801   1.171 -1.9554  1.6031  0.6836
15353SOL     OW47191   2.601   8.114   6.808 -0.0719 -0.1526  0.4907
15353SOL    HW147192   2.511   8.117   6.775 -0.0324 -3.4111 -0.3117
15353SOL    HW247193   2.593   8.085   6.899  0.1359 -1.8308  0.0111
15354SOL     OW47194   7.271   6.329   1.677  0.1230 -0.4852  0.1608
15354SOL    HW147195   7.282   6.375   1.760 -0.6626 -0.2452  0.1443
15354SOL    HW247196   7.200   6.266   1.694  2.0192 -2.6492  0.5675
15355SOL     OW47197   0.761   0.811   3.107  0.9116  0.7650 -0.4277
15355SOL    HW147198   0.758   0.823   3.012 -0.2828  0.7208 -0.4093
15355SOL    HW247199   0.705   0.881   3.141  0.6012  0.2200  0.1890
15356SOL     OW47200   5.883   0.232   1.587  0.1126 -0.9264  0.1398
15356SOL    HW147201   5.899   0.210   1.495 -0.5217 -1.4193  0.1386
15356SOL    HW247202   5.902   0.326   1.593  2.6803 -1.3510  0.0941
15357SOL     OW47203   7.807   5.145   2.276  0.0651 -0.1667  0.2689
15357SOL    HW147204   7.842   5.151   2.365 -0.2059 -1.6582  0.5179
15357SOL    HW247205   7.878   5.175   2.219  0.8777 -0.8493  0.8981
15358SOL     OW47206   0.872   1.273   5.069  0.1349 -0.5461 -0.0111
15358SOL    HW147207   0.806   1.204   5.076 -2.0257  1.3618 -0.4318
15358SOL    HW247208   0.830   1.350   5.105  1.3769  1.2774 -2.1866
15359SOL     OW47209   4.731   4.103   6.432  0.6483 -0.1342 -0.1978
15359SOL    HW147210   4.776   4.045   6.371  0.4823  0.1723 -0.6117
15359SOL    HW247211   4.801   4.138   6.488  0.6360 -1.5671  0.7823
15360SOL     OW47212   2.122   8.795   3.029 -0.3741 -0.5854  0.1067
15360SOL    HW147213   2.130   8.750   2.944 -1.6224  1.4456 -1.1723
15360SOL    HW247214   2.160   8.734   3.092  1.8948 -1.6107 -2.0866
15361SOL     OW47215   2.545   2.013   6.678 -0.1243 -0.1233 -0.1129
15361SOL    HW147216   2.640   2.000   6.674 -0.3152 -1.4166 -1.1256
15361SOL    HW247217   2.513   1.982   6.594 -1.8081 -3.4124  1.5239
15362SOL     OW47218   0.150   2.142   4.513 -0.6400  0.6029 -0.1755
15362SOL    HW147219   0.109   2.217   4.470  0.6510  2.1698  1.1623
15362SOL    HW247220   0.089   2.118   4.583 -0.6266  1.0251 -0.0186
15363SOL     OW47221   3.096   1.840   5.613 -0.2755  0.0072  0.0475
15363SOL    HW147222   3.187   1.865   5.632  0.2888 -1.4887 -0.5621
15363SOL    HW247223   3.072   1.781   5.685 -0.5447 -0.1381 -0.1630
15364SOL     OW47224   0.572   8.730   3.089 -0.4008 -0.1786  0.0333
15364SOL    HW147225   0.619   8.656   3.051  0.3325  0.3704 -0.1522
15364SOL    HW247226   0.578   8.799   3.023 -1.1772  0.0138  0.1543
15365SOL     OW47227   6.674   8.943   1.548 -0.0694  0.3048  0.2229
15365SOL    HW147228   6.739   8.931   1.479  0.3301  2.3284  0.1831
15365SOL    HW247229   6.592   8.958   1.503 -0.1103  0.1035  0.2285
15366SOL     OW47230   0.518   2.083   4.784 -0.2164  0.0477 -0.0340
15366SOL    HW147231   0.594   2.111   4.733 -1.0937  1.6862 -0.5455
15366SOL    HW247232   0.518   2.140   4.861  0.3859 -1.5670  1.2173
15367SOL     OW47233   6.029   5.295   3.334 -0.9323  0.5374  0.1927
15367SOL    HW147234   6.112   5.279   3.290 -1.0854 -2.0432  0.7265
15367SOL    HW247235   6.053   5.314   3.425 -0.8555  2.1422 -0.1177
15368SOL     OW47236   7.027   6.664   1.167  0.7471  0.0392 -0.3585
15368SOL    HW147237   7.067   6.656   1.253  0.5613 -0.7341 -0.3347
15368SOL    HW247238   7.017   6.573   1.136  0.7644  0.2998 -1.1682
15369SOL     OW47239   5.033   7.325   7.763  0.0488 -0.2338 -0.6819
15369SOL    HW147240   5.087   7.257   7.803  0.2401  0.4547  0.2659
15369SOL    HW247241   5.002   7.377   7.837  2.1608  2.3844 -1.4710
15370SOL     OW47242   0.252   2.242   3.828  0.6330 -0.0552 -0.1193
15370SOL    HW147243   0.199   2.313   3.791  1.9544  0.4459 -1.1355
15370SOL    HW247244   0.329   2.287   3.864  0.5763 -0.8009  0.9699
15371SOL     OW47245   1.858   7.715   9.099 -0.4591 -0.1267  0.1877
15371SOL    HW147246   1.765   7.715   9.076 -0.0834 -1.2169 -1.5541
15371SOL    HW247247   1.884   7.807   9.094 -1.4921  0.2237  0.9979
15372SOL     OW47248   0.848   6.826   7.368  0.4388 -0.3011  0.4901
15372SOL    HW147249   0.803   6.910   7.379  1.1605  0.0413  0.9175
15372SOL    HW247250   0.875   6.825   7.276 -1.4347 -1.0356 -0.0966
15373SOL     OW47251   7.057   4.397   0.282 -0.1767  0.3775 -0.4797
15373SOL    HW147252   7.119   4.442   0.226  0.1662 -0.6858 -0.9710
15373SOL    HW247253   7.072   4.304   0.266 -1.2936  0.0857  0.0465
15374SOL     OW47254   9.039   0.702   6.968 -0.0443 -0.0212 -0.1118
15374SOL    HW147255   8.950   0.738   6.961  0.4052  0.8992 -1.4038
15374SOL    HW247256   9.070   0.696   6.877  1.6556  0.8012  0.3765
15375SOL     OW47257   5.018   3.509   5.154 -0.3475 -0.7751  0.8170
15375SOL    HW147258   5.067   3.427   5.159 -1.3131 -1.6020 -1.7039
15375SOL    HW247259   4.926   3.482   5.145 -0.4177  0.1122 -4.9481
15376SOL     OW47260   5.686   8.595   4.849  0.1176 -0.3078  0.0365
15376SOL    HW147261   5.708   8.502   4.856  0.8929 -0.1534 -0.2703
15376SOL    HW247262   5.771   8.640   4.853 -0.2443  0.3789  0.0702
15377SOL     OW47263   0.648   1.262   6.885 -0.6906 -0.3294 -0.2822
15377SOL    HW147264   0.633   1.244   6.978  0.4196  0.1192  0.0047
15377SOL    HW247265   0.564   1.291   6.851 -1.1197 -0.5604  0.5680
15378SOL     OW47266   8.319   1.558   1.187  0.0366 -0.1925 -0.5042
15378SOL    HW147267   8.247   1.621   1.178  0.1523  0.2561  1.3661
15378SOL    HW247268   8.333   1.525   1.098 -1.7045  0.5541 -1.0960
15379SOL     OW47269   2.660   6.019   3.721 -0.4825 -0.4120  0.1855
15379SOL    HW147270   2.568   6.007   3.745 -0.7416 -1.0559 -1.0333
15379SOL    HW247271   2.658   6.052   3.631  0.4821 -1.0230 -0.0822
15380SOL     OW47272   6.714   6.106   0.194 -0.0005  0.0798  0.0328
15380SOL    HW147273   6.743   6.015   0.202  2.4164  0.5073 -2.3925
15380SOL    HW247274   6.676   6.111   0.107  0.6490  1.5706 -0.1862
15381SOL     OW47275   7.106   5.365   9.102 -0.2250 -0.1064 -0.3457
15381SOL    HW147276   7.078   5.454   9.078  0.6975  0.2064 -0.2978
15381SOL    HW247277   7.199   5.374   9.122 -0.2928 -0.9431  0.4048
15382SOL     OW47278   5.873   5.189   2.359 -0.2413 -0.0961  0.1483
15382SOL    HW147279   5.814   5.115   2.374  1.5609 -1.3945  1.2914
15382SOL    HW247280   5.894   5.220   2.447  1.3765 -0.1884 -0.1771
15383SOL     OW47281   1.481   4.332   0.659 -0.1229 -0.1451  0.7363
15383SOL    HW147282   1.445   4.243   0.654  2.0609 -1.1526  1.2650
15383SOL    HW247283   1.430   4.376   0.727 -1.7424 -0.7244 -0.0701
15384SOL     OW47284   4.263   2.307   7.183 -0.0565 -0.4092  0.5220
15384SOL    HW147285   4.284   2.231   7.237 -0.8990 -0.2369  1.1140
15384SOL    HW247286   4.265   2.275   7.093 -0.7510 -1.2108  0.7902
15385SOL     OW47287   7.977   5.707   2.626 -0.1260 -0.3214  0.7935
15385SOL    HW147288   7.979   5.754   2.543  1.3659  1.0440  1.5542
15385SOL    HW247289   7.891   5.663   2.627 -0.2321 -0.2434 -1.3641
15386SOL     OW47290   4.904   8.796   8.662 -0.7730 -0.4176  0.1289
15386SOL    HW147291   4.858   8.712   8.653 -1.6893  0.0502  0.2903
15386SOL    HW247292   4.834   8.860   8.673 -0.0275  0.1058  2.2403
15387SOL     OW47293   1.603   4.061   8.387 -0.3960 -1.0405 -0.0810
15387SOL    HW147294   1.596   4.152   8.416 -1.7791 -0.6502 -1.4599
15387SOL    HW247295   1.630   4.012   8.464 -0.5609  0.4129  0.9278
15388SOL     OW47296   0.490   2.235   5.006  0.5635  0.3150  0.3468
15388SOL    HW147297   0.412   2.231   5.061  0.4156  0.8954  0.1817
15388SOL    HW247298   0.555   2.281   5.059  1.0895 -0.9256  0.8264
15389SOL     OW47299   7.281   3.723   7.704 -0.4291  0.1446 -0.0720
15389SOL    HW147300   7.186   3.719   7.710 -0.4175  1.0375  1.0365
15389SOL    HW247301   7.298   3.777   7.627 -0.8658  1.4552  0.7186
15390SOL     OW47302   8.266   0.895   0.749 -0.4382 -0.0711  0.7393
15390SOL    HW147303   8.324   0.918   0.822  0.6147 -1.4263  0.3739
15390SOL    HW247304   8.310   0.822   0.706 -2.6001 -1.3802  0.6252
15391SOL     OW47305   3.946   1.632   1.728  0.0043  0.0756  0.3522
15391SOL    HW147306   3.924   1.706   1.784  0.5871 -0.3917  1.2195
15391SOL    HW247307   4.040   1.618   1.740 -0.1019 -0.8378  0.2530
15392SOL     OW47308   4.869   8.227   3.015  0.1594 -0.2090 -0.1286
15392SOL    HW147309   4.787   8.257   2.976 -0.4583  0.5176  1.6555
15392SOL    HW247310   4.855   8.134   3.032 -0.1608 -0.1623 -0.1311
15393SOL     OW47311   7.859   0.215   3.262 -0.6611  0.3174  0.2558
15393SOL    HW147312   7.793   0.268   3.307 -1.0444 -0.1374  0.2381
15393SOL    HW247313   7.938   0.228   3.313 -1.5921 -1.9693  2.5207
15394SOL     OW47314   7.925   8.356   1.467  0.4652 -0.2367  0.1377
15394SOL    HW147315   7.952   8.307   1.389 -0.0828 -0.1510 -0.1100
15394SOL    HW247316   7.994   8.421   1.480 -0.8478  1.8075 -2.0955
15395SOL     OW47317   0.999   6.475   7.218 -0.3335 -0.1089  0.0175
15395SOL    HW147318   1.040   6.410   7.161  0.2123  0.2910 -0.0653
15395SOL    HW247319   0.907   6.450   7.222 -0.1413 -0.8463 -0.0553
15396SOL     OW47320   0.101   4.112   5.807 -0.2132  0.1326  0.3608
15396SOL    HW147321   0.025   4.136   5.754 -1.3443  0.7898  2.1627
15396SOL    HW247322   0.138   4.196   5.834 -0.2906 -0.1524  1.4079
15397SOL     OW47323   8.198   0.949   5.264 -0.3179 -0.3269 -0.0711
15397SOL    HW147324   8.218   1.036   5.228  0.4741 -0.3781  0.2185
15397SOL    HW247325   8.104   0.952   5.284 -0.6924 -0.1698 -1.7645
15398SOL     OW47326   1.378   4.157   2.525  0.4193  0.2985  0.3277
15398SOL    HW147327   1.306   4.214   2.552  1.3019  0.9374  1.4506
15398SOL    HW247328   1.396   4.182   2.434 -0.8486  0.0235 -0.0167
15399SOL     OW47329   5.743   2.249   0.983  0.1778  0.3077  0.3211
15399SOL    HW147330   5.729   2.317   1.050 -2.3974 -0.0901  0.3201
15399SOL    HW247331   5.755   2.298   0.901 -0.7848  0.8128  0.4614
15400SOL     OW47332   5.243   4.875   7.568 -0.3127 -0.4026  0.1678
15400SOL    HW147333   5.280   4.825   7.495  0.3417  2.2517 -1.4738
15400SOL    HW247334   5.154   4.895   7.541 -0.0847  0.5565  0.0770
15401SOL     OW47335   0.863   1.060   2.589  0.0847  0.5735 -0.2985
15401SOL    HW147336   0.941   1.104   2.622 -1.1734  2.5325  0.2057
15401SOL    HW247337   0.790   1.104   2.632 -1.3341 -1.1305 -0.8351
15402SOL     OW47338   1.926   6.174   2.225 -0.8314 -0.0560 -0.2992
15402SOL    HW147339   2.006   6.222   2.246  0.3416 -2.0150  0.0618
15402SOL    HW247340   1.855   6.229   2.258  0.4387  1.1872  0.4658
15403SOL     OW47341   3.455   5.348   7.772 -0.2277  0.2471 -0.3457
15403SOL    HW147342   3.440   5.379   7.861 -2.1074 -0.3398 -0.4268
15403SOL    HW247343   3.384   5.287   7.755 -0.3527  0.9082 -2.5328
15404SOL     OW47344   6.797   1.585   7.875 -0.0984  0.2993  0.1425
15404SOL    HW147345   6.876   1.533   7.859  0.8351  1.6960  0.0015
15404SOL    HW247346   6.730   1.521   7.899  0.3007 -1.2634 -2.4499
15405SOL     OW47347   1.628   8.744   6.513  0.6975 -0.2831 -0.1002
15405SOL    HW147348   1.663   8.702   6.591  1.6429  1.8244  0.6743
15405SOL    HW247349   1.615   8.836   6.538  0.5631  0.3534 -2.2626
15406SOL     OW47350   4.884   7.305   2.164  0.0140  0.1333 -0.0566
15406SOL    HW147351   4.837   7.353   2.096 -1.1239  1.0379  1.3072
15406SOL    HW247352   4.962   7.359   2.182 -0.0198  0.2280 -0.1900
15407SOL     OW47353   2.757   5.161   7.504  0.0438  0.0851  0.0020
15407SOL    HW147354   2.729   5.223   7.437 -0.6653 -0.7949 -0.5519
15407SOL    HW247355   2.697   5.177   7.578  0.5017  0.7173  0.2390
15408SOL     OW47356   5.238   4.805   6.528  0.1658 -0.0232 -0.2932
15408SOL    HW147357   5.158   4.844   6.494  0.3258  1.6248  1.0911
15408SOL    HW247358   5.258   4.733   6.467 -2.0102 -0.0978 -0.9949
15409SOL     OW47359   4.516   5.126   7.460  0.6994 -0.0149  1.0224
15409SOL    HW147360   4.597   5.146   7.415  0.1188 -0.2886 -0.1992
15409SOL    HW247361   4.483   5.211   7.490 -0.5177  0.7076 -1.9591
15410SOL     OW47362   6.763   2.922   1.534  0.1066  0.3636 -0.0776
15410SOL    HW147363   6.785   3.000   1.482 -2.4362  1.5622  0.4802
15410SOL    HW247364   6.673   2.938   1.563 -0.5617 -2.8995 -0.0628
15411SOL     OW47365   7.843   2.429   7.696  0.2683 -0.4711 -0.3496
15411SOL    HW147366   7.834   2.405   7.789  0.2850  1.7156  0.2717
15411SOL    HW247367   7.798   2.513   7.689  1.6065  0.1474 -1.9967
15412SOL     OW47368   5.474   5.201   0.303 -0.1349  0.0063 -0.2070
15412SOL    HW147369   5.560   5.244   0.298  0.2627 -0.7377  0.0066
15412SOL    HW247370   5.450   5.184   0.212 -0.7333  1.4980 -0.3476
15413SOL     OW47371   8.746   2.629   0.175  0.0658 -0.4391  0.4463
15413SOL    HW147372   8.761   2.598   0.086 -2.2831 -0.7008  0.0605
15413SOL    HW247373   8.675   2.693   0.167 -0.0546 -0.3034  2.0897
15414SOL     OW47374   8.640   2.441   7.925  0.4337  0.1914  0.1651
15414SOL    HW147375   8.628   2.359   7.973  2.4505 -1.6944 -2.2325
15414SOL    HW247376   8.728   2.470   7.949  0.7584  0.1904 -0.9796
15415SOL     OW47377   1.354   5.826   1.388 -0.2388  0.3841  0.4687
15415SOL    HW147378   1.319   5.740   1.365 -0.3252  0.7317 -0.7936
15415SOL    HW247379   1.283   5.869   1.436 -0.5697  0.1193  0.2173
15416SOL     OW47380   0.412   5.277   7.809 -0.1905 -0.0496  0.0341
15416SOL    HW147381   0.330   5.312   7.775  0.3762  1.3200 -0.0082
15416SOL    HW247382   0.440   5.212   7.744 -1.0587 -0.2738 -0.1215
15417SOL     OW47383   6.580   7.759   5.565  0.0869  0.6262 -0.5785
15417SOL    HW147384   6.544   7.827   5.508  0.8579 -0.1531 -2.0751
15417SOL    HW247385   6.517   7.687   5.560  0.4400  0.3315 -0.9594
15418SOL     OW47386   8.610   6.002   9.089  0.4958 -0.6755  0.2089
15418SOL    HW147387   8.629   5.913   9.117  0.1171 -1.4388 -1.8111
15418SOL    HW247388   8.695   6.038   9.063  0.6287 -0.4807  0.8989
15419SOL     OW47389   6.612   0.840   5.773 -0.1643 -0.2435  0.5465
15419SOL    HW147390   6.685   0.800   5.726  1.9323  2.2428  1.4331
15419SOL    HW247391   6.594   0.921   5.725 -2.7015 -0.9625  0.1242
15420SOL     OW47392   5.181   7.472   5.447  0.3142 -0.2191 -0.5582
15420SOL    HW147393   5.221   7.387   5.464 -0.8324 -0.7182 -0.2880
15420SOL    HW247394   5.255   7.533   5.446  0.9825 -0.9549  0.9628
15421SOL     OW47395   3.345   8.284   3.271  0.5266  0.2042 -0.3354
15421SOL    HW147396   3.388   8.345   3.211  1.3405 -0.0492 -0.0145
15421SOL    HW247397   3.253   8.312   3.271  0.7310  0.9053 -0.8288
15422SOL     OW47398   8.088   8.705   1.713 -0.1992 -0.1969  0.0336
15422SOL    HW147399   8.053   8.794   1.725 -0.7376 -0.4278  0.2050
15422SOL    HW247400   8.173   8.706   1.757 -0.3192  0.1571  0.2635
15423SOL     OW47401   5.307   1.132   7.047 -0.2130  0.1704  0.1364
15423SOL    HW147402   5.333   1.105   7.135 -5.3804 -0.6570  1.7492
15423SOL    HW247403   5.276   1.052   7.006 -2.3248  1.2941 -0.5804
15424SOL     OW47404   1.311   5.290   7.118 -0.0082 -0.0836  0.2082
15424SOL    HW147405   1.295   5.197   7.104 -1.7220  0.0386  1.1226
15424SOL    HW247406   1.261   5.334   7.048 -0.9828  0.1990  1.0599
15425SOL     OW47407   4.598   5.194   9.077  0.0617 -0.3770  0.0369
15425SOL    HW147408   4.652   5.211   9.000  1.1361 -1.1671  0.5809
15425SOL    HW247409   4.519   5.154   9.043  0.8064 -1.3276 -0.6158
15426SOL     OW47410   1.020   1.006   4.491 -0.0519 -0.2777 -0.4215
15426SOL    HW147411   0.935   1.024   4.531 -0.2919 -0.2039 -0.9466
15426SOL    HW247412   1.072   1.085   4.509  0.5731 -1.0998  1.5832
15427SOL     OW47413   7.585   4.805   2.833  0.5037  1.1715  0.0547
15427SOL    HW147414   7.662   4.856   2.809  0.8473  0.0957 -1.3129
15427SOL    HW247415   7.620   4.732   2.884  0.4222  0.6641 -0.5960
15428SOL     OW47416   5.059   3.378   2.448  0.5664  0.4036 -0.0321
15428SOL    HW147417   5.083   3.360   2.357 -1.7795  0.0569 -0.6488
15428SOL    HW247418   5.125   3.440   2.478 -0.0560  2.6148 -2.8373
15429SOL     OW47419   2.717   6.139   2.282 -0.2420 -0.4429 -0.4649
15429SOL    HW147420   2.789   6.202   2.290 -0.5017 -0.3355  1.5683
15429SOL    HW247421   2.685   6.151   2.193 -0.6168  2.6904 -0.0279
15430SOL     OW47422   8.894   9.040   3.521 -0.1177 -0.3366  0.2573
15430SOL    HW147423   8.861   8.953   3.500  0.1655 -0.1421 -1.1598
15430SOL    HW247424   8.940   9.067   3.441 -2.4613  2.1766 -0.3904
15431SOL     OW47425   1.785   6.237   5.675 -0.3589 -0.0728 -0.0125
15431SOL    HW147426   1.825   6.318   5.642  0.4669 -0.2118  0.6148
15431SOL    HW247427   1.713   6.267   5.730  0.7325  0.3169  1.2699
15432SOL     OW47428   5.035   9.035   2.504  0.4318  0.6961 -0.1178
15432SOL    HW147429   5.097   9.068   2.439 -0.1340  1.3426 -0.3342
15432SOL    HW247430   5.039   9.098   2.576  0.8386  0.1395  0.3675
15433SOL     OW47431   8.463   3.942   0.534 -0.5144 -0.4386  0.5272
15433SOL    HW147432   8.552   3.946   0.569 -0.5969  0.8878  0.6465
15433SOL    HW247433   8.469   3.983   0.448 -0.7873 -1.4617  0.0035
15434SOL     OW47434   5.826   4.875   6.080 -0.6842  0.2114  0.0303
15434SOL    HW147435   5.858   4.863   6.170  0.2968  0.7781 -0.2389
15434SOL    HW247436   5.732   4.856   6.086 -0.2123 -2.2626  0.6809
15435SOL     OW47437   6.279   2.779   7.950 -0.0195 -0.2869  0.9684
15435SOL    HW147438   6.224   2.720   8.001 -1.7091  1.5090  1.3573
15435SOL    HW247439   6.255   2.867   7.981  2.6962  0.6286  0.7467
15436SOL     OW47440   4.873   3.274   7.819  0.2203  0.1170 -0.3578
15436SOL    HW147441   4.842   3.183   7.819 -2.7457  1.0069  0.8034
15436SOL    HW247442   4.960   3.270   7.860 -0.4106 -2.0535  0.9230
15437SOL     OW47443   0.527   0.567   8.722 -0.2253 -0.5124 -0.1371
15437SOL    HW147444   0.611   0.521   8.722  0.8918  1.3583  1.5978
15437SOL    HW247445   0.491   0.551   8.810 -0.8579  0.0957 -0.2769
15438SOL     OW47446   3.464   2.564   6.942 -0.1413 -0.0462 -0.3481
15438SOL    HW147447   3.535   2.629   6.949  1.9717 -2.3779  3.1198
15438SOL    HW247448   3.390   2.605   6.986  0.3727  0.8765 -0.3145
15439SOL     OW47449   3.526   1.562   3.913 -0.2716 -0.0714 -0.4441
15439SOL    HW147450   3.532   1.485   3.857 -1.6275 -0.1504 -0.5221
15439SOL    HW247451   3.594   1.621   3.880 -0.2594 -0.5957 -1.4008
15440SOL     OW47452   6.941   1.091   0.640 -0.2169 -0.1827  0.0857
15440SOL    HW147453   6.994   1.023   0.598 -0.6215 -1.3038  1.3392
15440SOL    HW247454   6.853   1.078   0.604  0.2245  1.5416 -1.8315
15441SOL     OW47455   2.018   8.452   8.075  0.1954  0.2880 -0.3342
15441SOL    HW147456   2.096   8.470   8.023  0.7967  1.8690  1.0376
15441SOL    HW247457   1.948   8.442   8.010  1.4228 -0.8202 -1.5687
15442SOL     OW47458   4.678   9.033   6.528  0.4808  0.5064 -0.2274
15442SOL    HW147459   4.698   9.034   6.622 -0.7303  1.5033  0.0479
15442SOL    HW247460   4.611   9.101   6.517 -1.6313 -1.5899 -1.2731
15443SOL     OW47461   6.078   8.788   3.856 -0.0213 -0.4278 -0.6487
15443SOL    HW147462   6.084   8.778   3.761 -2.9042 -1.1149 -0.8652
15443SOL    HW247463   6.117   8.873   3.875 -0.8156  0.4508 -2.6976
15444SOL     OW47464   1.418   3.363   5.698 -0.6515 -0.5294 -0.4717
15444SOL    HW147465   1.435   3.453   5.727  1.8533 -1.7073  2.1934
15444SOL    HW247466   1.332   3.343   5.734 -0.0942 -0.0112  1.2534
15445SOL     OW47467   0.535   2.389   3.076 -0.2915 -0.7153 -0.7641
15445SOL    HW147468   0.479   2.415   3.149 -1.2607 -0.1246 -1.6976
15445SOL    HW247469   0.610   2.449   3.081 -1.3297  0.7119 -1.4292
15446SOL     OW47470   7.573   4.158   0.346  0.3921 -0.0671 -0.1202
15446SOL    HW147471   7.583   4.239   0.395  1.5077 -0.9251  1.1317
15446SOL    HW247472   7.657   4.113   0.357 -0.9448 -2.4076  1.1242
15447SOL     OW47473   0.588   0.666   7.619  0.0819 -0.1316  0.1505
15447SOL    HW147474   0.513   0.661   7.677  1.1303  0.4349  1.6262
15447SOL    HW247475   0.628   0.751   7.638  2.1993 -1.2023  0.8595
15448SOL     OW47476   1.429   5.543   1.583  0.3719  0.1263  0.6699
15448SOL    HW147477   1.390   5.528   1.497  0.7388  0.7786  0.3871
15448SOL    HW247478   1.364   5.508   1.644 -0.1984  0.2701  0.1594
15449SOL     OW47479   6.979   5.321   0.894  0.4309  0.0126  0.4813
15449SOL    HW147480   7.018   5.267   0.962 -0.1349  0.0141  0.8142
15449SOL    HW247481   6.885   5.311   0.906  0.2847 -1.2876 -1.3291
15450SOL     OW47482   2.000   3.077   7.082  0.0803  0.0788  0.4638
15450SOL    HW147483   1.907   3.081   7.103 -0.4201  0.0167 -1.5462
15450SOL    HW247484   2.017   2.984   7.065  0.3384  0.1813  0.1390
15451SOL     OW47485   8.704   3.992   0.637 -0.2170  0.5014 -0.2300
15451SOL    HW147486   8.746   3.950   0.562 -1.4069 -1.2192  0.0216
15451SOL    HW247487   8.771   3.990   0.706  0.0183 -0.2168 -0.4741
15452SOL     OW47488   6.655   6.400   6.190 -0.1010 -0.1258 -0.6672
15452SOL    HW147489   6.693   6.344   6.123  0.9803 -0.9180  0.5711
15452SOL    HW247490   6.602   6.341   6.244  0.2948  0.2087  0.0957
15453SOL     OW47491   3.325   0.584   8.535 -0.6127  0.2210  0.2360
15453SOL    HW147492   3.247   0.601   8.481  0.4006  0.2783 -1.2915
15453SOL    HW247493   3.395   0.568   8.471  0.1342 -2.3072  1.5349
15454SOL     OW47494   6.121   5.710   0.052  0.2426  0.1383 -0.1061
15454SOL    HW147495   6.119   5.673   0.141  1.2033  0.1976 -0.0450
15454SOL    HW247496   6.082   5.642  -0.003 -0.4277  0.1299  0.3655
15455SOL     OW47497   4.195   5.210   2.415  0.7125  0.0670  0.5808
15455SOL    HW147498   4.174   5.141   2.352  1.0755  1.1089 -0.7295
15455SOL    HW247499   4.143   5.285   2.386  0.0956  0.2869  2.1514
15456SOL     OW47500   9.023   0.834   2.616  0.1278 -0.6119  0.1636
15456SOL    HW147501   9.094   0.883   2.573 -0.8676  1.1229  0.4039
15456SOL    HW247502   8.993   0.772   2.549  1.7331 -1.2792  0.0085
15457SOL     OW47503   6.266   2.928   7.630  0.1584  0.6106  0.2318
15457SOL    HW147504   6.301   2.962   7.712  0.9161  0.5829 -0.0719
15457SOL    HW247505   6.173   2.954   7.631  0.1546  0.6011  1.0917
15458SOL     OW47506   8.802   3.038   2.760  0.5737 -0.4488  0.2294
15458SOL    HW147507   8.766   2.949   2.753  0.5160 -0.3366 -0.9974
15458SOL    HW247508   8.772   3.069   2.845  2.4928 -2.4362  1.7705
15459SOL     OW47509   5.710   8.522   7.271 -0.0002  0.5189  0.0598
15459SOL    HW147510   5.753   8.437   7.262  0.3947  0.7833 -0.5536
15459SOL    HW247511   5.759   8.567   7.340  0.5489  0.7140 -0.4500
15460SOL     OW47512   7.764   4.890   5.214 -0.1315  0.6108 -0.2445
15460SOL    HW147513   7.751   4.795   5.220 -0.6910  0.6261 -1.0367
15460SOL    HW247514   7.821   4.902   5.138 -0.5858  0.9403 -0.5404
15461SOL     OW47515   0.034   0.169   1.341  0.5422  0.2460 -0.3645
15461SOL    HW147516  -0.032   0.204   1.282 -0.3783  0.8041  0.9640
15461SOL    HW247517  -0.015   0.122   1.408  1.3022  2.4282  1.8381
15462SOL     OW47518   4.933   0.751   3.166  0.1735 -0.1106  0.2130
15462SOL    HW147519   5.013   0.802   3.160  0.7026 -0.7241  1.7303
15462SOL    HW247520   4.949   0.674   3.111  0.1621  0.3125 -0.3989
15463SOL     OW47521   6.466   6.286   6.348 -0.0068  0.4414  0.8067
15463SOL    HW147522   6.511   6.233   6.413 -0.8392 -0.8921  0.3250
15463SOL    HW247523   6.414   6.349   6.399  1.0850  0.9036  1.3752
15464SOL     OW47524   3.654   8.754   0.054  0.3380 -0.2642 -0.2948
15464SOL    HW147525   3.705   8.702   0.116 -1.1850 -1.2258  0.2175
15464SOL    HW247526   3.566   8.714   0.056 -0.3288  1.0584 -1.4395
15465SOL     OW47527   8.813   1.620   1.764  0.0577  0.7316  0.1026
15465SOL    HW147528   8.908   1.610   1.763 -0.0729 -0.9488 -0.9514
15465SOL    HW247529   8.797   1.712   1.741  1.4272  0.3972 -2.5996
15466SOL     OW47530   0.093   0.073   3.870  0.0719  0.3866 -0.0139
15466SOL    HW147531   0.030   0.145   3.872  0.3309  0.6043  0.6045
15466SOL    HW247532   0.167   0.107   3.820 -0.0164  0.3655 -0.1611
15467SOL     OW47533   1.028   1.087   8.110 -0.3518 -0.2979  0.2173
15467SOL    HW147534   1.040   1.129   8.195 -0.8845 -0.2697  0.2814
15467SOL    HW247535   0.981   1.006   8.129 -1.8004  0.4183 -0.1921
15468SOL     OW47536   3.401   5.773   5.376  0.2175  0.2067 -0.3791
15468SOL    HW147537   3.478   5.758   5.320  1.1045  1.1616  0.5372
15468SOL    HW247538   3.380   5.866   5.363  0.7072  0.5659  1.1572
15469SOL     OW47539   8.657   2.782   4.352 -0.3703 -0.2117 -0.3182
15469SOL    HW147540   8.668   2.695   4.391 -2.1940 -0.2679  0.1874
15469SOL    HW247541   8.743   2.804   4.317  0.5861 -1.4616  1.1175
15470SOL     OW47542   3.585   5.614   2.391  0.6141  0.4482 -0.2760
15470SOL    HW147543   3.569   5.522   2.410 -1.1508  0.8452  0.4013
15470SOL    HW247544   3.634   5.614   2.309  1.7092 -1.1011  0.3322
15471SOL     OW47545   2.595   2.108   1.924  0.0498 -0.2084 -0.1840
15471SOL    HW147546   2.637   2.039   1.976  0.8599  1.0289  0.8617
15471SOL    HW247547   2.509   2.119   1.964 -0.8228 -1.8189 -1.4917
15472SOL     OW47548   0.979   2.254   5.337  0.3421 -0.5640  0.0348
15472SOL    HW147549   0.972   2.183   5.274 -2.8011 -0.5397  0.2001
15472SOL    HW247550   0.997   2.210   5.420  1.8918 -0.8105 -0.4012
15473SOL     OW47551   8.411   4.578   1.172  0.1877  0.5060 -0.5879
15473SOL    HW147552   8.383   4.596   1.082  0.0248  1.7583 -0.2964
15473SOL    HW247553   8.336   4.533   1.211  0.0007  0.5551 -0.8897
15474SOL     OW47554   8.535   7.773   0.566 -0.7176  0.1111 -0.1906
15474SOL    HW147555   8.532   7.781   0.662  0.3595  0.4237 -0.1651
15474SOL    HW247556   8.584   7.693   0.550  0.0716  0.6308 -0.4633
15475SOL     OW47557   0.144   1.947   3.798  0.0281  0.0774  0.2159
15475SOL    HW147558   0.064   1.965   3.749  0.6236 -0.4654 -1.0138
15475SOL    HW247559   0.154   2.022   3.857 -1.0811  0.4139 -0.0001
15476SOL     OW47560   5.465   2.223   3.444 -0.2231  0.7463 -0.6903
15476SOL    HW147561   5.539   2.166   3.422 -0.3656  0.4795 -0.4783
15476SOL    HW247562   5.434   2.256   3.360 -0.2904  0.3244 -0.8322
15477SOL     OW47563   6.349   1.622   6.028  0.0522  0.3812  0.3383
15477SOL    HW147564   6.359   1.639   6.122  0.0585 -0.4400  0.4952
15477SOL    HW247565   6.392   1.538   6.014 -1.6140 -0.4660 -0.0223
15478SOL     OW47566   5.061   8.638   4.465 -0.1318  0.0598 -0.7978
15478SOL    HW147567   5.064   8.553   4.510 -0.4637  0.0484 -0.7961
15478SOL    HW247568   4.971   8.668   4.477  0.5904  1.5737  1.3481
15479SOL     OW47569   3.336   5.326   3.523 -0.1044  0.3723  0.7312
15479SOL    HW147570   3.364   5.261   3.458 -0.4424 -0.1373  1.0806
15479SOL    HW247571   3.418   5.355   3.564  0.3485  2.3685 -1.4086
15480SOL     OW47572   4.859   3.189   1.795  0.4527 -0.3142  0.1761
15480SOL    HW147573   4.933   3.170   1.738  0.2521  0.8921 -0.5221
15480SOL    HW247574   4.900   3.210   1.880  0.7720 -1.6623  0.3826
15481SOL     OW47575   6.147   6.283   0.900  0.2076  0.5328  0.1673
15481SOL    HW147576   6.132   6.348   0.969  0.6667  0.3589  0.4346
15481SOL    HW247577   6.211   6.324   0.842 -0.3660  0.7812 -0.3007
15482SOL     OW47578   7.318   4.711   6.476 -0.3371 -0.1644  0.3163
15482SOL    HW147579   7.295   4.720   6.569 -0.2909  0.8507  0.2461
15482SOL    HW247580   7.243   4.745   6.429  0.2992  0.8948  0.0301
15483SOL     OW47581   7.076   8.979   6.797  0.0300  0.5718  0.5456
15483SOL    HW147582   7.049   8.889   6.813 -0.2943  0.2290 -1.6812
15483SOL    HW247583   7.166   8.983   6.827  0.2778 -0.7068  0.0238
15484SOL     OW47584   8.160   7.143   5.788 -0.1969 -0.1514  0.3945
15484SOL    HW147585   8.239   7.151   5.842 -0.2961 -2.9651  1.1325
15484SOL    HW247586   8.096   7.200   5.831  1.1983  1.7189  0.1272
15485SOL     OW47587   8.244   3.689   7.734 -0.5405 -0.3811 -0.4233
15485SOL    HW147588   8.269   3.762   7.679  0.2123 -0.7351 -0.5579
15485SOL    HW247589   8.239   3.725   7.822  2.0531 -0.6108 -0.1107
15486SOL     OW47590   3.743   5.397   0.788 -0.5271 -0.3291 -0.3035
15486SOL    HW147591   3.803   5.413   0.716 -0.9576 -0.1172 -0.6167
15486SOL    HW247592   3.686   5.474   0.790 -0.0682  0.0138  0.7183
15487SOL     OW47593   5.922   2.862   8.387  0.4950 -0.2596  0.3627
15487SOL    HW147594   5.958   2.786   8.432 -0.6977 -1.8942 -1.3024
15487SOL    HW247595   5.839   2.878   8.431  0.3560 -0.4612  0.1759
15488SOL     OW47596   0.616   4.703   0.903 -0.0713  0.3907 -0.3153
15488SOL    HW147597   0.673   4.669   0.833  1.2433 -0.1259  0.9621
15488SOL    HW247598   0.644   4.794   0.914  0.4863  0.1556  0.2684
15489SOL     OW47599   5.442   5.822   3.761  0.7165 -0.3708  0.1069
15489SOL    HW147600   5.458   5.752   3.698  1.0325 -0.8004  0.6537
15489SOL    HW247601   5.352   5.809   3.790  0.9576 -0.8994  0.6293
15490SOL     OW47602   2.193   0.725   8.338  0.0118 -0.4990  0.0432
15490SOL    HW147603   2.130   0.770   8.394  1.0268  0.2107  0.6298
15490SOL    HW247604   2.215   0.789   8.270  0.7921 -0.4143  0.3720
15491SOL     OW47605   0.538   0.211   2.744  0.4886  0.1723 -0.0225
15491SOL    HW147606   0.546   0.138   2.683 -1.1777 -0.1079  0.0624
15491SOL    HW247607   0.605   0.273   2.716  0.8617 -0.6879 -1.0870
15492SOL     OW47608   0.197   5.247   0.049 -0.4111  0.1696 -0.2446
15492SOL    HW147609   0.238   5.311   0.107 -1.1465  2.4435 -2.0729
15492SOL    HW247610   0.103   5.254   0.069 -0.4804 -0.5705 -0.2744
15493SOL     OW47611   5.426   6.770   0.291 -0.4296  0.1633 -0.3319
15493SOL    HW147612   5.368   6.723   0.351  0.5969  0.6844  1.1204
15493SOL    HW247613   5.409   6.862   0.310  2.1312  0.3491  1.4497
15494SOL     OW47614   3.540   7.847   0.073 -0.6150 -0.5391  0.1954
15494SOL    HW147615   3.622   7.867   0.120 -0.8969 -0.1328  0.5236
15494SOL    HW247616   3.494   7.930   0.070 -0.0244 -0.2420 -2.0028
15495SOL     OW47617   4.419   1.008   7.813 -0.2368  0.1413 -0.5336
15495SOL    HW147618   4.470   1.047   7.742  1.7379 -0.6960  0.3572
15495SOL    HW247619   4.359   0.947   7.769  0.3006  0.3317 -1.5423
15496SOL     OW47620   5.453   3.194   2.840 -0.7068 -0.0055 -0.1041
15496SOL    HW147621   5.477   3.118   2.787 -0.4900  0.0374 -0.0678
15496SOL    HW247622   5.392   3.243   2.786 -1.1980 -0.4428  0.0523
15497SOL     OW47623   6.663   4.469   1.060  0.4019  0.6345  0.4266
15497SOL    HW147624   6.661   4.465   0.965  0.6792  2.1654  0.3394
15497SOL    HW247625   6.756   4.466   1.083  0.5011  2.7557  0.4830
15498SOL     OW47626   2.905   5.615   3.648 -0.4457  0.0967 -0.0273
15498SOL    HW147627   2.983   5.656   3.684 -0.9016  1.6704 -0.7688
15498SOL    HW247628   2.919   5.617   3.553 -1.2574  0.0988 -0.1480
15499SOL     OW47629   1.865   5.819   6.128  0.4241  0.1854 -0.1610
15499SOL    HW147630   1.824   5.878   6.065  1.5951  1.0252 -0.1782
15499SOL    HW247631   1.841   5.855   6.213  1.2493  0.7977 -0.1722
15500SOL     OW47632   3.575   2.122   2.058 -0.2523  0.2222  0.1949
15500SOL    HW147633   3.606   2.033   2.074  0.7845  0.2856 -1.2906
15500SOL    HW247634   3.594   2.168   2.140  0.8773 -0.4920  0.3605
15501SOL     OW47635   2.231   6.283   8.287 -0.3295  0.1846 -0.3652
15501SOL    HW147636   2.201   6.315   8.202 -0.6661  1.1942  0.1205
15501SOL    HW247637   2.199   6.347   8.350  0.5905 -0.1260  0.4484
15502SOL     OW47638   2.051   7.223   4.795  0.1059  0.0435  0.7775
15502SOL    HW147639   2.057   7.307   4.750 -1.0421 -0.6070 -0.6585
15502SOL    HW247640   2.096   7.161   4.737 -4.1204 -1.4528 -1.3564
15503SOL     OW47641   5.756   4.098   1.395  0.4212 -0.1330  0.2936
15503SOL    HW147642   5.708   4.119   1.314  1.7926  0.2752 -0.4313
15503SOL    HW247643   5.787   4.008   1.381 -0.9709 -0.7924  1.2005
15504SOL     OW47644   1.399   3.808   0.796 -0.2314  0.4997 -0.0774
15504SOL    HW147645   1.455   3.735   0.824 -0.5687  0.6192  0.9255
15504SOL    HW247646   1.461   3.877   0.772  0.0727  0.8537  1.6066
15505SOL     OW47647   3.097   5.758   0.434 -0.2397 -0.2708  0.2149
15505SOL    HW147648   3.033   5.705   0.388  0.2492  0.1886 -1.0274
15505SOL    HW247649   3.176   5.704   0.436 -0.4188 -0.5149  1.0304
15506SOL     OW47650   8.764   5.416   8.612  0.3329 -0.4168  0.1076
15506SOL    HW147651   8.793   5.334   8.651 -0.5122 -1.7475 -1.9096
15506SOL    HW247652   8.820   5.483   8.653  1.2108 -1.9952  1.6209
15507SOL     OW47653   6.456   7.508   7.681  0.0508  0.2518 -0.2703
15507SOL    HW147654   6.527   7.456   7.716 -0.0058  0.5003  0.2170
15507SOL    HW247655   6.442   7.578   7.745  1.3966  2.0131 -1.7688
15508SOL     OW47656   5.198   7.391   8.168  0.4782  0.2791 -0.6331
15508SOL    HW147657   5.126   7.346   8.210  1.3168 -0.8599 -0.3555
15508SOL    HW247658   5.275   7.336   8.185  0.9623  0.0057 -3.1957
15509SOL     OW47659   8.830   7.146   4.003 -0.4897 -0.3265  0.0547
15509SOL    HW147660   8.879   7.118   4.080  1.3739  0.6386 -0.7279
15509SOL    HW247661   8.740   7.155   4.035 -0.2116 -2.0897  1.5549
15510SOL     OW47662   0.878   5.225   5.122  0.2116 -0.1666  0.7565
15510SOL    HW147663   0.951   5.168   5.145 -0.4810 -1.2248  0.4400
15510SOL    HW247664   0.811   5.205   5.188  0.3797  1.1836  1.3754
15511SOL     OW47665   7.116   0.424   4.937  0.6810 -0.1894 -0.3563
15511SOL    HW147666   7.097   0.478   4.861  0.4002  1.3493  0.7549
15511SOL    HW247667   7.072   0.341   4.919  0.1589  0.3372 -1.6133
15512SOL     OW47668   6.048   6.567   0.274 -0.2456  0.0414 -0.0289
15512SOL    HW147669   6.143   6.563   0.267 -0.1969 -1.3662  0.9059
15512SOL    HW247670   6.032   6.626   0.347 -0.1293  0.8772 -0.6693
15513SOL     OW47671   4.919   8.033   7.366 -0.2365  0.1891  0.1197
15513SOL    HW147672   4.995   7.996   7.411 -1.1774 -2.1013 -0.0795
15513SOL    HW247673   4.954   8.064   7.283  0.6487  0.1060  0.4459
15514SOL     OW47674   5.873   6.786   1.321  0.2912 -0.0900 -0.2626
15514SOL    HW147675   5.841   6.873   1.299  0.9971  0.3247  0.3211
15514SOL    HW247676   5.947   6.772   1.263  0.5506 -0.0548  0.0585
15515SOL     OW47677   6.102   5.178   1.361 -0.3422  0.2400  0.2908
15515SOL    HW147678   6.186   5.224   1.356 -0.1370 -0.0052  1.3173
15515SOL    HW247679   6.063   5.189   1.274  0.3142  1.1876  0.1086
15516SOL     OW47680   8.854   2.395   0.842  0.0346 -0.8029 -0.7341
15516SOL    HW147681   8.867   2.379   0.749  1.8655  1.4962 -0.9517
15516SOL    HW247682   8.911   2.469   0.863 -2.5689  0.7984  1.5430
15517SOL     OW47683   0.483   5.368   1.023  0.6573 -0.0045  0.0068
15517SOL    HW147684   0.527   5.451   1.039  1.5814 -0.5383  0.3229
15517SOL    HW247685   0.446   5.377   0.935 -0.2778  1.1639  0.5056
15518SOL     OW47686   8.463   4.040   7.127  0.0276 -0.0175 -0.7320
15518SOL    HW147687   8.421   3.954   7.130 -1.1558  0.4816 -2.1564
15518SOL    HW247688   8.529   4.036   7.197 -0.6561 -1.7234 -0.1193
15519SOL     OW47689   5.500   6.911   5.581 -0.1504 -0.7411  0.8561
15519SOL    HW147690   5.511   7.002   5.608 -1.0857 -0.5757  0.7096
15519SOL    HW247691   5.445   6.872   5.649 -0.9586 -0.8072  0.1858
15520SOL     OW47692   6.906   2.606   7.282  0.0390 -0.1411  0.3051
15520SOL    HW147693   6.836   2.544   7.263 -0.4813  0.9119 -1.3417
15520SOL    HW247694   6.870   2.692   7.260  1.1071  0.6750  1.5451
15521SOL     OW47695   7.697   5.916   3.399 -0.2279  0.1790  0.2171
15521SOL    HW147696   7.730   5.827   3.392 -0.0811  0.3602 -2.0314
15521SOL    HW247697   7.775   5.971   3.390 -0.3653  0.5611  1.2209
15522SOL     OW47698   5.567   2.010   1.488 -0.5071 -0.2627  0.6322
15522SOL    HW147699   5.584   1.937   1.428 -0.6343  1.2798 -1.4053
15522SOL    HW247700   5.505   1.975   1.551 -0.7821 -1.8600 -0.4621
15523SOL     OW47701   7.879   0.497   2.729 -0.2454 -0.1081 -0.3530
15523SOL    HW147702   7.973   0.483   2.744 -0.0514  1.6322  0.3626
15523SOL    HW247703   7.862   0.459   2.643  1.4510  0.8302 -1.1429
15524SOL     OW47704   5.690   8.029   8.565 -0.1612  0.0408 -0.2700
15524SOL    HW147705   5.625   8.087   8.604 -0.5995  0.0093 -0.9385
15524SOL    HW247706   5.756   8.088   8.528  0.1675  0.0735  0.3486
15525SOL     OW47707   1.599   6.212   0.521  0.3076  0.6673 -0.1780
15525SOL    HW147708   1.599   6.203   0.426  1.1015  0.9415 -0.2164
15525SOL    HW247709   1.527   6.272   0.540 -0.9123 -0.6598 -0.4494
15526SOL     OW47710   5.410   0.088   2.516  0.2637  0.0300  0.2116
15526SOL    HW147711   5.484   0.141   2.485 -0.5890  0.2287 -1.6030
15526SOL    HW247712   5.414   0.009   2.463  1.0883 -1.5097  2.3908
15527SOL     OW47713   5.540   5.857   1.672  0.1757  0.5168  0.3219
15527SOL    HW147714   5.607   5.790   1.660  0.1161  0.8274 -2.3465
15527SOL    HW247715   5.582   5.938   1.643 -0.3879  1.3220  1.6314
15528SOL     OW47716   5.877   6.280   0.479  0.0832 -0.1366  0.0391
15528SOL    HW147717   5.798   6.287   0.426  0.6647 -0.4369 -0.9010
15528SOL    HW247718   5.850   6.235   0.558 -0.4995 -1.0824 -0.6872
15529SOL     OW47719   1.903   9.085   3.852 -0.9026  0.5599  0.1941
15529SOL    HW147720   1.864   9.064   3.767  0.0861 -1.2319  0.1306
15529SOL    HW247721   1.977   9.141   3.831  0.8540 -1.8437 -0.4702
15530SOL     OW47722   2.474   4.415   2.758 -0.0496  0.1414  0.8103
15530SOL    HW147723   2.454   4.326   2.730 -0.1430  0.5837 -0.5784
15530SOL    HW247724   2.498   4.461   2.678  0.1065  1.3464  1.5228
15531SOL     OW47725   4.762   7.773   6.153  0.2914  0.3353 -0.4466
15531SOL    HW147726   4.799   7.815   6.230  0.5432 -0.4227 -0.1474
15531SOL    HW247727   4.702   7.838   6.116  0.3464  0.7880  0.2524
15532SOL     OW47728   7.396   3.232   7.749  0.2499 -0.0708  0.3201
15532SOL    HW147729   7.324   3.191   7.797  0.7820 -1.1817  0.2088
15532SOL    HW247730   7.353   3.285   7.682 -0.4646 -1.2393 -0.1759
15533SOL     OW47731   5.858   2.307   7.910 -0.1744 -0.0808  0.4858
15533SOL    HW147732   5.886   2.399   7.918 -1.0565  0.1277  1.2261
15533SOL    HW247733   5.776   2.311   7.861  0.6428 -0.6357 -0.9965
15534SOL     OW47734   1.523   1.093   5.026 -0.4464  0.4508 -0.5703
15534SOL    HW147735   1.512   1.019   5.086 -0.7127  0.4456 -0.6220
15534SOL    HW247736   1.499   1.058   4.940 -0.3802  0.5448 -0.6273
15535SOL     OW47737   7.974   2.049   7.729  0.1648 -0.5356 -0.2599
15535SOL    HW147738   8.028   2.106   7.675  0.2493 -1.3833 -1.1014
15535SOL    HW247739   7.928   1.993   7.667  1.6502 -2.7968  0.5147
15536SOL     OW47740   8.141   5.352   7.046 -0.0348  0.1228  0.0412
15536SOL    HW147741   8.144   5.268   7.092  1.1341 -0.1814 -0.5384
15536SOL    HW247742   8.049   5.365   7.025 -0.1910 -1.2084 -0.1825
15537SOL     OW47743   8.535   2.189   1.214  0.0538  0.2665  0.2670
15537SOL    HW147744   8.535   2.095   1.230 -0.3900  0.2219  0.0094
15537SOL    HW247745   8.614   2.221   1.258 -1.4908  0.2700  3.3174
15538SOL     OW47746   2.207   8.801   0.370 -0.4033 -0.8286 -0.5068
15538SOL    HW147747   2.246   8.776   0.453  0.4089  0.2991 -0.5217
15538SOL    HW247748   2.274   8.854   0.327 -2.0796  1.6610 -0.2977
15539SOL     OW47749   2.238   5.158   7.821  0.1814 -0.2482  0.7552
15539SOL    HW147750   2.258   5.229   7.882  1.6393 -1.3954  1.7039
15539SOL    HW247751   2.245   5.078   7.875 -1.1496 -1.1537 -0.3222
15540SOL     OW47752   7.067   1.112   2.765 -0.3014 -0.7875 -0.0477
15540SOL    HW147753   7.108   1.198   2.757  0.0416 -0.8723  0.7298
15540SOL    HW247754   6.978   1.130   2.794 -0.3771 -0.6679 -0.3603
15541SOL     OW47755   5.768   0.490   6.441  0.1399  0.2843 -0.2279
15541SOL    HW147756   5.718   0.433   6.383 -0.2225  1.8760 -1.5584
15541SOL    HW247757   5.741   0.465   6.529 -1.8324  0.0294 -0.8558
15542SOL     OW47758   3.236   5.050   2.560  0.0539 -0.0309  0.3184
15542SOL    HW147759   3.197   5.126   2.601  0.1915  0.2226 -0.0139
15542SOL    HW247760   3.207   4.976   2.613 -0.0841  0.2515  0.6370
15543SOL     OW47761   6.373   0.864   6.342 -0.2471  0.8235  0.1016
15543SOL    HW147762   6.309   0.935   6.339 -0.5149  0.6084 -3.0147
15543SOL    HW247763   6.455   0.904   6.313  0.1354  0.3197  0.4601
15544SOL     OW47764   9.061   2.918   0.433  0.2035  0.1933 -0.5416
15544SOL    HW147765   9.044   2.951   0.521  0.1633 -0.5748 -0.2545
15544SOL    HW247766   8.978   2.930   0.386  0.2945  0.8169 -0.5484
15545SOL     OW47767   2.870   3.917   2.349 -0.2009  0.2124 -0.4411
15545SOL    HW147768   2.887   3.845   2.289 -1.7364  0.1882 -0.8847
15545SOL    HW247769   2.878   3.996   2.294  0.9833  0.3758 -0.0666
15546SOL     OW47770   2.523   3.176   8.274  0.4714 -0.0988 -0.2087
15546SOL    HW147771   2.441   3.142   8.309  0.3134 -1.1180 -1.4576
15546SOL    HW247772   2.500   3.260   8.234  0.1440 -0.1374 -0.0996
15547SOL     OW47773   4.479   7.293   3.635  0.0235 -0.1815  0.6293
15547SOL    HW147774   4.427   7.305   3.714 -0.0643  1.1594  0.3794
15547SOL    HW247775   4.495   7.381   3.602  0.0262 -0.7134 -0.8820
15548SOL     OW47776   0.795   1.763   8.715 -0.0363  0.5382  0.2207
15548SOL    HW147777   0.869   1.753   8.776 -0.8518  0.1748  1.1786
15548SOL    HW247778   0.727   1.707   8.751 -1.2782  1.9440  0.1490
15549SOL     OW47779   3.791   7.638   2.530 -0.1389  0.5352  0.0964
15549SOL    HW147780   3.716   7.578   2.527 -0.1983  0.6095  0.0787
15549SOL    HW247781   3.764   7.713   2.476  0.1566  0.3225 -0.3506
15550SOL     OW47782   8.088   8.325   2.290  0.2127  0.0556 -0.1564
15550SOL    HW147783   8.020   8.289   2.233  0.3323 -1.6054  0.6648
15550SOL    HW247784   8.171   8.296   2.250  0.4394  1.5759 -0.8363
15551SOL     OW47785   0.914   7.867   5.520 -0.1394 -0.0732  0.0082
15551SOL    HW147786   0.903   7.819   5.603 -2.3417  2.4539  1.3378
15551SOL    HW247787   0.879   7.808   5.453  1.0771 -1.9226  0.9393
15552SOL     OW47788   0.857   7.800   8.978 -0.3681 -0.0927 -0.1528
15552SOL    HW147789   0.814   7.783   9.062 -1.5754 -1.3328 -0.9792
15552SOL    HW247790   0.788   7.837   8.923  0.3550  0.5022 -0.6743
15553SOL     OW47791   7.206   4.800   0.193 -0.5183  0.0251 -0.0920
15553SOL    HW147792   7.213   4.892   0.168 -1.1374  0.4108  1.0836
15553SOL    HW247793   7.121   4.793   0.237 -0.6089 -1.1757 -0.4221
15554SOL     OW47794   2.360   7.993   7.296 -0.1896 -0.2759  0.0696
15554SOL    HW147795   2.401   7.914   7.262 -1.0276 -1.5207  1.8219
15554SOL    HW247796   2.427   8.034   7.350 -0.7212 -1.5471  1.7693
15555SOL     OW47797   0.605   1.025   7.635 -0.4796 -0.0554 -0.0995
15555SOL    HW147798   0.623   1.078   7.713 -1.4454  1.9892 -1.1730
15555SOL    HW247799   0.509   1.028   7.625 -0.6057 -2.2637 -0.0892
15556SOL     OW47800   3.966   8.279   0.176 -0.1390 -0.3090  0.0188
15556SOL    HW147801   4.025   8.209   0.146 -0.3526 -0.6530  0.3888
15556SOL    HW247802   3.963   8.341   0.103  0.2949 -0.5366 -0.1929
15557SOL     OW47803   6.026   8.501   0.305 -0.1462 -0.0245 -0.5266
15557SOL    HW147804   5.983   8.552   0.235 -0.9607  2.9288  1.9007
15557SOL    HW247805   6.120   8.517   0.291 -0.3149  0.8282 -0.7959
15558SOL     OW47806   4.964   6.086   6.913  0.0081  0.0584 -0.5052
15558SOL    HW147807   4.895   6.106   6.850  1.0632  0.1597 -1.6669
15558SOL    HW247808   4.996   5.999   6.887  1.0144  0.4594 -0.6540
15559SOL     OW47809   4.067   6.220   2.060  0.2604 -1.5437 -0.1678
15559SOL    HW147810   4.145   6.273   2.076  0.8275 -2.7817  1.4208
15559SOL    HW247811   4.068   6.203   1.966 -0.0168  1.3016 -0.7609
15560SOL     OW47812   6.408   6.325   1.552 -0.0395 -0.1490  0.1488
15560SOL    HW147813   6.488   6.273   1.544 -0.3855 -0.5852 -0.5700
15560SOL    HW247814   6.436   6.405   1.597  0.6969 -0.5149  0.3624
15561SOL     OW47815   0.788   7.354   2.339 -0.7346  0.2805 -0.2372
15561SOL    HW147816   0.839   7.361   2.420 -0.4992  0.1419 -0.3705
15561SOL    HW247817   0.850   7.378   2.270 -0.9110  0.3167 -0.3834
15562SOL     OW47818   3.078   7.888   3.739 -0.5237  0.2089  0.5259
15562SOL    HW147819   3.136   7.859   3.669  0.6644  1.8483  0.7778
15562SOL    HW247820   3.135   7.897   3.815 -0.7996  2.9661  0.4983
15563SOL     OW47821   5.974   6.753   0.483  0.1617  0.4841 -0.8142
15563SOL    HW147822   5.918   6.828   0.462  0.3413  1.1447  0.8875
15563SOL    HW247823   6.051   6.792   0.524  0.2897 -0.6322  0.0347
15564SOL     OW47824   6.459   3.335   4.532 -0.1011 -0.2887  0.5119
15564SOL    HW147825   6.367   3.361   4.526  0.1130  0.2852 -0.3447
15564SOL    HW247826   6.492   3.378   4.610  0.0967  1.6021 -0.5650
15565SOL     OW47827   1.672   0.595   5.393  0.4330  0.3021 -0.1717
15565SOL    HW147828   1.621   0.516   5.373 -0.8864  1.0550  0.0617
15565SOL    HW247829   1.747   0.564   5.444 -0.2735 -0.7577  0.2570
15566SOL     OW47830   1.820   2.683   0.839  0.3746  0.0431  0.1200
15566SOL    HW147831   1.851   2.773   0.845 -0.1612  0.2225  0.2285
15566SOL    HW247832   1.898   2.633   0.815  0.2501  0.8153 -2.1556
15567SOL     OW47833   6.808   6.081   6.358  0.2747 -0.8792  0.5138
15567SOL    HW147834   6.874   6.097   6.426 -0.8628 -1.3570  1.7708
15567SOL    HW247835   6.725   6.083   6.404 -0.6445 -0.0271 -1.0871
15568SOL     OW47836   4.648   7.631   5.261  0.1077 -0.3965  0.2129
15568SOL    HW147837   4.632   7.648   5.354  1.6015 -1.4370  0.6933
15568SOL    HW247838   4.582   7.565   5.237  0.7142 -1.3099  0.9777
15569SOL     OW47839   4.210   3.086   2.831  0.3401 -0.4824  0.4631
15569SOL    HW147840   4.133   3.131   2.795  0.3846 -0.1623  0.7666
15569SOL    HW247841   4.283   3.144   2.810  0.5815 -1.0512 -0.3180
15570SOL     OW47842   8.917   0.576   1.027  0.2014 -0.3229 -0.2118
15570SOL    HW147843   8.984   0.572   0.959  1.0848 -0.6018  0.6541
15570SOL    HW247844   8.903   0.485   1.053 -0.9221 -0.3297 -0.7441
15571SOL     OW47845   4.362   5.607   3.847 -0.0563 -0.4586  0.0213
15571SOL    HW147846   4.343   5.686   3.898 -0.6470  0.0666 -0.9793
15571SOL    HW247847   4.428   5.634   3.784 -2.0390 -0.0206 -2.0047
15572SOL     OW47848   3.220   3.459   2.122  0.3229  0.3067 -0.2675
15572SOL    HW147849   3.215   3.380   2.069 -0.3042 -0.9337  1.5480
15572SOL    HW247850   3.207   3.429   2.212 -0.0611  2.4956  0.4803
15573SOL     OW47851   1.730   6.938   0.464 -0.0270 -0.3912 -0.1059
15573SOL    HW147852   1.668   6.969   0.399 -1.2103  0.7464  1.4766
15573SOL    HW247853   1.680   6.877   0.518 -0.7183  2.4764  2.8001
15574SOL     OW47854   6.240   4.076   5.158 -0.5165  0.0534 -0.0210
15574SOL    HW147855   6.294   4.011   5.204  0.5627  1.4166  0.7215
15574SOL    HW247856   6.152   4.039   5.159 -0.3299 -0.4958  2.1716
15575SOL     OW47857   1.155   7.413   6.349  0.1647 -0.2678 -0.0069
15575SOL    HW147858   1.129   7.374   6.433  0.0307 -0.3695 -0.0970
15575SOL    HW247859   1.250   7.424   6.357  0.0680  0.3143  0.4068
15576SOL     OW47860   6.084   5.286   6.777  0.2112 -1.0284 -0.1387
15576SOL    HW147861   6.144   5.221   6.812  1.6645  0.0023 -0.6020
15576SOL    HW247862   6.019   5.236   6.729  0.8085 -2.1732  0.2205
15577SOL     OW47863   5.362   3.897   4.999 -0.0219 -0.0763  0.0031
15577SOL    HW147864   5.379   3.986   4.969 -0.7204  0.2381  0.5291
15577SOL    HW247865   5.419   3.885   5.075 -1.3465  0.6223  1.1414
15578SOL     OW47866   8.095   2.176   2.675 -0.4488  0.1763  0.2241
15578SOL    HW147867   8.029   2.107   2.672  0.7519 -0.9981 -0.9803
15578SOL    HW247868   8.159   2.145   2.739 -1.3128  1.5972  1.8448
15579SOL     OW47869   4.561   3.885   6.057 -0.0781  0.2396 -0.2719
15579SOL    HW147870   4.569   3.812   6.118 -1.2743  0.3532  0.0350
15579SOL    HW247871   4.477   3.871   6.013  0.1291  0.9057 -0.9030
15580SOL     OW47872   6.606   4.176   5.353  0.1659  0.2083  0.6181
15580SOL    HW147873   6.640   4.264   5.368  1.0403 -0.2616  1.5148
15580SOL    HW247874   6.526   4.190   5.302  0.9693  1.4360 -0.3799
15581SOL     OW47875   1.049   2.378   0.038 -0.1477  0.3671 -0.1625
15581SOL    HW147876   0.991   2.376  -0.038 -0.0677 -1.7453 -0.2259
15581SOL    HW247877   1.106   2.453   0.023 -0.6370  0.4424 -1.8065
15582SOL     OW47878   6.346   1.600   5.266  0.1744  0.1508  0.4311
15582SOL    HW147879   6.289   1.627   5.339  0.1657 -0.6829  0.7530
15582SOL    HW247880   6.401   1.531   5.304 -2.1765 -2.8727 -1.1616
15583SOL     OW47881   2.665   0.119   2.916 -0.2086  0.2496  0.0044
15583SOL    HW147882   2.595   0.124   2.981  0.6557  1.2779  0.8976
15583SOL    HW247883   2.725   0.052   2.950 -0.3058  0.0051 -0.3008
15584SOL     OW47884   5.603   0.852   6.648  0.2136 -0.2015 -0.1628
15584SOL    HW147885   5.585   0.799   6.726 -2.3467  0.5253 -0.1798
15584SOL    HW247886   5.544   0.927   6.656  1.2906  0.8873 -1.8590
15585SOL     OW47887   8.633   1.699   2.221 -0.2188  0.1085 -0.1465
15585SOL    HW147888   8.679   1.625   2.261  1.7109  0.7477 -1.0487
15585SOL    HW247889   8.609   1.755   2.294  0.3325 -0.3131  0.3682
15586SOL     OW47890   1.162   7.883   1.578 -0.2039  0.5157  0.1256
15586SOL    HW147891   1.154   7.807   1.635 -1.3972  1.1625  0.8513
15586SOL    HW247892   1.214   7.851   1.504  0.2820 -0.6855  0.9426
15587SOL     OW47893   0.409   3.931   8.405 -0.7517 -0.0307  0.2300
15587SOL    HW147894   0.330   3.962   8.450 -0.8549 -0.9759  0.7242
15587SOL    HW247895   0.447   4.010   8.368 -1.3342  0.6033  0.9339
15588SOL     OW47896   4.061   6.680   1.844 -0.1760  0.2329 -0.1811
15588SOL    HW147897   4.042   6.736   1.920 -2.7773 -1.9987  0.9506
15588SOL    HW247898   4.147   6.643   1.863 -0.3815  0.4259  1.2509
15589SOL     OW47899   7.568   3.995   1.855  0.3913 -0.2962 -0.5305
15589SOL    HW147900   7.571   3.983   1.950  0.4257  0.2949 -0.4507
15589SOL    HW247901   7.577   4.090   1.843 -0.5132 -0.2726 -1.0829
15590SOL     OW47902   0.383   8.066   1.284 -0.1321  0.0953 -0.2919
15590SOL    HW147903   0.400   7.982   1.240  0.6019  0.0059  0.1570
15590SOL    HW247904   0.288   8.078   1.275 -0.6832 -1.9702  1.7075
15591SOL     OW47905   9.108   4.535   7.122 -0.6804 -0.1262 -0.1347
15591SOL    HW147906   9.131   4.467   7.060 -1.9186  0.8226 -1.7100
15591SOL    HW247907   9.020   4.512   7.153 -0.7514  0.2873 -0.0106
15592SOL     OW47908   5.227   2.476   1.580  0.3424  0.0315 -0.2308
15592SOL    HW147909   5.133   2.474   1.600  0.1643  0.0568 -1.0369
15592SOL    HW247910   5.232   2.510   1.491  1.0607 -0.7614 -0.5100
15593SOL     OW47911   2.060   2.604   6.868 -0.0194  0.5845 -0.5593
15593SOL    HW147912   2.097   2.667   6.805  1.5623 -0.5521 -0.8206
15593SOL    HW247913   1.966   2.602   6.847  0.6143 -0.8127 -3.9069
15594SOL     OW47914   3.785   8.211   4.210 -0.1708  0.2187 -0.1340
15594SOL    HW147915   3.831   8.268   4.272  0.0770  0.3870 -0.4666
15594SOL    HW247916   3.826   8.230   4.125 -2.7215  2.4662 -0.9854
15595SOL     OW47917   5.449   8.833   1.176  0.5143 -0.0580  0.3101
15595SOL    HW147918   5.542   8.852   1.187  0.5791 -0.0669 -0.1916
15595SOL    HW247919   5.434   8.845   1.083  0.0519 -0.2455  0.3613
15596SOL     OW47920   7.309   0.749   0.895  0.5082  0.2906  0.5582
15596SOL    HW147921   7.298   0.654   0.895  0.4315  0.2788 -0.9513
15596SOL    HW247922   7.384   0.764   0.953  0.6433 -0.6972  0.6573
15597SOL     OW47923   2.455   3.967   2.079  0.1901  0.0817  0.6944
15597SOL    HW147924   2.516   3.967   2.153 -0.3156  0.1677  1.1223
15597SOL    HW247925   2.442   3.875   2.058  0.0400  0.0378  0.9697
15598SOL     OW47926   3.736   5.107   8.270 -0.1921  0.5329  0.3686
15598SOL    HW147927   3.717   5.141   8.183 -0.5244  1.7634  0.9035
15598SOL    HW247928   3.654   5.117   8.318  0.5841  1.9713  1.4663
15599SOL     OW47929   7.710   0.755   3.783 -0.4298 -0.4793  0.0565
15599SOL    HW147930   7.782   0.693   3.797  0.5073  0.3379 -0.9867
15599SOL    HW247931   7.680   0.777   3.871 -1.1268 -2.7636  0.4717
15600SOL     OW47932   0.976   6.692   6.556  0.5905 -0.3544  0.6192
15600SOL    HW147933   0.930   6.608   6.546  0.6102 -0.2088 -1.0419
15600SOL    HW247934   0.996   6.719   6.466  0.0414  1.7430  1.0724
15601SOL     OW47935   4.237   7.648   5.091 -0.1759 -0.5423 -0.0354
15601SOL    HW147936   4.163   7.588   5.093 -2.0280  1.5552  3.3303
15601SOL    HW247937   4.242   7.676   5.000 -2.1735 -2.3063 -0.7753
15602SOL     OW47938   7.780   5.694   1.275 -0.0878  0.2297 -0.1319
15602SOL    HW147939   7.862   5.687   1.325 -1.3548  0.2716  2.0774
15602SOL    HW247940   7.711   5.693   1.342 -1.8419  1.5438 -1.8215
15603SOL     OW47941   5.061   1.956   6.128 -0.9565 -0.0250  0.7625
15603SOL    HW147942   5.059   1.922   6.038  1.8766 -0.9442  0.9382
15603SOL    HW247943   5.069   2.051   6.117 -0.6238 -0.1286  0.0404
15604SOL     OW47944   8.017   0.827   1.145 -0.4489 -0.3385 -0.0935
15604SOL    HW147945   8.105   0.860   1.128 -0.3285 -0.7977 -0.3773
15604SOL    HW247946   8.029   0.759   1.211 -0.4731 -1.0086 -0.7644
15605SOL     OW47947   4.141   8.525   6.709  0.0839  0.1618  0.2265
15605SOL    HW147948   4.114   8.613   6.682  2.2238  0.3216 -1.7306
15605SOL    HW247949   4.075   8.467   6.670 -0.1818  0.7937 -0.2917
15606SOL     OW47950   0.982   6.807   8.787 -0.2757 -0.2240  0.0188
15606SOL    HW147951   0.960   6.764   8.870 -1.7637 -1.2035 -0.8243
15606SOL    HW247952   0.911   6.869   8.773  1.2058  1.6976  0.5924
15607SOL     OW47953   8.809   8.948   5.297 -0.5920  0.0371 -0.0023
15607SOL    HW147954   8.822   9.034   5.336 -0.4067 -0.4632  1.0837
15607SOL    HW247955   8.785   8.892   5.371 -0.7226 -0.8391 -0.6950
15608SOL     OW47956   6.046   8.185   0.824  0.3488  0.2777  0.4112
15608SOL    HW147957   6.026   8.154   0.735 -1.8190 -0.5784  1.1452
15608SOL    HW247958   6.132   8.148   0.843  1.2976  1.2373 -1.6378
15609SOL     OW47959   7.419   5.532   2.028  0.0122  0.1104  0.3145
15609SOL    HW147960   7.445   5.453   1.981  1.7216  0.9371 -0.2048
15609SOL    HW247961   7.482   5.539   2.100  0.0713  1.1637  0.1690
15610SOL     OW47962   3.546   0.530   1.937  0.0036  0.2309  0.2478
15610SOL    HW147963   3.493   0.609   1.927 -0.5277 -0.2172 -0.6053
15610SOL    HW247964   3.623   0.558   1.987 -0.3406  1.2059  0.2439
15611SOL     OW47965   1.400   3.871   3.709 -0.0966  0.6521  0.2302
15611SOL    HW147966   1.387   3.963   3.684  0.9129  0.3427 -1.6329
15611SOL    HW247967   1.315   3.830   3.694 -0.4171  1.1823  0.5774
15612SOL     OW47968   0.570   4.293   6.843 -0.2247 -0.2043  0.6418
15612SOL    HW147969   0.554   4.372   6.790 -3.5067  0.5600  2.5262
15612SOL    HW247970   0.577   4.222   6.778 -1.5718  1.0452 -0.9760
15613SOL     OW47971   1.266   8.815   7.912 -0.3535  0.2458 -0.3426
15613SOL    HW147972   1.310   8.897   7.889 -1.3973  0.8217 -0.3398
15613SOL    HW247973   1.299   8.752   7.849 -0.2801  0.9086 -0.9870
15614SOL     OW47974   2.992   0.276   0.617 -0.1802  0.1658  0.2119
15614SOL    HW147975   3.072   0.327   0.614 -1.4355  2.2475  0.3159
15614SOL    HW247976   2.954   0.294   0.703 -0.6744 -0.9470  0.2495
15615SOL     OW47977   6.009   5.631   7.705  0.3674 -0.1557  0.1101
15615SOL    HW147978   5.921   5.616   7.739  0.1059 -1.8394 -1.1287
15615SOL    HW247979   6.036   5.545   7.671  1.6198  0.7967 -1.4616
15616SOL     OW47980   8.908   5.734   6.592  0.4099 -0.4020 -0.0932
15616SOL    HW147981   8.869   5.775   6.515  0.9787 -0.5156 -0.4495
15616SOL    HW247982   8.915   5.641   6.568 -1.8845 -0.9704  1.1092
15617SOL     OW47983   8.564   5.270   6.674 -0.1667 -0.1366  0.3247
15617SOL    HW147984   8.471   5.293   6.680 -0.2281 -0.3288  0.1187
15617SOL    HW247985   8.588   5.247   6.764  0.2540  2.0225  0.8146
15618SOL     OW47986   8.283   5.112   6.246  0.0170  0.3852 -0.2099
15618SOL    HW147987   8.216   5.173   6.277 -2.6555 -2.1027 -0.5936
15618SOL    HW247988   8.288   5.126   6.152 -0.1155  0.4526 -0.2060
15619SOL     OW47989   5.489   8.026   5.339 -0.1953  0.3776 -0.1340
15619SOL    HW147990   5.556   8.002   5.276  0.7397 -0.9180  1.2860
15619SOL    HW247991   5.530   8.012   5.424 -2.5777 -1.5167  0.8135
15620SOL     OW47992   2.568   5.612   3.483  0.4703 -0.1251 -0.3164
15620SOL    HW147993   2.546   5.542   3.421 -0.2029  0.6007 -0.9153
15620SOL    HW247994   2.568   5.692   3.430 -3.1209  1.0106  1.0605
15621SOL     OW47995   4.180   6.697   0.465  0.0963 -0.2111  0.0503
15621SOL    HW147996   4.171   6.602   0.464  1.0324 -0.3343 -1.7492
15621SOL    HW247997   4.210   6.718   0.554 -2.6312 -1.2599  1.3294
15622SOL     OW47998   7.156   0.821   7.637  0.5839  0.1074  0.1324
15622SOL    HW147999   7.169   0.838   7.731 -0.1189 -0.6819  0.3886
15622SOL    HW248000   7.108   0.898   7.606  0.3134  0.1198  0.5564
15623SOL     OW48001   1.905   2.174   5.754  0.2295 -0.1267 -0.1468
15623SOL    HW148002   1.827   2.120   5.745 -2.4831  3.1699  1.2586
15623SOL    HW248003   1.920   2.209   5.666 -0.6021  0.0836 -0.2112
15624SOL     OW48004   1.593   1.150   7.498  0.5552  0.1207 -0.1361
15624SOL    HW148005   1.612   1.243   7.493 -1.2502  0.5912  0.9117
15624SOL    HW248006   1.571   1.125   7.408  1.0317  0.6834 -0.4183
15625SOL     OW48007   3.302   5.286   2.330  0.2856  0.4172  0.6631
15625SOL    HW148008   3.319   5.192   2.337  0.8145  0.4267 -0.4081
15625SOL    HW248009   3.372   5.327   2.381  0.7645  0.2772  0.1165
15626SOL     OW48010   5.209   8.215   3.015  0.2390 -0.2064 -0.6634
15626SOL    HW148011   5.303   8.222   2.996  0.3237  3.2939  0.3375
15626SOL    HW248012   5.166   8.245   2.935 -0.0447 -1.1317 -0.8741
15627SOL     OW48013   0.321   8.597   5.242 -0.1372  0.1265 -0.6120
15627SOL    HW148014   0.226   8.601   5.228 -0.0899  0.3620 -0.8848
15627SOL    HW248015   0.333   8.614   5.335 -0.3828 -0.1989 -0.5202
15628SOL     OW48016   4.398   2.523   8.075  0.4470 -0.4545 -0.7327
15628SOL    HW148017   4.350   2.498   7.996 -0.3901  1.9290 -1.0538
15628SOL    HW248018   4.464   2.454   8.085 -1.1916 -2.3323 -1.8931
15629SOL     OW48019   1.900   8.529   2.271  0.0167  0.2502  0.1823
15629SOL    HW148020   1.981   8.547   2.318 -0.6518  0.9843  1.0851
15629SOL    HW248021   1.913   8.569   2.185  1.1162 -0.8091 -0.1759
15630SOL     OW48022   3.676   2.705   5.031 -0.5056  0.2675  0.2543
15630SOL    HW148023   3.748   2.736   5.086 -1.1019  1.6223  0.3051
15630SOL    HW248024   3.681   2.609   5.037 -0.8831  0.3376  3.1206
15631SOL     OW48025   3.159   1.644   5.832  0.4981  0.4993 -0.1331
15631SOL    HW148026   3.121   1.564   5.870  1.3335 -0.5979 -1.5486
15631SOL    HW248027   3.235   1.663   5.887 -1.1842  1.9460  1.8904
15632SOL     OW48028   3.380   2.862   5.864 -0.2395 -0.5205 -0.7257
15632SOL    HW148029   3.406   2.932   5.805 -0.3992 -1.1299 -1.5334
15632SOL    HW248030   3.460   2.810   5.876 -0.3206 -0.6509 -0.7542
15633SOL     OW48031   6.444   1.215   0.654 -0.0180 -0.1849 -0.1308
15633SOL    HW148032   6.408   1.244   0.738 -2.0229 -2.4117 -0.1121
15633SOL    HW248033   6.378   1.241   0.589  1.4228  1.3441 -1.0606
15634SOL     OW48034   5.212   4.156   2.815  0.0755 -0.5767 -0.4348
15634SOL    HW148035   5.246   4.081   2.864 -0.4506 -1.0449 -0.7724
15634SOL    HW248036   5.136   4.185   2.866 -0.0384 -0.6078 -0.5857
15635SOL     OW48037   8.283   2.716   6.405 -0.2655  0.3237 -0.0736
15635SOL    HW148038   8.277   2.766   6.323 -0.7745 -0.4005 -0.4854
15635SOL    HW248039   8.245   2.773   6.471  0.6335  1.1367 -0.2270
15636SOL     OW48040   0.776   0.188   6.446  0.1427  0.2700 -0.4549
15636SOL    HW148041   0.781   0.189   6.350 -0.3717 -1.0411 -0.5113
15636SOL    HW248042   0.767   0.096   6.469 -2.1423  0.7000  0.7056
15637SOL     OW48043   5.873   8.462   6.877  0.7370  0.1015 -0.0816
15637SOL    HW148044   5.952   8.430   6.919  1.0892 -0.0744 -0.8562
15637SOL    HW248045   5.805   8.399   6.903  1.2574 -0.8484 -0.9343
15638SOL     OW48046   3.832   1.283   5.399 -0.1073  0.2338 -0.4405
15638SOL    HW148047   3.751   1.235   5.415  0.3497 -0.9158 -1.4388
15638SOL    HW248048   3.867   1.302   5.487 -0.7202 -0.5386 -0.0213
15639SOL     OW48049   0.321   4.160   6.642  0.3982 -0.2253  0.1401
15639SOL    HW148050   0.332   4.254   6.626 -0.5886 -0.4324 -2.2979
15639SOL    HW248051   0.226   4.146   6.644  0.5047 -1.2884 -0.7258
15640SOL     OW48052   3.494   1.569   8.111 -0.3610 -0.3407 -0.4230
15640SOL    HW148053   3.515   1.598   8.022 -1.0260 -0.1640 -0.5298
15640SOL    HW248054   3.429   1.633   8.141  0.1596 -0.1637  0.3400
15641SOL     OW48055   5.411   0.624   1.800  0.6987  0.6171 -0.0464
15641SOL    HW148056   5.502   0.634   1.770  0.3619  0.5776 -1.0925
15641SOL    HW248057   5.359   0.671   1.736 -0.2245 -1.2704 -0.7600
15642SOL     OW48058   3.552   7.539   3.429  0.1577 -0.3016  0.2161
15642SOL    HW148059   3.461   7.512   3.437  0.6951 -1.6028  3.5943
15642SOL    HW248060   3.597   7.461   3.395  0.3069 -0.3268  0.4755
15643SOL     OW48061   6.888   7.018   1.009 -0.2705 -0.2037 -0.1882
15643SOL    HW148062   6.869   7.016   1.102 -0.4317  0.9949 -0.1760
15643SOL    HW248063   6.982   7.001   1.003  0.7686  4.1941  0.6235
15644SOL     OW48064   1.422   1.818   1.377  0.3059 -0.5160  0.1565
15644SOL    HW148065   1.470   1.776   1.306  0.2879  0.4366 -0.4276
15644SOL    HW248066   1.441   1.911   1.368 -0.2250 -0.3095  1.0068
15645SOL     OW48067   8.543   0.605   3.306 -0.4876 -0.4080 -0.5930
15645SOL    HW148068   8.612   0.668   3.329 -1.1441  0.1687 -0.1773
15645SOL    HW248069   8.589   0.538   3.254  0.1404  0.6246 -1.4225
15646SOL     OW48070   0.860   4.906   8.335 -0.0032 -0.2659  0.3609
15646SOL    HW148071   0.905   4.990   8.326  0.5580 -0.6462 -0.5004
15646SOL    HW248072   0.802   4.918   8.410  1.3516  0.3106  1.3629
15647SOL     OW48073   3.081   7.488   0.538 -0.3709  0.2378  0.1181
15647SOL    HW148074   2.998   7.533   0.520 -0.2171  0.3222 -0.3962
15647SOL    HW248075   3.108   7.453   0.453  1.0077  1.7090 -0.0919
15648SOL     OW48076   5.619   6.895   0.974  0.5030  0.2389 -0.2134
15648SOL    HW148077   5.587   6.834   1.040 -0.3478  1.5239  0.6095
15648SOL    HW248078   5.632   6.841   0.896  1.0600 -1.2203  0.8383
15649SOL     OW48079   1.587   6.625   6.795  0.2390 -0.5047  0.4112
15649SOL    HW148080   1.649   6.695   6.819 -1.6036  1.8881 -1.3138
15649SOL    HW248081   1.537   6.609   6.875  0.9006 -0.1002  0.9185
15650SOL     OW48082   2.152   1.888   7.064 -0.2488 -0.0021  0.1243
15650SOL    HW148083   2.237   1.917   7.030 -0.9459  3.1416  0.7860
15650SOL    HW248084   2.088   1.917   7.000 -1.0531  0.4238  1.0883
15651SOL     OW48085   2.839   2.865   6.646 -0.1208 -0.1241 -0.9053
15651SOL    HW148086   2.788   2.919   6.705 -1.3287 -1.1459 -0.9686
15651SOL    HW248087   2.847   2.917   6.566 -1.0371  0.0892 -0.8717
15652SOL     OW48088   2.438   5.579   5.941  0.1467  0.0797 -0.1263
15652SOL    HW148089   2.504   5.552   6.005  1.8005 -0.0506 -1.8066
15652SOL    HW248090   2.473   5.659   5.902 -1.0924  0.4656 -0.5206
15653SOL     OW48091   2.837   7.629   1.571  0.3599 -0.2367  0.3793
15653SOL    HW148092   2.791   7.703   1.610  1.4634  0.0710  1.1548
15653SOL    HW248093   2.826   7.557   1.634  3.2013  0.6074  2.0068
15654SOL     OW48094   8.821   6.171   1.835 -0.4010 -0.1203  0.1359
15654SOL    HW148095   8.916   6.164   1.824 -0.4701 -0.7292 -0.1247
15654SOL    HW248096   8.791   6.080   1.844 -1.1092 -0.0412 -1.1517
15655SOL     OW48097   6.567   3.378   1.516 -0.2082  0.5927 -0.2056
15655SOL    HW148098   6.631   3.370   1.444 -1.0610  0.5053 -0.9720
15655SOL    HW248099   6.542   3.287   1.535  0.2260  0.5945  0.4130
15656SOL     OW48100   4.446   2.364   2.635  0.2267 -0.1168  0.2067
15656SOL    HW148101   4.530   2.367   2.682  0.2520  2.2167  0.1469
15656SOL    HW248102   4.382   2.340   2.702  0.8500 -1.3980  0.3694
15657SOL     OW48103   6.325   2.839   7.386  0.0572 -0.0833 -0.0502
15657SOL    HW148104   6.325   2.884   7.471 -0.8113  1.2243 -0.7019
15657SOL    HW248105   6.320   2.910   7.322  0.1034 -1.0747 -1.1784
15658SOL     OW48106   7.327   1.679   0.973 -0.8972  0.3464  0.3781
15658SOL    HW148107   7.288   1.597   0.943  0.2062  0.5364 -1.7923
15658SOL    HW248108   7.319   1.739   0.898  3.3769  0.4078 -0.2952
15659SOL     OW48109   8.106   6.845   7.464 -0.2944 -0.1050 -0.2660
15659SOL    HW148110   8.171   6.890   7.410 -0.3593 -0.7274 -0.8784
15659SOL    HW248111   8.077   6.911   7.527 -1.7292  1.3131 -2.2604
15660SOL     OW48112   2.057   6.308   6.128 -0.8279  0.0010  0.0184
15660SOL    HW148113   2.113   6.261   6.066 -0.7259  1.4869 -1.0848
15660SOL    HW248114   2.056   6.253   6.206 -0.1792 -1.4707 -0.9586
15661SOL     OW48115   5.508   6.240   7.061  0.0434  0.2696 -0.7777
15661SOL    HW148116   5.535   6.329   7.040 -0.0714  0.3542 -0.5621
15661SOL    HW248117   5.590   6.196   7.086  0.0233  0.4565 -0.3782
15662SOL     OW48118   6.326   3.588   5.568 -0.1275 -0.3870  0.6144
15662SOL    HW148119   6.243   3.594   5.615  0.8507 -1.0559  2.5371
15662SOL    HW248120   6.332   3.670   5.518 -2.6812 -1.0482 -0.9762
15663SOL     OW48121   5.745   7.864   6.974 -0.0030  0.0581  0.2807
15663SOL    HW148122   5.708   7.915   7.046  0.5092  0.0900  0.5234
15663SOL    HW248123   5.683   7.792   6.961 -1.1409  1.1633 -0.5833
15664SOL     OW48124   8.552   2.138   8.736  1.0029  0.0792 -0.0499
15664SOL    HW148125   8.490   2.165   8.804 -1.0788 -0.3719 -1.6690
15664SOL    HW248126   8.565   2.045   8.750  1.2104  0.1435  0.1966
15665SOL     OW48127   8.668   5.901   2.187  0.0131  0.1188 -0.2238
15665SOL    HW148128   8.754   5.860   2.182 -0.7559 -1.8323  1.2112
15665SOL    HW248129   8.668   5.947   2.271 -0.3166  0.1772 -0.2534
15666SOL     OW48130   1.750   8.146   5.194  0.4072 -0.0373  0.1450
15666SOL    HW148131   1.716   8.090   5.125 -1.7235 -1.2751  2.0482
15666SOL    HW248132   1.811   8.090   5.243  0.8252  0.3780  0.1079
15667SOL     OW48133   2.548   2.054   7.430  0.5915  0.2804 -0.8087
15667SOL    HW148134   2.586   2.091   7.510  0.3228 -0.0666 -0.5235
15667SOL    HW248135   2.454   2.069   7.439  0.2291 -2.2455  0.2511
15668SOL     OW48136   2.209   5.933   6.861 -0.3118  0.3752 -0.1397
15668SOL    HW148137   2.260   5.877   6.803 -0.3832 -1.0075  1.0771
15668SOL    HW248138   2.127   5.949   6.815  0.2627  0.6564 -1.0913
15669SOL     OW48139   8.435   3.997   8.744  0.2543 -0.4690  1.2621
15669SOL    HW148140   8.358   3.970   8.694 -0.4930  0.6799  1.7511
15669SOL    HW248141   8.509   3.968   8.691 -0.4900  1.3746 -0.9739
15670SOL     OW48142   3.759   3.592   7.304 -0.8474  0.8378  0.5017
15670SOL    HW148143   3.759   3.683   7.333 -0.4366  0.6558  1.0977
15670SOL    HW248144   3.687   3.552   7.352  0.7365  0.1880  2.4730
15671SOL     OW48145   2.198   6.124   4.168  0.3144  0.3048  0.2255
15671SOL    HW148146   2.200   6.075   4.085 -0.5080 -2.1059  1.5207
15671SOL    HW248147   2.266   6.083   4.221 -1.1144 -0.2285  1.7407
15672SOL     OW48148   2.898   2.226   7.085 -0.2049 -0.3813  0.0884
15672SOL    HW148149   2.811   2.209   7.119 -0.6275 -0.9107 -1.1852
15672SOL    HW248150   2.886   2.231   6.990  1.3559 -1.9311 -0.2574
15673SOL     OW48151   9.064   8.834   4.731  0.4072 -0.4591 -1.2433
15673SOL    HW148152   9.046   8.827   4.825 -0.5586  0.3653 -1.3552
15673SOL    HW248153   9.129   8.766   4.715 -1.3862 -2.4756 -0.4966
15674SOL     OW48154   3.503   1.574   5.227 -0.1859  0.2663 -0.0952
15674SOL    HW148155   3.422   1.622   5.244  0.3301  0.7860  0.9607
15674SOL    HW248156   3.519   1.587   5.133 -1.9968 -0.9427 -0.6472
15675SOL     OW48157   2.331   4.325   7.660 -0.2125 -0.0318  0.1268
15675SOL    HW148158   2.319   4.375   7.741 -0.5207  0.3685 -0.1596
15675SOL    HW248159   2.315   4.389   7.590  1.7046  0.0704 -0.2819
15676SOL     OW48160   8.007   2.056   6.417 -0.6686  0.3666 -0.0128
15676SOL    HW148161   7.944   2.029   6.484 -0.8208  0.9712  0.0965
15676SOL    HW248162   7.994   2.151   6.410 -2.1672  0.0674 -2.4432
15677SOL     OW48163   4.191   7.668   9.104 -0.0190 -0.0458  0.1193
15677SOL    HW148164   4.157   7.736   9.163 -1.9523  0.9387 -1.9900
15677SOL    HW248165   4.283   7.657   9.131 -1.4816 -2.2567  5.6103
15678SOL     OW48166   6.825   6.454   1.820  0.0441 -0.0831 -0.3718
15678SOL    HW148167   6.736   6.476   1.847  0.4410 -0.6645  1.5324
15678SOL    HW248168   6.822   6.360   1.801  0.4507 -0.3050  0.6208
15679SOL     OW48169   3.035   1.113   6.254  0.6890  0.2886  0.2049
15679SOL    HW148170   3.092   1.135   6.328  0.8886  2.0445 -0.4375
15679SOL    HW248171   3.095   1.084   6.186  0.8696  2.2706 -0.5192
15680SOL     OW48172   4.181   4.611   6.957  0.1470  0.5236  0.3288
15680SOL    HW148173   4.121   4.644   6.891 -0.0590  2.9588  1.6044
15680SOL    HW248174   4.260   4.586   6.909 -0.3650  1.2698 -0.9207
15681SOL     OW48175   6.930   9.073   7.750  0.6490 -0.5071  0.1425
15681SOL    HW148176   6.872   9.010   7.708 -0.6871  1.0674 -0.4760
15681SOL    HW248177   6.982   9.110   7.679  1.7484 -1.1651  0.5608
15682SOL     OW48178   3.794   5.141   3.325  0.0995  0.1768  0.4395
15682SOL    HW148179   3.822   5.051   3.339  0.6887  0.1493 -0.7870
15682SOL    HW248180   3.875   5.192   3.325 -0.0496  0.4466 -0.6235
15683SOL     OW48181   3.058   0.481   1.542  0.0154 -0.5433 -0.0868
15683SOL    HW148182   3.029   0.456   1.630  0.3287  0.0247  0.1906
15683SOL    HW248183   3.049   0.577   1.541  1.9383 -0.3279  0.0516
15684SOL     OW48184   8.841   8.847   7.469  0.4835  0.7127 -0.4771
15684SOL    HW148185   8.889   8.810   7.395  2.4327 -0.1417  1.1086
15684SOL    HW248186   8.749   8.823   7.453  1.1131 -1.0927 -1.6650
15685SOL     OW48187   3.237   3.336   3.319  0.0906 -0.2392  0.1831
15685SOL    HW148188   3.253   3.255   3.368 -1.6201 -0.5616  0.2887
15685SOL    HW248189   3.163   3.376   3.364 -0.8634 -0.0253 -1.4988
15686SOL     OW48190   3.475   2.908   5.237  0.7111 -0.4930 -0.1158
15686SOL    HW148191   3.439   2.825   5.206 -0.5318  0.0233 -0.1020
15686SOL    HW248192   3.533   2.883   5.309  1.2597 -1.4396 -0.8635
15687SOL     OW48193   8.419   2.299   7.531  0.4874  0.4011 -0.0878
15687SOL    HW148194   8.393   2.234   7.466 -0.9146  1.1920 -0.3407
15687SOL    HW248195   8.392   2.383   7.495  0.8637  0.9920  0.9396
15688SOL     OW48196   6.783   6.718   7.972 -0.1283  0.7777 -0.2312
15688SOL    HW148197   6.796   6.787   7.907  0.2202 -0.6551 -1.7382
15688SOL    HW248198   6.784   6.636   7.922 -1.7361 -0.2821  1.3259
15689SOL     OW48199   3.852   1.557   6.710  0.1566  0.5829 -0.1610
15689SOL    HW148200   3.934   1.512   6.730  0.9406  2.0281  0.0101
15689SOL    HW248201   3.804   1.557   6.792 -0.0329 -0.2762 -0.2631
15690SOL     OW48202   8.695   6.014   4.673  0.1350 -0.0278  0.0637
15690SOL    HW148203   8.619   5.987   4.621  1.4167  1.2749 -2.7105
15690SOL    HW248204   8.768   5.962   4.637  1.0367  0.6919  0.8060
15691SOL     OW48205   8.253   8.617   0.075 -0.0667  0.1043  0.1081
15691SOL    HW148206   8.326   8.660   0.119 -1.2182  0.4414  1.7838
15691SOL    HW248207   8.224   8.680   0.009  1.9340 -0.5719 -1.5231
15692SOL     OW48208   7.182   5.916   5.520  0.4432 -0.0591  0.0456
15692SOL    HW148209   7.186   5.974   5.596 -1.0005 -0.4791  0.4624
15692SOL    HW248210   7.123   5.846   5.546  0.5983 -0.6696 -1.1734
15693SOL     OW48211   1.685   2.206   0.906 -0.1143  0.4036 -0.2488
15693SOL    HW148212   1.766   2.239   0.867 -1.1003  0.7828 -2.0813
15693SOL    HW248213   1.694   2.111   0.902  0.9634  0.4116  1.2084
15694SOL     OW48214   1.146   6.070   6.795  0.2674  0.3125  0.0633
15694SOL    HW148215   1.136   6.161   6.768  1.1310 -0.0631 -1.7047
15694SOL    HW248216   1.074   6.024   6.753 -0.4470  0.2196  1.3378
15695SOL     OW48217   8.209   2.904   6.186 -0.3979 -0.1413 -0.2637
15695SOL    HW148218   8.114   2.906   6.183 -0.4421 -0.0634  0.8704
15695SOL    HW248219   8.237   2.982   6.138 -0.9166  0.1328 -0.1198
15696SOL     OW48220   3.757   6.439   7.939  0.1958  0.3475  0.1001
15696SOL    HW148221   3.690   6.428   7.871  0.5408  1.7280 -0.5073
15696SOL    HW248222   3.805   6.518   7.912  0.9732  0.3541  1.4368
15697SOL     OW48223   1.866   3.725   1.300  0.5520 -0.0662  0.4696
15697SOL    HW148224   1.873   3.820   1.292 -0.3169 -0.0152  0.1399
15697SOL    HW248225   1.919   3.690   1.228  2.1052  0.1159  1.4887
15698SOL     OW48226   8.985   4.159   5.621 -0.1769 -0.0805  0.2421
15698SOL    HW148227   8.964   4.236   5.569 -0.2320 -0.5493 -0.4450
15698SOL    HW248228   8.996   4.089   5.557  0.1887 -0.5756  0.8329
15699SOL     OW48229   4.650   8.980   7.498 -0.3196  0.1798 -0.2961
15699SOL    HW148230   4.673   8.898   7.453  0.9368  0.1331  0.3876
15699SOL    HW248231   4.678   9.049   7.438 -1.0091  0.1153 -0.6976
15700SOL     OW48232   1.516   2.868   5.493  1.0294  0.6940  0.1456
15700SOL    HW148233   1.605   2.838   5.472  0.8416 -0.2748  0.6614
15700SOL    HW248234   1.514   2.959   5.464  1.7100  0.2909 -1.2672
15701SOL     OW48235   6.826   8.951   4.373 -0.1269 -0.2910  0.3814
15701SOL    HW148236   6.808   8.865   4.337  0.4618 -1.2469  2.2248
15701SOL    HW248237   6.915   8.971   4.344 -1.2286  1.0326 -2.3987
15702SOL     OW48238   3.845   7.606   4.649 -0.2783 -0.3474 -0.2099
15702SOL    HW148239   3.822   7.698   4.658 -1.0628 -0.3982 -1.3832
15702SOL    HW248240   3.783   7.560   4.705 -0.7437 -0.2304 -0.6138
15703SOL     OW48241   4.170   0.450   2.486 -0.1387 -0.3899 -0.2171
15703SOL    HW148242   4.098   0.410   2.437  1.0682 -0.4328 -2.0467
15703SOL    HW248243   4.188   0.389   2.557 -0.6730 -1.3267 -0.8616
15704SOL     OW48244   4.798   5.610   8.484  0.5200  0.1267 -0.5692
15704SOL    HW148245   4.800   5.516   8.501  1.2036  0.3173  0.4841
15704SOL    HW248246   4.808   5.618   8.389 -0.3227 -0.8811 -0.7559
15705SOL     OW48247   5.104   4.671   7.884  0.5997  0.6432  0.4487
15705SOL    HW148248   5.112   4.633   7.971  0.9497 -0.2251  0.0474
15705SOL    HW248249   5.069   4.600   7.830  0.6124  1.0983 -0.1663
15706SOL     OW48250   5.469   8.859   2.971 -0.1394  0.4521 -0.1602
15706SOL    HW148251   5.508   8.772   2.958  0.1620  0.8777 -2.4796
15706SOL    HW248252   5.529   8.919   2.929 -0.9520  1.6625  0.3628
15707SOL     OW48253   6.156   6.897   7.128  0.4868  0.4923  0.1289
15707SOL    HW148254   6.185   6.836   7.196 -0.0785 -0.6411 -0.6266
15707SOL    HW248255   6.069   6.925   7.157 -0.5883 -1.4582 -1.0097
15708SOL     OW48256   0.772   3.230   0.594  0.4227 -0.2699 -1.0635
15708SOL    HW148257   0.864   3.253   0.578  0.1112  1.9427 -0.0496
15708SOL    HW248258   0.728   3.251   0.512  0.4462  1.1725 -0.7321
15709SOL     OW48259   3.913   7.804   7.460 -0.1228 -0.2959  0.1071
15709SOL    HW148260   3.882   7.713   7.470 -0.8459 -0.4867 -2.9623
15709SOL    HW248261   3.834   7.857   7.465  0.1938  0.1272  0.9485
15710SOL     OW48262   2.396   3.052   5.861 -0.5546 -0.2676 -0.5167
15710SOL    HW148263   2.403   3.046   5.766 -0.4512  0.3734 -0.5565
15710SOL    HW248264   2.302   3.058   5.878 -0.5211  1.0421 -0.6885
15711SOL     OW48265   2.605   6.287   0.331 -0.1431  0.1256  0.6293
15711SOL    HW148266   2.603   6.260   0.239 -0.6519  1.2850  0.2869
15711SOL    HW248267   2.529   6.244   0.370  0.1943 -0.5438  0.5813
15712SOL     OW48268   4.681   6.722   8.622 -0.0800 -0.3353 -0.1835
15712SOL    HW148269   4.628   6.731   8.702  3.0371  1.1081  1.9241
15712SOL    HW248270   4.715   6.633   8.626 -2.3071 -1.3427 -1.6560
15713SOL     OW48271   5.415   7.400   2.800  0.0800  0.9414  0.1420
15713SOL    HW148272   5.348   7.468   2.797 -1.7572 -0.7952 -0.8953
15713SOL    HW248273   5.387   7.342   2.871  0.9389  0.6070  0.2206
15714SOL     OW48274   3.319   7.941   2.994  0.4715 -0.7286  0.0866
15714SOL    HW148275   3.375   8.017   2.974  1.0066 -0.8975  0.8718
15714SOL    HW248276   3.333   7.926   3.087 -2.4587  0.4737  0.8385
15715SOL     OW48277   5.244   5.630   3.817 -0.1986  0.2651  0.2345
15715SOL    HW148278   5.249   5.556   3.756  1.2254 -0.7154  1.4408
15715SOL    HW248279   5.186   5.693   3.775 -0.3803 -0.9711 -1.4612
15716SOL     OW48280   8.168   4.454   8.924  0.2353  0.2105 -0.3925
15716SOL    HW148281   8.087   4.505   8.929  1.8425  2.8764  2.5429
15716SOL    HW248282   8.226   4.508   8.870  0.9334 -0.2248 -0.0905
15717SOL     OW48283   5.817   8.678   1.502  0.0192 -0.1635  0.3839
15717SOL    HW148284   5.877   8.665   1.429 -0.2266 -0.1161  0.1731
15717SOL    HW248285   5.730   8.686   1.462 -0.1350 -0.2664  0.6872
15718SOL     OW48286   6.961   0.172   1.371 -0.0731  0.6545  0.1524
15718SOL    HW148287   7.032   0.236   1.368  0.4617  0.1538  1.4768
15718SOL    HW248288   6.884   0.223   1.396  0.2687  0.8609  0.8156
15719SOL     OW48289   2.815   4.292   4.812 -0.0762  0.2281 -0.3747
15719SOL    HW148290   2.734   4.341   4.821 -0.0304  0.1985  0.2887
15719SOL    HW248291   2.884   4.359   4.810 -0.0320  0.2138  0.2925
15720SOL     OW48292   0.532   0.168   6.751 -0.2577 -0.6819  0.1718
15720SOL    HW148293   0.447   0.125   6.763  0.1094 -1.6565 -0.5306
15720SOL    HW248294   0.595   0.096   6.753  0.3159 -0.3192 -1.9126
15721SOL     OW48295   7.334   6.100   8.361  0.5200  0.0716  0.3628
15721SOL    HW148296   7.405   6.136   8.307  1.2925 -0.7633  0.7966
15721SOL    HW248297   7.325   6.009   8.330 -0.0835  0.0521  0.5952
15722SOL     OW48298   6.650   1.012   6.771  0.0473  0.1107 -0.5692
15722SOL    HW148299   6.703   1.024   6.692 -1.5109 -0.0683 -1.6807
15722SOL    HW248300   6.568   0.974   6.740 -0.2753 -0.8046  1.2562
15723SOL     OW48301   6.337   2.626   5.619  0.3746 -0.2793  0.2056
15723SOL    HW148302   6.376   2.555   5.671  1.7173  0.4617  0.2580
15723SOL    HW248303   6.298   2.582   5.544  2.7672 -0.9784 -0.7172
15724SOL     OW48304   4.968   6.070   1.951  0.9345  0.2059 -0.1271
15724SOL    HW148305   4.878   6.076   1.920  1.0034  0.0982 -0.3476
15724SOL    HW248306   4.973   5.983   1.991  1.1359 -0.0610 -0.7324
15725SOL     OW48307   9.039   8.977   0.849 -0.1181  0.1754 -0.6824
15725SOL    HW148308   8.991   9.015   0.923 -0.0605 -0.4489 -0.3121
15725SOL    HW248309   8.972   8.963   0.782 -0.3264 -0.0162 -0.4385
15726SOL     OW48310   2.258   1.783   7.713 -0.0207  0.2481  0.3935
15726SOL    HW148311   2.342   1.762   7.672 -0.3701 -2.7180  0.9742
15726SOL    HW248312   2.275   1.862   7.765  2.4257 -0.3184  0.5630
15727SOL     OW48313   1.513   4.399   5.732  0.6236 -0.4980  0.3002
15727SOL    HW148314   1.557   4.409   5.816 -0.6792 -0.9902  1.0654
15727SOL    HW248315   1.423   4.426   5.749  0.6662  0.7743 -1.3015
15728SOL     OW48316   7.753   5.409   7.632  0.3541 -0.3335  0.9471
15728SOL    HW148317   7.737   5.315   7.641 -0.6231 -0.3369 -0.6121
15728SOL    HW248318   7.668   5.450   7.648  0.9793  0.4020  2.6626
15729SOL     OW48319   3.797   2.378   7.739 -0.5403 -0.3946  0.0757
15729SOL    HW148320   3.831   2.465   7.759 -1.4396  0.7139 -2.7232
15729SOL    HW248321   3.875   2.325   7.725  0.0296  0.3839  0.2343
15730SOL     OW48322   0.606   5.286   3.070  0.3435 -0.2010  0.1854
15730SOL    HW148323   0.636   5.334   3.147  1.4450  0.5110 -0.6430
15730SOL    HW248324   0.510   5.291   3.074  0.3664 -0.8143  1.8690
15731SOL     OW48325   8.446   8.998   8.878  0.3914 -1.2554 -0.0204
15731SOL    HW148326   8.419   9.067   8.938  0.7932  0.1230 -1.3359
15731SOL    HW248327   8.541   9.006   8.873  0.3749 -1.4162 -0.7298
15732SOL     OW48328   6.406   5.953   1.526  0.2639 -0.3605  0.1327
15732SOL    HW148329   6.329   5.920   1.480  0.9858 -1.5314 -0.2963
15732SOL    HW248330   6.449   6.012   1.464 -0.9088  1.2775  0.8164
15733SOL     OW48331   8.735   2.845   7.764 -0.1383  0.0928 -0.5249
15733SOL    HW148332   8.724   2.854   7.669 -1.2642 -0.5769 -0.4715
15733SOL    HW248333   8.675   2.909   7.801 -2.1892 -1.8898 -0.2515
15734SOL     OW48334   1.039   1.551   5.175  0.1477 -0.5091  0.0298
15734SOL    HW148335   1.100   1.503   5.231 -1.0414 -1.3545  0.6421
15734SOL    HW248336   0.997   1.483   5.122  1.5678  0.2837 -2.3260
15735SOL     OW48337   8.706   6.980   1.263 -0.1799 -0.4432  0.1306
15735SOL    HW148338   8.707   6.893   1.221  0.8412 -0.2599 -0.2688
15735SOL    HW248339   8.644   7.031   1.211  1.9001  0.1211 -1.9617
15736SOL     OW48340   0.620   5.126   8.124  0.0452  0.4154 -0.4677
15736SOL    HW148341   0.565   5.082   8.190  1.2589  1.6463  1.4614
15736SOL    HW248342   0.576   5.209   8.108  0.2614  0.5306 -0.4674
15737SOL     OW48343   8.931   0.284   0.691  0.3828  0.1748  0.0763
15737SOL    HW148344   9.018   0.244   0.692  0.2008 -0.2483 -0.5165
15737SOL    HW248345   8.882   0.232   0.628  0.2996  1.6721 -1.1452
15738SOL     OW48346   5.329   2.066   2.049  0.0289 -0.2468 -0.1157
15738SOL    HW148347   5.289   2.058   2.136  1.2622 -0.3183  0.4688
15738SOL    HW248348   5.290   2.146   2.013 -1.2525 -0.7546  0.0709
15739SOL     OW48349   4.194   3.412   1.340  0.3981  0.0225  0.0961
15739SOL    HW148350   4.172   3.381   1.252  1.8761 -0.0500 -0.2677
15739SOL    HW248351   4.287   3.390   1.351  0.2641  0.1123  1.6449
15740SOL     OW48352   1.070   2.202   2.095  0.1260 -0.0265  0.2102
15740SOL    HW148353   1.102   2.271   2.036 -2.8057  1.4912  0.2450
15740SOL    HW248354   1.022   2.142   2.038 -0.5407  0.0420  0.6869
15741SOL     OW48355   4.604   6.073   7.112 -0.6178 -0.2688 -0.4735
15741SOL    HW148356   4.691   6.090   7.148 -0.8060  2.5646 -1.0726
15741SOL    HW248357   4.544   6.084   7.186 -0.6362  0.4302 -0.5861
15742SOL     OW48358   0.781   0.586   0.055 -0.8017  0.7845  0.2768
15742SOL    HW148359   0.814   0.587  -0.035  0.7726  2.1393  0.8309
15742SOL    HW248360   0.716   0.656   0.058  0.3517  1.8746  0.5842
15743SOL     OW48361   2.300   4.388   4.457 -0.0949  0.0557  0.1220
15743SOL    HW148362   2.367   4.453   4.438 -0.9306  1.0666  0.5065
15743SOL    HW248363   2.346   4.304   4.455  0.4435  0.2527 -3.5727
15744SOL     OW48364   6.096   3.845   0.387 -0.1951  0.0801  0.2095
15744SOL    HW148365   6.139   3.775   0.337 -0.4358 -0.1316  0.2993
15744SOL    HW248366   6.003   3.825   0.381 -0.2620  0.3653  0.2801
15745SOL     OW48367   7.440   6.194   6.139  0.4907 -0.8516  0.6917
15745SOL    HW148368   7.474   6.255   6.204 -1.3764 -0.5067  1.3917
15745SOL    HW248369   7.412   6.249   6.066  0.7521 -1.0674  0.4261
15746SOL     OW48370   4.108   5.423   7.266  0.3940 -0.2182 -0.5908
15746SOL    HW148371   4.092   5.439   7.359 -0.1140  0.9284 -0.8681
15746SOL    HW248372   4.186   5.367   7.266  0.4443 -0.1857  0.5186
15747SOL     OW48373   5.567   8.263   1.289  0.3689  0.4947  0.4159
15747SOL    HW148374   5.513   8.197   1.332 -0.7547  1.0268 -0.1287
15747SOL    HW248375   5.632   8.287   1.354  2.2976 -2.7520 -0.0973
15748SOL     OW48376   7.122   0.186   5.639  0.1910 -0.0628  0.5258
15748SOL    HW148377   7.111   0.093   5.661 -0.5117  0.3421  2.0322
15748SOL    HW248378   7.195   0.187   5.577 -0.2502 -1.6852 -0.0696
15749SOL     OW48379   2.557   5.574   7.713 -0.0813 -0.2489 -0.5509
15749SOL    HW148380   2.602   5.640   7.661 -1.2059  1.1836  0.2113
15749SOL    HW248381   2.604   5.572   7.796 -0.3361 -0.0497 -0.4003
15750SOL     OW48382   2.336   7.730   0.139 -0.3871 -0.2195 -0.7410
15750SOL    HW148383   2.372   7.811   0.103  0.2253 -0.7195 -1.2907
15750SOL    HW248384   2.400   7.662   0.114 -0.8473 -0.8576 -0.2282
15751SOL     OW48385   7.271   8.309   5.519  0.6383  0.2881 -0.0479
15751SOL    HW148386   7.346   8.364   5.541  1.1486 -0.8919  1.2898
15751SOL    HW248387   7.238   8.346   5.437 -0.6520  4.2427  1.9623
15752SOL     OW48388   0.224   8.916   4.273  0.3073  0.3100 -0.5187
15752SOL    HW148389   0.302   8.972   4.278  1.0740 -0.8462  1.9349
15752SOL    HW248390   0.151   8.976   4.286  1.0391  0.9223  0.9188
15753SOL     OW48391   7.781   4.219   8.579 -0.4046  0.7856  0.3020
15753SOL    HW148392   7.763   4.134   8.540 -1.3122 -0.3921  3.0332
15753SOL    HW248393   7.876   4.222   8.587 -0.2205  0.8979 -1.4718
15754SOL     OW48394   6.298   5.266   5.332  0.4802 -0.2146  0.0660
15754SOL    HW148395   6.346   5.337   5.289 -1.4578  0.7632 -0.6510
15754SOL    HW248396   6.251   5.309   5.404  0.6727 -1.1224  0.7536
15755SOL     OW48397   0.389   0.504   7.257 -0.0075  0.3048 -0.1223
15755SOL    HW148398   0.394   0.454   7.175 -0.6973  0.0790 -0.0306
15755SOL    HW248399   0.295   0.519   7.270  0.1814  1.6325 -0.1468
15756SOL     OW48400   0.136   6.851   1.509  0.0799  0.1532  0.2221
15756SOL    HW148401   0.161   6.815   1.594 -0.2182 -0.9977 -0.1580
15756SOL    HW248402   0.204   6.915   1.488 -0.0916  0.7894  1.5280
15757SOL     OW48403   6.437   2.837   8.297 -0.0763 -0.1598 -0.3496
15757SOL    HW148404   6.362   2.778   8.298 -0.7716  0.6830 -0.8887
15757SOL    HW248405   6.437   2.879   8.383  0.4953 -1.0155  0.0812
15758SOL     OW48406   5.045   0.561   5.846  0.0608 -0.0124  0.0558
15758SOL    HW148407   4.978   0.499   5.873 -1.0347  0.1700 -2.0163
15758SOL    HW248408   5.103   0.510   5.789  2.4462 -0.4650  2.6931
15759SOL     OW48409   4.820   6.293   5.032  0.5136 -0.4650 -0.1218
15759SOL    HW148410   4.832   6.353   4.959  0.6731 -1.3850 -0.8778
15759SOL    HW248411   4.908   6.276   5.064  0.3610  0.9998  1.2124
15760SOL     OW48412   7.686   5.962   3.692  1.0398 -0.0325 -0.9093
15760SOL    HW148413   7.703   6.055   3.683 -0.6052  0.1904 -2.2657
15760SOL    HW248414   7.682   5.929   3.603  2.6940 -1.6737 -0.4451
15761SOL     OW48415   1.081   4.610   7.961  0.5754 -0.4107 -1.2572
15761SOL    HW148416   1.066   4.607   8.056  0.6315 -0.8312 -1.2606
15761SOL    HW248417   1.131   4.690   7.947 -0.5809  0.3584 -1.0904
15762SOL     OW48418   7.438   3.256   0.822 -0.4833 -0.2778 -0.8933
15762SOL    HW148419   7.511   3.317   0.812  2.0085 -3.1093 -1.3804
15762SOL    HW248420   7.410   3.268   0.913  0.0933  1.3196 -0.8835
15763SOL     OW48421   4.125   4.274   6.675 -0.1030 -0.7951  0.3873
15763SOL    HW148422   4.135   4.356   6.627  3.8692  0.1054  2.3151
15763SOL    HW248423   4.085   4.299   6.758  0.0013 -1.0068  0.5024
15764SOL     OW48424   7.677   2.268   4.579 -0.2351 -0.7651  0.2514
15764SOL    HW148425   7.584   2.286   4.560  0.3140 -0.3691 -2.5385
15764SOL    HW248426   7.705   2.212   4.507  1.5010 -1.6368  1.5497
15765SOL     OW48427   6.490   6.790   4.541 -0.0662 -0.3904  0.8728
15765SOL    HW148428   6.409   6.739   4.537  0.1483 -0.6615 -1.5593
15765SOL    HW248429   6.554   6.737   4.494  0.4598  1.5575 -0.7509
15766SOL     OW48430   8.811   5.106   6.213  0.4557  0.0051 -0.0385
15766SOL    HW148431   8.857   5.030   6.176 -1.5036 -1.2129 -0.1076
15766SOL    HW248432   8.796   5.164   6.138  0.5923 -0.2708 -0.2829
15767SOL     OW48433   8.526   0.611   7.864  0.2457  0.1503 -0.1542
15767SOL    HW148434   8.571   0.695   7.870 -0.8002  0.6409  1.4119
15767SOL    HW248435   8.505   0.601   7.771  2.2710  0.5617 -0.7105
15768SOL     OW48436   6.624   2.440   5.405 -0.9269  0.1672  0.3786
15768SOL    HW148437   6.619   2.351   5.438  1.8009 -0.7931 -1.4211
15768SOL    HW248438   6.693   2.482   5.456  0.1422  0.1060 -0.9398
15769SOL     OW48439   2.114   2.161   8.537 -0.1149  0.4389 -0.2983
15769SOL    HW148440   2.153   2.248   8.525 -2.2827  1.3844 -1.1294
15769SOL    HW248441   2.032   2.178   8.585 -0.9744 -1.0142 -1.1710
15770SOL     OW48442   4.353   2.469   3.221  0.1487 -0.7072  0.0614
15770SOL    HW148443   4.415   2.424   3.162 -0.0800 -0.3264 -0.4809
15770SOL    HW248444   4.332   2.404   3.288 -1.1911 -1.9072 -1.4284
15771SOL     OW48445   3.685   4.278   5.672  0.6259 -0.4647  0.4328
15771SOL    HW148446   3.604   4.327   5.660  0.5194 -0.8453 -0.5289
15771SOL    HW248447   3.750   4.326   5.619  0.7091 -0.8963  0.1356
15772SOL     OW48448   2.791   1.692   1.382  0.0506  0.4257  0.0247
15772SOL    HW148449   2.785   1.692   1.286  0.8216 -0.5011 -0.0369
15772SOL    HW248450   2.837   1.774   1.403  0.2985  0.4093 -0.4309
15773SOL     OW48451   6.139   2.198   8.233  0.2308 -0.3388  0.3429
15773SOL    HW148452   6.144   2.103   8.217 -0.3157 -0.4096  0.5658
15773SOL    HW248453   6.086   2.232   8.161 -0.2083 -0.3157  0.6705
15774SOL     OW48454   8.552   3.257   8.557  0.1814  0.6290 -0.1904
15774SOL    HW148455   8.477   3.249   8.615  1.2283 -1.2982  0.9893
15774SOL    HW248456   8.517   3.243   8.469 -1.0699  1.4199  0.1558
15775SOL     OW48457   6.192   8.026   1.134  0.2873  0.0017 -0.9649
15775SOL    HW148458   6.251   8.081   1.185 -0.3229 -0.3337  0.1294
15775SOL    HW248459   6.238   8.012   1.051  1.6102  0.0042 -0.2595
15776SOL     OW48460   2.749   8.791   0.864 -0.0537 -0.2561 -0.1568
15776SOL    HW148461   2.764   8.879   0.899  0.9515 -0.2959 -0.4576
15776SOL    HW248462   2.830   8.744   0.882 -0.9226 -1.4318  0.8807
15777SOL     OW48463   4.695   1.860   8.563  0.3700  0.0761  0.3112
15777SOL    HW148464   4.708   1.767   8.543  1.5564  0.4771 -0.9376
15777SOL    HW248465   4.633   1.890   8.497  0.4532  0.3008  0.3344
15778SOL     OW48466   5.123   7.165   0.195  0.1684  0.0058 -0.1020
15778SOL    HW148467   5.158   7.102   0.132  0.5262  0.9150 -0.8426
15778SOL    HW248468   5.077   7.111   0.259  0.5281 -1.0117 -0.6635
15779SOL     OW48469   0.160   5.617   5.000  0.0241 -0.7147 -0.3100
15779SOL    HW148470   0.245   5.659   5.007 -1.5319  2.8620 -0.8174
15779SOL    HW248471   0.173   5.546   4.936  2.5769 -0.2840 -0.3478
15780SOL     OW48472   7.246   6.796   0.528  0.1068  0.1267 -0.3587
15780SOL    HW148473   7.323   6.753   0.565 -0.1392 -0.2694 -0.2984
15780SOL    HW248474   7.258   6.790   0.433  0.3189  0.3824 -0.3510
15781SOL     OW48475   7.730   2.657   8.669 -0.3095  0.2728 -0.5731
15781SOL    HW148476   7.710   2.692   8.756  0.1715  1.1923 -0.8199
15781SOL    HW248477   7.675   2.579   8.661  0.2091 -0.2672  0.8525
15782SOL     OW48478   6.257   5.464   1.051 -0.2675  0.1451 -0.0876
15782SOL    HW148479   6.310   5.472   1.130 -0.1956  0.8447 -0.2019
15782SOL    HW248480   6.284   5.537   0.996 -1.3400  0.5131 -0.1503
15783SOL     OW48481   6.864   8.847   7.583 -0.0528 -0.1392  0.2792
15783SOL    HW148482   6.835   8.861   7.493  3.8477 -0.6294 -1.2339
15783SOL    HW248483   6.798   8.789   7.621 -3.5918  2.6321 -1.0540
15784SOL     OW48484   0.332   8.998   7.060  0.2597 -0.0528 -0.1789
15784SOL    HW148485   0.289   8.945   7.126 -2.6640  0.8935 -1.1868
15784SOL    HW248486   0.350   9.081   7.103  0.6674 -0.2936  0.1192
15785SOL     OW48487   3.953   7.418   2.064 -0.2339 -0.0058  0.1136
15785SOL    HW148488   3.980   7.510   2.063 -3.5765  1.1548 -2.6653
15785SOL    HW248489   3.950   7.395   2.157 -0.8794  3.2294  1.0187
15786SOL     OW48490   6.691   1.456   7.116  0.3937 -0.0942 -0.2663
15786SOL    HW148491   6.616   1.396   7.113 -0.2212  0.6617 -0.6719
15786SOL    HW248492   6.686   1.495   7.203  0.5635 -0.3473 -0.1428
15787SOL     OW48493   3.975   4.126   3.136  0.0915 -0.1550 -0.5683
15787SOL    HW148494   3.978   4.056   3.202  1.3542  0.4060  0.0157
15787SOL    HW248495   3.929   4.087   3.062 -1.1297 -0.8962  0.5367
15788SOL     OW48496   5.833   5.941   5.480  1.0491 -0.3095  0.1759
15788SOL    HW148497   5.910   5.985   5.444  0.4450  0.0936 -0.6610
15788SOL    HW248498   5.773   5.934   5.406  0.4712 -1.0577  0.7022
15789SOL     OW48499   4.407   3.758   7.203 -0.3255  0.5462 -0.0323
15789SOL    HW148500   4.370   3.817   7.137 -1.2209  1.7883  1.5270
15789SOL    HW248501   4.345   3.760   7.275  1.5300  0.7076  1.6463
15790SOL     OW48502   9.071   1.719   0.455  0.2040 -0.1260 -0.5679
15790SOL    HW148503   9.146   1.676   0.495  0.5827  1.4405  0.5129
15790SOL    HW248504   9.093   1.723   0.361  1.2882 -0.0824 -0.3250
15791SOL     OW48505   6.750   6.295   6.859  0.2761 -0.5660  0.0179
15791SOL    HW148506   6.697   6.215   6.861 -2.8122  1.3110  0.6837
15791SOL    HW248507   6.840   6.264   6.861 -0.7478 -3.9965  1.9906
15792SOL     OW48508   6.575   8.826   8.072  0.6508  0.1529 -0.0520
15792SOL    HW148509   6.515   8.857   8.140  0.5543 -1.9668  0.9001
15792SOL    HW248510   6.644   8.779   8.119  0.1488 -2.0999 -1.4088
15793SOL     OW48511   6.439   5.934   5.904 -0.1100  0.0266 -0.2056
15793SOL    HW148512   6.377   5.966   5.969 -1.1794 -0.0862 -1.1569
15793SOL    HW248513   6.500   5.880   5.955 -0.7529  0.1659  0.7451
15794SOL     OW48514   0.326   6.189   4.241 -0.5326 -0.0682 -0.1077
15794SOL    HW148515   0.396   6.130   4.269  0.0188  0.6611  0.0786
15794SOL    HW248516   0.250   6.132   4.229  0.0353 -0.8421 -0.1173
15795SOL     OW48517   6.307   2.172   5.325  0.3809  0.5742  0.2286
15795SOL    HW148518   6.296   2.266   5.335 -2.0540  0.3308  0.4934
15795SOL    HW248519   6.232   2.134   5.371  1.6266 -1.5343  0.6487
15796SOL     OW48520   4.299   3.617   2.322  0.0572 -0.3257 -0.1212
15796SOL    HW148521   4.382   3.665   2.326 -0.5014  0.7253 -0.7409
15796SOL    HW248522   4.314   3.549   2.257  0.2577  0.2280 -0.6611
15797SOL     OW48523   6.566   4.929   7.838  0.1297 -0.1021 -0.0161
15797SOL    HW148524   6.556   4.978   7.756 -0.3729 -0.2357 -0.0361
15797SOL    HW248525   6.491   4.955   7.891 -0.4668 -1.2859 -0.2509
15798SOL     OW48526   2.836   6.005   3.909  0.2820 -0.6520  0.4748
15798SOL    HW148527   2.770   5.998   3.840 -0.4217  0.8722  0.9505
15798SOL    HW248528   2.787   6.033   3.986  1.3321 -0.5441  1.1125
15799SOL     OW48529   3.514   0.737   8.752  0.4025  0.6325 -0.3193
15799SOL    HW148530   3.468   0.777   8.826  0.1878 -2.8341  1.6571
15799SOL    HW248531   3.452   0.742   8.679 -0.6842  1.2870  0.6170
15800SOL     OW48532   8.351   5.869   5.331  0.6757 -0.0509  0.2129
15800SOL    HW148533   8.438   5.887   5.295  1.6932 -1.0676  2.0499
15800SOL    HW248534   8.354   5.901   5.421 -1.0190  0.2602  0.2110
15801SOL     OW48535   5.628   7.718   5.280  0.6499 -0.6835  0.2833
15801SOL    HW148536   5.717   7.686   5.299  0.5763 -0.4539  1.0831
15801SOL    HW248537   5.640   7.792   5.222  0.8044 -2.4177 -2.0251
15802SOL     OW48538   7.589   0.772   0.540 -0.2786  0.1231 -0.5477
15802SOL    HW148539   7.638   0.732   0.612  0.1098  1.1082 -0.2492
15802SOL    HW248540   7.539   0.700   0.502  1.8164 -1.0872 -1.2151
15803SOL     OW48541   5.759   7.160   6.953 -0.7170 -0.2839  0.2497
15803SOL    HW148542   5.768   7.171   6.858 -1.7958 -1.4448 -0.0145
15803SOL    HW248543   5.669   7.130   6.965 -0.3285 -0.9945  1.5528
15804SOL     OW48544   7.775   3.486   0.560 -0.2094 -0.1372 -0.3947
15804SOL    HW148545   7.852   3.490   0.617  0.2401 -1.4217 -0.8615
15804SOL    HW248546   7.736   3.573   0.565  0.9202  0.3467  0.3469
15805SOL     OW48547   7.742   4.245   3.354 -0.1273 -0.7965 -0.3334
15805SOL    HW148548   7.687   4.269   3.279 -1.4881 -0.5573  0.7170
15805SOL    HW248549   7.820   4.299   3.343 -1.5088  1.3711 -0.0869
15806SOL     OW48550   1.725   5.829   8.299  0.2388 -0.4437 -0.0429
15806SOL    HW148551   1.646   5.883   8.293  0.0354 -0.5517  1.3490
15806SOL    HW248552   1.717   5.784   8.383  1.0995 -1.5585 -0.5283
15807SOL     OW48553   6.381   6.406   0.810  0.0847 -0.0105 -0.1616
15807SOL    HW148554   6.413   6.487   0.851 -1.4077 -0.8469  3.0032
15807SOL    HW248555   6.348   6.434   0.725  2.0261  2.1920 -0.2933
15808SOL     OW48556   2.165   4.254   8.864 -0.3739  0.0480  0.1251
15808SOL    HW148557   2.217   4.175   8.851 -1.4887 -0.9995  1.7070
15808SOL    HW248558   2.080   4.222   8.896 -1.9794  1.6767 -2.1060
15809SOL     OW48559   6.895   3.345   5.115 -0.0883  0.5666 -0.1360
15809SOL    HW148560   6.890   3.298   5.031 -2.4140 -1.5181  1.0307
15809SOL    HW248561   6.833   3.417   5.106 -1.5373 -0.5914  0.2643
15810SOL     OW48562   4.732   8.624   0.069  0.2422  0.0798  0.2231
15810SOL    HW148563   4.812   8.663   0.034  1.1514 -2.2812 -0.5777
15810SOL    HW248564   4.673   8.619  -0.007 -0.5553  1.4319  0.7188
15811SOL     OW48565   6.297   5.277   0.021 -0.2123  0.7084  0.1092
15811SOL    HW148566   6.388   5.246   0.017 -0.5460 -0.1653 -1.1861
15811SOL    HW248567   6.297   5.338   0.095  1.3519  0.4933  0.3418
15812SOL     OW48568   5.475   3.387   0.463 -0.5619 -0.1861  0.3978
15812SOL    HW148569   5.535   3.424   0.528 -0.0311  0.6313 -0.5236
15812SOL    HW248570   5.388   3.398   0.501 -0.2753  0.4649  0.8846
15813SOL     OW48571   0.467   7.123   0.913  0.3862 -0.4468  0.0750
15813SOL    HW148572   0.498   7.083   0.832 -0.6699 -1.2840  0.0583
15813SOL    HW248573   0.470   7.217   0.897  0.0093 -0.6096 -1.0126
15814SOL     OW48574   6.341   2.405   0.278 -0.2005 -0.4329 -0.2842
15814SOL    HW148575   6.395   2.471   0.234  2.0535 -1.9166  0.0500
15814SOL    HW248576   6.326   2.338   0.211 -0.5163 -0.6534  0.0052
15815SOL     OW48577   2.527   3.481   8.689 -0.5940  0.1521 -0.1348
15815SOL    HW148578   2.556   3.478   8.780 -2.5661  0.5065  0.5524
15815SOL    HW248579   2.555   3.567   8.658  1.2236 -0.4645 -0.3050
15816SOL     OW48580   3.323   2.042   2.353 -0.0308 -0.1623  0.1871
15816SOL    HW148581   3.327   1.948   2.371 -1.7819 -0.5409 -1.1999
15816SOL    HW248582   3.345   2.082   2.437 -1.3794 -1.8266  1.4207
15817SOL     OW48583   6.586   0.891   1.581 -0.1723  0.0841  0.2185
15817SOL    HW148584   6.593   0.986   1.573  1.5137 -0.0218  0.1498
15817SOL    HW248585   6.496   0.872   1.553 -0.9366  1.7451  1.3389
15818SOL     OW48586   7.564   6.329   3.004 -0.4219  0.6937 -0.4523
15818SOL    HW148587   7.515   6.306   3.084 -0.9052 -0.5382 -1.0835
15818SOL    HW248588   7.644   6.276   3.009 -1.7188 -1.6107 -2.1047
15819SOL     OW48589   2.553   0.117   1.232 -0.1451 -0.4429 -0.1923
15819SOL    HW148590   2.607   0.190   1.264  1.7864 -1.7381 -0.3340
15819SOL    HW248591   2.517   0.148   1.149 -0.8778  0.9869  0.6055
15820SOL     OW48592   0.538   1.124   1.880 -0.0098 -0.0867 -0.3550
15820SOL    HW148593   0.486   1.098   1.956  0.2152 -0.6652 -0.3938
15820SOL    HW248594   0.582   1.205   1.907  1.0008 -0.9255  0.5538
15821SOL     OW48595   1.555   2.223   4.744  0.3831  0.6959 -0.4954
15821SOL    HW148596   1.475   2.261   4.782 -0.0864  0.7484 -1.5025
15821SOL    HW248597   1.611   2.299   4.725  0.8167  0.6381  0.4986
15822SOL     OW48598   0.273   5.768   3.122 -0.2382  0.5920 -0.2984
15822SOL    HW148599   0.322   5.716   3.058 -0.8096 -1.1313  0.6008
15822SOL    HW248600   0.278   5.858   3.089 -0.2599 -0.1847 -2.6020
15823SOL     OW48601   3.998   8.577   0.803 -0.0207 -0.4729  0.2006
15823SOL    HW148602   3.958   8.508   0.856  0.0773 -1.5420 -1.0635
15823SOL    HW248603   4.085   8.544   0.782 -0.6366 -0.9109 -2.0043
15824SOL     OW48604   0.251   8.216   5.821 -0.3795 -0.5895 -0.5541
15824SOL    HW148605   0.176   8.157   5.815 -1.0278  0.1593 -0.0865
15824SOL    HW248606   0.229   8.288   5.762 -0.6050  0.2297  0.5029
15825SOL     OW48607   5.430   2.823   8.325  0.0738 -0.1003 -0.6478
15825SOL    HW148608   5.504   2.779   8.365  1.0691  1.8972 -0.1646
15825SOL    HW248609   5.353   2.780   8.363  0.9039 -2.5295 -1.5145
15826SOL     OW48610   0.250   3.329   1.787  0.1464  0.5782  0.0554
15826SOL    HW148611   0.232   3.307   1.878  0.3684  0.5016  0.0817
15826SOL    HW248612   0.188   3.398   1.766  0.8590  1.4139  0.6206
15827SOL     OW48613   0.140   2.685   1.693  0.1611  0.3076  0.0300
15827SOL    HW148614   0.203   2.754   1.677  0.8909 -0.3995 -0.1828
15827SOL    HW248615   0.180   2.631   1.762  0.8628 -1.4468 -1.6694
15828SOL     OW48616   4.108   8.337   2.562 -0.1502 -0.1399 -0.7627
15828SOL    HW148617   4.081   8.279   2.490 -1.5471 -0.1966 -0.2281
15828SOL    HW248618   4.144   8.278   2.628 -0.4180 -0.2730 -0.7344
15829SOL     OW48619   5.282   2.274   4.100 -0.0280  0.0797 -0.2360
15829SOL    HW148620   5.231   2.194   4.087 -1.5438  0.4322  2.8712
15829SOL    HW248621   5.229   2.343   4.060  0.6640 -0.2271 -1.7596
15830SOL     OW48622   5.964   7.057   2.556 -0.0783 -0.0445  0.2578
15830SOL    HW148623   5.883   7.107   2.571  0.5410  1.8499 -1.9870
15830SOL    HW248624   6.032   7.111   2.596  0.3332 -0.4231  0.0638
15831SOL     OW48625   4.166   0.110   4.848  0.0098 -0.3882  0.2891
15831SOL    HW148626   4.131   0.172   4.912 -0.0374 -1.5631  1.4512
15831SOL    HW248627   4.253   0.144   4.828 -0.0381  0.0959  0.8600
15832SOL     OW48628   2.327   7.355   4.245 -0.0626  0.0997 -0.4821
15832SOL    HW148629   2.371   7.270   4.249  1.5060  0.8924  0.2818
15832SOL    HW248630   2.276   7.358   4.326  1.1738  0.5133  0.3120
15833SOL     OW48631   0.540   1.793   2.709  0.1471 -0.1130  0.0314
15833SOL    HW148632   0.448   1.785   2.732  0.4006  0.8991  1.5635
15833SOL    HW248633   0.586   1.740   2.775  0.8095  1.7478  1.1606
15834SOL     OW48634   3.957   7.184   1.928 -0.2092  0.4229  0.7747
15834SOL    HW148635   3.962   7.256   1.991  1.5164 -0.3410  1.5736
15834SOL    HW248636   4.044   7.180   1.888 -0.5649 -0.6021  0.0396
15835SOL     OW48637   9.108   3.157   8.052 -0.0005 -0.4362  0.1859
15835SOL    HW148638   9.021   3.192   8.069 -0.5461 -1.4249 -0.4970
15835SOL    HW248639   9.151   3.157   8.138 -0.3929  0.7468  0.4008
15836SOL     OW48640   5.624   6.845   3.906  0.2109  0.2417  0.2130
15836SOL    HW148641   5.679   6.775   3.871 -0.9733 -1.2124  1.0909
15836SOL    HW248642   5.557   6.798   3.957 -1.5769  1.9233 -0.4689
15837SOL     OW48643   5.156   3.924   3.192 -0.1012  0.0102 -0.1155
15837SOL    HW148644   5.100   3.940   3.268  0.1103  0.6604 -0.0880
15837SOL    HW248645   5.119   3.979   3.123  0.9566  1.0780  0.1292
15838SOL     OW48646   3.229   3.697   2.641  0.3235  0.6137 -0.2525
15838SOL    HW148647   3.283   3.647   2.579 -1.2753 -0.5728 -0.7524
15838SOL    HW248648   3.292   3.734   2.703  1.6949 -1.1589 -0.4879
15839SOL     OW48649   2.003   8.732   8.037 -0.2598 -0.1333 -0.1021
15839SOL    HW148650   1.991   8.707   7.945 -0.7225  0.3378 -0.1743
15839SOL    HW248651   2.037   8.653   8.079  1.9300  0.2025 -1.0737
15840SOL     OW48652   6.813   5.590   4.931 -0.3026  0.1981  0.3670
15840SOL    HW148653   6.742   5.556   4.878 -0.0961  0.3843 -0.0290
15840SOL    HW248654   6.779   5.670   4.971 -0.6403 -0.2275  0.9493
15841SOL     OW48655   2.917   3.510   6.614  0.2248  0.1561 -0.4438
15841SOL    HW148656   3.004   3.548   6.601  0.6191 -0.3579  0.5468
15841SOL    HW248657   2.886   3.490   6.526  1.2736 -0.0211 -0.7919
15842SOL     OW48658   2.980   6.798   1.220 -0.3098  0.4253  0.1841
15842SOL    HW148659   3.072   6.787   1.241 -0.1054  0.6060 -0.5915
15842SOL    HW248660   2.960   6.725   1.161 -0.1746  1.4301 -1.1403
15843SOL     OW48661   4.767   8.395   7.398  0.2000  0.4866  0.3616
15843SOL    HW148662   4.720   8.322   7.356 -1.1963  2.1537 -1.1330
15843SOL    HW248663   4.849   8.401   7.348 -0.7549  1.4428 -1.1652
15844SOL     OW48664   4.240   9.006   0.863 -0.0058  0.2114 -0.2163
15844SOL    HW148665   4.180   8.975   0.795  0.1113  0.0216 -0.2347
15844SOL    HW248666   4.316   8.948   0.856  0.2866  0.6055 -0.3557
15845SOL     OW48667   3.256   1.694   8.026 -0.3787  0.1745 -0.0474
15845SOL    HW148668   3.316   1.680   7.952 -2.1385 -1.5235 -1.2315
15845SOL    HW248669   3.232   1.606   8.055 -2.3492  0.8032  0.3470
15846SOL     OW48670   0.532   9.057   3.618  0.3109  0.2215  0.0896
15846SOL    HW148671   0.439   9.033   3.624  0.1363  1.1684  1.8091
15846SOL    HW248672   0.532   9.146   3.583  0.2462  1.6398  3.2713
15847SOL     OW48673   6.482   5.354   6.307 -0.2566 -0.0439 -0.6762
15847SOL    HW148674   6.455   5.376   6.396  0.3348  0.7334 -0.6811
15847SOL    HW248675   6.468   5.260   6.300 -0.7316 -0.0355  0.0881
15848SOL     OW48676   6.453   8.677   5.021 -0.6996 -0.2890 -0.2730
15848SOL    HW148677   6.411   8.701   4.939 -2.6438 -1.0777  0.4327
15848SOL    HW248678   6.417   8.738   5.086  1.4157  0.8508 -0.0893
15849SOL     OW48679   7.861   5.558   7.159  0.2060 -0.0258  0.7441
15849SOL    HW148680   7.868   5.534   7.251 -0.6552  1.4084  1.2123
15849SOL    HW248681   7.938   5.612   7.142  1.2095 -1.5675  0.1610
15850SOL     OW48682   6.987   0.686   1.215  0.9999  0.1539 -0.0354
15850SOL    HW148683   6.898   0.699   1.182  0.4727  0.6945  1.5037
15850SOL    HW248684   7.017   0.605   1.173 -0.9178 -1.0649  0.8012
15851SOL     OW48685   8.839   2.512   2.898 -1.1317  0.1508  0.5507
15851SOL    HW148686   8.802   2.499   2.986 -0.1163 -2.7866  0.6603
15851SOL    HW248687   8.930   2.539   2.914  0.4016 -4.2773  0.7197
15852SOL     OW48688   6.965   3.410   2.755  0.1735 -0.5289  0.2848
15852SOL    HW148689   6.956   3.426   2.661 -0.3489 -0.5251  0.3349
15852SOL    HW248690   7.027   3.478   2.784  0.3374 -0.5308 -0.0538
15853SOL     OW48691   1.186   5.452   3.406 -0.1218  0.2546 -0.3011
15853SOL    HW148692   1.273   5.414   3.416 -0.4099 -0.6106 -0.9731
15853SOL    HW248693   1.152   5.414   3.325 -1.7023 -0.6076  0.7081
15854SOL     OW48694   8.675   6.735   2.860 -0.6297  0.3829  0.0358
15854SOL    HW148695   8.599   6.733   2.918 -0.0156 -1.6518  0.8335
15854SOL    HW248696   8.750   6.742   2.918  0.0113 -1.9720 -0.3844
15855SOL     OW48697   2.035   6.147   5.334 -0.2731  0.4047 -0.1408
15855SOL    HW148698   2.096   6.112   5.269 -1.6568 -1.6252 -0.4554
15855SOL    HW248699   2.087   6.159   5.413  0.7401 -0.3621 -0.6720
15856SOL     OW48700   7.798   3.400   6.776 -0.4854  0.2095 -0.1528
15856SOL    HW148701   7.861   3.381   6.707  0.2785 -1.8605  1.0270
15856SOL    HW248702   7.851   3.420   6.853 -1.2656 -0.2398  0.5183
15857SOL     OW48703   8.322   8.728   3.842 -0.2479 -0.2815  0.4337
15857SOL    HW148704   8.271   8.806   3.861  0.7489  0.2810  0.8630
15857SOL    HW248705   8.390   8.757   3.780 -1.1463 -1.2744 -1.0947
15858SOL     OW48706   4.459   7.015   2.959  0.0619 -0.7068 -0.5073
15858SOL    HW148707   4.541   7.014   3.007  1.8743 -1.3422 -3.3769
15858SOL    HW248708   4.441   6.923   2.940  0.4552 -0.3966 -2.6006
15859SOL     OW48709   4.635   0.597   3.054  0.3369 -0.0166  0.0781
15859SOL    HW148710   4.594   0.602   3.140  1.4603  1.2778  0.5864
15859SOL    HW248711   4.675   0.510   3.052 -0.7350 -0.5275  0.3543
15860SOL     OW48712   8.654   8.728   3.947 -0.1989 -0.0939  0.2188
15860SOL    HW148713   8.638   8.819   3.921 -3.9216 -0.3761  0.9418
15860SOL    HW248714   8.632   8.676   3.870  0.7996 -0.4444  0.1627
15861SOL     OW48715   5.342   3.918   2.845 -0.0486 -0.7312 -0.0621
15861SOL    HW148716   5.305   3.848   2.898 -0.6144  0.6566  1.4533
15861SOL    HW248717   5.426   3.937   2.886 -0.7537  0.7597  0.7786
15862SOL     OW48718   4.569   1.901   4.271 -0.7581 -0.1803 -0.1359
15862SOL    HW148719   4.551   1.978   4.324  0.4100  0.6700 -0.9321
15862SOL    HW248720   4.539   1.925   4.183  0.1475 -0.3938 -0.5171
15863SOL     OW48721   5.284   3.521   7.008  0.2639  0.4162  0.3165
15863SOL    HW148722   5.242   3.577   7.072  0.0805  1.9611 -1.0950
15863SOL    HW248723   5.238   3.437   7.016 -0.1525  0.7516  1.7503
15864SOL     OW48724   5.579   5.036   6.026 -1.0613  0.4522 -0.5710
15864SOL    HW148725   5.522   5.102   5.989 -2.4610 -0.2111  0.3241
15864SOL    HW248726   5.654   5.085   6.061 -2.2466  1.6119  0.4219
15865SOL     OW48727   3.851   3.482   2.870 -0.1194 -0.2615 -0.4888
15865SOL    HW148728   3.906   3.473   2.948 -0.1196 -0.1615 -0.4772
15865SOL    HW248729   3.858   3.575   2.846 -0.8111 -0.1042 -0.0944
15866SOL     OW48730   8.007   3.402   4.160 -0.2095 -0.4244 -0.0306
15866SOL    HW148731   8.040   3.442   4.080 -1.9379 -1.4379 -1.3136
15866SOL    HW248732   8.006   3.308   4.142 -2.2810 -0.5518  0.4601
15867SOL     OW48733   6.404   0.282   8.038 -0.1641 -0.0923 -0.0924
15867SOL    HW148734   6.487   0.310   8.000 -0.2159 -0.3390 -0.3924
15867SOL    HW248735   6.385   0.347   8.105  1.6776 -1.5443  1.9753
15868SOL     OW48736   2.306   7.867   4.203  0.2759  0.8112 -0.7131
15868SOL    HW148737   2.338   7.931   4.267 -0.2760 -0.4171  0.8785
15868SOL    HW248738   2.360   7.789   4.219 -0.8926 -0.0111 -0.6887
15869SOL     OW48739   1.423   7.439   7.429 -0.2017  0.4610  0.5008
15869SOL    HW148740   1.427   7.344   7.442  1.4517  0.3425 -0.6241
15869SOL    HW248741   1.444   7.476   7.515  0.0673 -0.2009  0.7238
15870SOL     OW48742   0.676   2.775   6.487  0.4806  0.6206  0.3059
15870SOL    HW148743   0.626   2.818   6.555  0.3046  1.2026 -0.1818
15870SOL    HW248744   0.666   2.832   6.410 -0.7251 -0.8545 -0.6976
15871SOL     OW48745   6.475   0.278   2.114 -0.1472  0.0077 -0.5474
15871SOL    HW148746   6.398   0.259   2.167  0.3789  0.6844  0.4909
15871SOL    HW248747   6.458   0.365   2.078 -0.1071 -0.0781 -0.7776
15872SOL     OW48748   5.470   2.693   5.716  0.0735 -0.4865 -0.6523
15872SOL    HW148749   5.487   2.753   5.643 -1.9312  0.8483 -0.1113
15872SOL    HW248750   5.518   2.731   5.790 -1.0176  0.4087 -0.3655
15873SOL     OW48751   6.433   8.905   3.597 -0.9440  0.4006 -0.1352
15873SOL    HW148752   6.354   8.958   3.608  0.1640  2.2240 -0.6339
15873SOL    HW248753   6.448   8.866   3.683 -1.6068  1.1579  0.3414
15874SOL     OW48754   2.086   9.021   4.928  0.3491  0.2547  0.7216
15874SOL    HW148755   2.116   8.973   4.850  0.0948 -0.7493  1.2153
15874SOL    HW248756   2.161   9.075   4.952  0.6878  0.0395  0.1944
15875SOL     OW48757   6.610   4.762   7.106  0.6004 -0.3428 -0.5228
15875SOL    HW148758   6.705   4.753   7.108  0.6629 -0.6598 -2.6580
15875SOL    HW248759   6.583   4.716   7.026 -1.2382  0.5491 -0.4733
15876SOL     OW48760   7.423   7.614   1.471  0.5954 -0.1240  0.0458
15876SOL    HW148761   7.436   7.618   1.376  0.7800  1.0247  0.1078
15876SOL    HW248762   7.366   7.538   1.484  0.2268 -0.0449 -1.0200
15877SOL     OW48763   4.591   2.900   8.151  0.1499 -0.7534  0.8806
15877SOL    HW148764   4.501   2.930   8.137  0.3319 -0.9249 -0.7573
15877SOL    HW248765   4.594   2.812   8.112  0.7373 -1.2385  1.9513
15878SOL     OW48766   6.716   7.897   3.533  0.7360 -0.6631 -0.0365
15878SOL    HW148767   6.670   7.867   3.455  1.4526  1.6289 -1.4358
15878SOL    HW248768   6.803   7.858   3.525  1.1543  0.4147 -0.9984
15879SOL     OW48769   4.105   0.588   7.335 -0.0529  0.3401  0.1989
15879SOL    HW148770   4.011   0.609   7.330  0.2869  1.6454 -1.6726
15879SOL    HW248771   4.121   0.533   7.259  0.7574  0.2568  0.4245
15880SOL     OW48772   5.005   7.521   0.797 -0.0970 -0.3964 -0.3929
15880SOL    HW148773   4.995   7.564   0.712 -1.7872  1.2045  0.5465
15880SOL    HW248774   5.024   7.593   0.858  1.4941 -1.5578  0.5658
15881SOL     OW48775   1.776   8.976   1.301 -0.3813 -0.2254  0.2319
15881SOL    HW148776   1.712   8.914   1.265 -1.2069  0.1937  0.9411
15881SOL    HW248777   1.746   8.993   1.390 -1.3527  2.7144 -0.5472
15882SOL     OW48778   8.752   5.974   5.623  0.1283  0.5042 -0.1597
15882SOL    HW148779   8.815   5.902   5.633  0.6383  1.0115  0.3909
15882SOL    HW248780   8.806   6.053   5.630 -0.3339  0.9397 -1.3519
15883SOL     OW48781   0.952   3.270   5.589 -0.2716 -0.5801  0.2899
15883SOL    HW148782   0.932   3.211   5.662  0.0107  0.4639  1.2446
15883SOL    HW248783   0.909   3.352   5.613 -1.2177 -0.5705 -1.3337
15884SOL     OW48784   7.394   8.940   5.952  0.1179 -0.0453  0.5277
15884SOL    HW148785   7.485   8.941   5.982 -0.2531 -1.0120  1.7968
15884SOL    HW248786   7.399   8.966   5.860  1.5562  0.9321  0.8357
15885SOL     OW48787   3.912   1.991   7.992 -0.1362 -0.6383  0.3997
15885SOL    HW148788   3.835   2.023   7.943 -0.6537 -2.0079  0.2906
15885SOL    HW248789   3.877   1.926   8.052  0.9792 -1.5158  0.1296
15886SOL     OW48790   3.247   3.133   7.124 -0.4637 -0.2957  0.1209
15886SOL    HW148791   3.310   3.079   7.075 -1.0465 -1.2273  0.3801
15886SOL    HW248792   3.190   3.070   7.167 -1.2693  0.5369  0.2976
15887SOL     OW48793   3.653   4.589   0.289 -0.2349 -0.4744 -0.2390
15887SOL    HW148794   3.680   4.679   0.307 -1.0073 -0.0323 -1.2273
15887SOL    HW248795   3.578   4.597   0.230 -1.4370 -1.7169  1.0295
15888SOL     OW48796   5.850   6.483   3.535  0.3428  0.1846  0.3808
15888SOL    HW148797   5.905   6.416   3.495  0.8467  1.7568 -1.7512
15888SOL    HW248798   5.844   6.552   3.468 -2.1554  1.1894  1.5202
15889SOL     OW48799   5.185   0.487   1.838 -0.0044 -0.1926 -0.6872
15889SOL    HW148800   5.277   0.513   1.846  0.2572 -1.0472 -0.8786
15889SOL    HW248801   5.165   0.444   1.922  0.1637 -1.2002 -1.1530
15890SOL     OW48802   5.775   7.312   8.282 -0.5263  0.6081  0.3713
15890SOL    HW148803   5.807   7.276   8.365 -0.4031 -3.1178 -1.1213
15890SOL    HW248804   5.827   7.268   8.215 -2.0378  1.9512 -1.8155
15891SOL     OW48805   9.103   2.645   6.684  0.1154  0.1890 -0.0992
15891SOL    HW148806   9.026   2.691   6.651  0.7957  0.9798 -0.6098
15891SOL    HW248807   9.074   2.554   6.693 -1.0606  0.5906  0.3440
15892SOL     OW48808   4.017   4.508   1.298 -0.4404  0.3840  0.0589
15892SOL    HW148809   4.062   4.583   1.337 -0.2984 -1.2268  3.4333
15892SOL    HW248810   3.924   4.526   1.311 -0.5871  1.2210 -1.8492
15893SOL     OW48811   8.106   1.690   0.632 -0.1463 -0.1097  0.0567
15893SOL    HW148812   8.118   1.597   0.616 -0.5038 -0.2051  0.3216
15893SOL    HW248813   8.068   1.695   0.720 -0.1941  0.2792  0.0172
15894SOL     OW48814   6.999   7.264   4.002  0.3866  0.0094 -0.3021
15894SOL    HW148815   6.957   7.296   4.082 -1.0225 -2.8208  0.2450
15894SOL    HW248816   7.001   7.339   3.943 -1.8423  1.3005  1.1313
15895SOL     OW48817   0.301   8.575   6.165  0.1754  0.2763  0.0701
15895SOL    HW148818   0.232   8.634   6.135 -0.0481  0.0372  0.0988
15895SOL    HW248819   0.312   8.596   6.258  0.8856  1.0340 -0.1785
15896SOL     OW48820   2.909   1.285   2.557 -0.0987 -0.1861 -0.3034
15896SOL    HW148821   2.944   1.355   2.613 -0.8616  1.4269 -1.7327
15896SOL    HW248822   2.967   1.210   2.574  0.1674  0.4392  2.0194
15897SOL     OW48823   4.316   8.756   4.811 -0.2414  1.4413  0.4258
15897SOL    HW148824   4.316   8.727   4.902  0.4467  0.4210  0.1182
15897SOL    HW248825   4.226   8.784   4.794 -0.4601  1.2716  1.2992
15898SOL     OW48826   8.520   8.554   1.843 -0.5982  0.0903 -0.3954
15898SOL    HW148827   8.613   8.572   1.829 -0.2953 -0.9444  0.2074
15898SOL    HW248828   8.518   8.471   1.889 -1.7479  1.0300  1.3532
15899SOL     OW48829   0.836   7.313   8.786  0.3782 -0.4146  0.0535
15899SOL    HW148830   0.798   7.387   8.738 -0.6751 -1.2558 -0.4565
15899SOL    HW248831   0.930   7.332   8.788 -0.1269  2.6222  2.9088
15900SOL     OW48832   3.207   0.028   2.104 -0.0427 -0.4807  0.3228
15900SOL    HW148833   3.201   0.052   2.011 -1.5311 -0.7983  0.3061
15900SOL    HW248834   3.227  -0.066   2.103  0.5660 -0.3513  0.3302
15901SOL     OW48835   8.126   3.926   5.469  0.2235 -0.1317 -0.2622
15901SOL    HW148836   8.087   3.918   5.556  3.8009  0.7216  1.5990
15901SOL    HW248837   8.070   3.989   5.423 -0.5402  1.1714  2.2598
15902SOL     OW48838   4.184   1.369   0.648 -0.1228  0.1251  0.1083
15902SOL    HW148839   4.193   1.463   0.634 -0.2519  0.1209 -0.0106
15902SOL    HW248840   4.129   1.361   0.726 -0.4766  0.1507 -0.1320
15903SOL     OW48841   7.639   5.735   8.931 -0.5045 -0.3287 -0.0215
15903SOL    HW148842   7.689   5.754   9.010  0.3868 -0.4648 -0.5384
15903SOL    HW248843   7.645   5.640   8.921  0.0852 -0.2271 -0.6981
15904SOL     OW48844   3.248   2.739   6.979  1.0021  0.1460  0.1793
15904SOL    HW148845   3.181   2.797   7.016  1.0694  1.5253 -1.7152
15904SOL    HW248846   3.199   2.671   6.934  0.9204 -1.4695  2.5405
15905SOL     OW48847   8.253   0.389   8.480 -0.4955 -0.7707 -0.2204
15905SOL    HW148848   8.239   0.481   8.504 -1.2145 -0.9566  0.1140
15905SOL    HW248849   8.166   0.350   8.485 -0.2920 -1.3302 -0.9860
15906SOL     OW48850   2.119   2.447   5.106  0.1021 -0.5095  0.6381
15906SOL    HW148851   2.148   2.538   5.097 -0.6618 -0.3288 -0.2094
15906SOL    HW248852   2.139   2.407   5.022 -0.4665 -0.8567  0.6617
15907SOL     OW48853   3.451   6.331   2.575  0.1259  0.4018  0.1679
15907SOL    HW148854   3.454   6.241   2.545  1.1389  0.6152 -0.4144
15907SOL    HW248855   3.534   6.369   2.545 -0.0585  1.3785  0.8511
15908SOL     OW48856   1.787   0.545   1.544  0.1424  0.1779  0.2439
15908SOL    HW148857   1.866   0.531   1.597 -1.0514 -0.6233  1.8897
15908SOL    HW248858   1.755   0.631   1.570  0.2692  0.3565 -0.1776
15909SOL     OW48859   3.492   0.134   7.706 -0.0224 -0.1702 -0.0728
15909SOL    HW148860   3.445   0.094   7.633 -1.3112  1.4495 -0.1590
15909SOL    HW248861   3.571   0.080   7.715 -0.5883 -1.3350 -1.6357
15910SOL     OW48862   7.641   8.111   6.833  0.1630 -0.2635 -0.1046
15910SOL    HW148863   7.714   8.162   6.868 -1.0244  1.1891  0.3372
15910SOL    HW248864   7.570   8.125   6.895 -0.5606 -1.5288 -0.6100
15911SOL     OW48865   9.069   2.628   7.681  0.5677  0.1920  0.0990
15911SOL    HW148866   8.996   2.593   7.732  0.2306 -0.1969 -0.6426
15911SOL    HW248867   9.142   2.570   7.700 -0.1418 -1.3852 -1.6204
15912SOL     OW48868   4.009   4.346   4.712 -0.0927 -0.3095  0.1620
15912SOL    HW148869   4.015   4.441   4.713  1.0257 -0.3502 -0.7545
15912SOL    HW248870   3.922   4.327   4.746 -1.8165  1.1962 -2.9747
15913SOL     OW48871   2.180   5.780   4.152 -0.2822  0.0169  0.0652
15913SOL    HW148872   2.234   5.722   4.205 -1.2028 -0.7068  0.2393
15913SOL    HW248873   2.090   5.749   4.166 -0.6883  0.8133 -0.6735
15914SOL     OW48874   7.139   3.520   0.966  0.4089 -0.0609 -0.4118
15914SOL    HW148875   7.083   3.594   0.947 -0.7509 -1.1073 -1.2738
15914SOL    HW248876   7.219   3.558   1.004 -0.0897  1.5995 -0.9714
15915SOL     OW48877   7.885   3.612   1.660 -0.2450 -0.4829  0.4343
15915SOL    HW148878   7.947   3.684   1.647  1.3098 -1.7282  0.5737
15915SOL    HW248879   7.836   3.636   1.739 -1.6289  1.6248 -0.9686
15916SOL     OW48880   2.461   8.580   4.847  0.1432  0.0255 -0.1950
15916SOL    HW148881   2.519   8.509   4.873 -1.1287 -0.5819  1.1481
15916SOL    HW248882   2.439   8.624   4.929 -1.8022 -0.1921 -0.5562
15917SOL     OW48883   3.787   2.831   6.322  0.0355 -0.4471  0.2362
15917SOL    HW148884   3.870   2.840   6.369 -0.3196 -0.0684  0.8064
15917SOL    HW248885   3.724   2.880   6.376 -0.3602  0.0812 -0.6915
15918SOL     OW48886   7.111   0.963   9.074  0.4820  0.3243 -0.2296
15918SOL    HW148887   7.023   1.003   9.070 -0.1820 -1.0049  0.5562
15918SOL    HW248888   7.168   1.035   9.100 -0.4069  1.1541 -0.4679
15919SOL     OW48889   4.019   6.267   1.428  0.0830 -0.0520  0.2122
15919SOL    HW148890   3.993   6.175   1.432  0.6184 -0.2883 -1.4196
15919SOL    HW248891   4.020   6.295   1.520 -0.7982 -1.4578  0.6803
15920SOL     OW48892   6.713   0.669   7.760  0.1063  0.0505 -0.1734
15920SOL    HW148893   6.739   0.598   7.701  2.1110 -0.1911  0.9079
15920SOL    HW248894   6.618   0.677   7.748 -0.5366 -3.9318  0.8130
15921SOL     OW48895   3.393   7.453   0.456 -0.4719 -0.2468 -0.3885
15921SOL    HW148896   3.429   7.378   0.408 -0.0012  0.1836 -0.7121
15921SOL    HW248897   3.353   7.507   0.389 -2.6337 -1.1939  0.0649
15922SOL     OW48898   6.473   7.074   0.058 -0.5814 -0.1050 -0.0173
15922SOL    HW148899   6.516   7.119   0.131  0.7643  0.0177 -0.8501
15922SOL    HW248900   6.460   7.141  -0.008  1.2415 -0.7977 -1.1818
15923SOL     OW48901   0.530   7.864   7.904  0.5194 -0.4833 -0.0130
15923SOL    HW148902   0.500   7.802   7.837 -0.3779 -2.2107  1.8681
15923SOL    HW248903   0.465   7.934   7.902  0.4446 -0.5620 -0.8682
15924SOL     OW48904   2.756   8.595   6.452  0.1699  0.2993  0.3504
15924SOL    HW148905   2.682   8.585   6.512 -0.0159 -1.2081 -0.0781
15924SOL    HW248906   2.748   8.521   6.392 -0.2511  2.2823 -2.2305
15925SOL     OW48907   2.156   6.046   4.618  0.5298 -0.3926  0.5381
15925SOL    HW148908   2.105   6.100   4.558  4.1041  1.3028 -1.2889
15925SOL    HW248909   2.221   6.003   4.563  1.6043 -1.8301  2.7636
15926SOL     OW48910   5.279   4.768   1.707 -0.6422 -0.0946 -0.1960
15926SOL    HW148911   5.257   4.733   1.793 -2.1201  0.6494 -0.2367
15926SOL    HW248912   5.317   4.854   1.725  1.4357 -0.9324 -0.1939
15927SOL     OW48913   5.639   7.913   1.792  0.2024 -0.7335  0.2517
15927SOL    HW148914   5.636   7.891   1.699  2.9558  0.6395 -0.2818
15927SOL    HW248915   5.714   7.862   1.826  0.1238 -0.1339  1.3805
15928SOL     OW48916   7.948   1.998   1.764 -0.2925 -0.2658 -0.1578
15928SOL    HW148917   7.933   1.929   1.829  2.9272 -0.6034  0.3703
15928SOL    HW248918   7.927   1.956   1.680 -2.6070 -0.4198  0.4068
15929SOL     OW48919   7.438   3.590   1.891  0.2237 -0.3847  0.7646
15929SOL    HW148920   7.355   3.636   1.877  0.1259 -0.8996 -0.4516
15929SOL    HW248921   7.433   3.560   1.982 -0.2827  0.8345  1.1647
15930SOL     OW48922   5.333   6.451   5.828 -0.4808 -0.0257 -0.0169
15930SOL    HW148923   5.384   6.372   5.847 -0.3495  0.0433 -0.0852
15930SOL    HW248924   5.365   6.516   5.891 -1.1237 -0.2479  0.5582
15931SOL     OW48925   5.704   8.807   1.772 -0.1023  0.4069 -0.2757
15931SOL    HW148926   5.609   8.809   1.759 -0.4233  0.1219  1.6634
15931SOL    HW248927   5.741   8.792   1.685 -1.9587 -2.2611 -0.6993
15932SOL     OW48928   6.569   4.698   6.830 -0.3154 -0.1622  0.1907
15932SOL    HW148929   6.536   4.609   6.823 -2.3794  0.5920 -0.1396
15932SOL    HW248930   6.522   4.748   6.764 -0.3010  1.4759  1.3370
15933SOL     OW48931   0.394   2.239   4.550 -0.1205  0.0912 -0.1782
15933SOL    HW148932   0.424   2.172   4.611 -0.2430 -0.5088 -0.7695
15933SOL    HW248933   0.303   2.217   4.534 -0.2440  0.5802 -0.1445
15934SOL     OW48934   5.739   2.150   7.641 -0.1118 -0.1383  0.2602
15934SOL    HW148935   5.717   2.219   7.578 -0.1561 -0.4173 -0.0327
15934SOL    HW248936   5.668   2.153   7.706  0.4096  0.7540  0.8064
15935SOL     OW48937   8.562   7.746   7.887 -0.4490  0.5981  0.4814
15935SOL    HW148938   8.486   7.743   7.944 -0.8708 -2.4852 -0.0746
15935SOL    HW248939   8.526   7.759   7.799 -0.4367 -1.1402  0.1818
15936SOL     OW48940   2.568   1.585   5.274  0.6288 -0.0569 -0.2198
15936SOL    HW148941   2.476   1.613   5.275 -0.1969 -2.5077  1.0321
15936SOL    HW248942   2.605   1.625   5.353  0.0701 -0.6082  0.3406
15937SOL     OW48943   7.631   7.844   3.535  0.1781  0.4824  0.6124
15937SOL    HW148944   7.594   7.757   3.519 -1.1654  0.4055  3.5476
15937SOL    HW248945   7.718   7.826   3.570 -0.2466  0.2802  1.5836
15938SOL     OW48946   1.585   2.160   6.067 -0.2046 -0.1169  0.1224
15938SOL    HW148947   1.674   2.177   6.097 -0.0987  0.1840 -0.3710
15938SOL    HW248948   1.566   2.072   6.101  0.2365 -0.1430  0.3177
15939SOL     OW48949   1.098   4.398   3.070  0.3621 -0.3859 -0.0686
15939SOL    HW148950   1.170   4.368   3.014  0.1291 -0.9910 -0.0424
15939SOL    HW248951   1.100   4.494   3.061  1.1075 -0.3978 -0.1441
15940SOL     OW48952   5.873   2.572   7.978  0.2697  0.1221 -0.4975
15940SOL    HW148953   5.797   2.567   7.920  0.3867 -1.1394 -0.5602
15940SOL    HW248954   5.907   2.660   7.964 -1.2615  0.7754 -0.3505
15941SOL     OW48955   6.532   4.846   4.237 -0.2394  0.0553  0.0122
15941SOL    HW148956   6.606   4.858   4.296  0.6923  0.6604 -1.2367
15941SOL    HW248957   6.456   4.872   4.289  0.4647 -0.0670  1.1442
15942SOL     OW48958   7.422   9.026   8.248 -0.3078  0.4505  0.5409
15942SOL    HW148959   7.412   9.120   8.233 -2.2492 -0.0013 -1.6051
15942SOL    HW248960   7.504   9.018   8.297  0.8272  3.1542 -0.6861
15943SOL     OW48961   2.527   5.315   5.646  0.0649 -0.2093 -0.3609
15943SOL    HW148962   2.606   5.260   5.645  0.7075  0.6769 -0.2103
15943SOL    HW248963   2.560   5.402   5.669 -1.0573  0.0290  0.4028
15944SOL     OW48964   3.463   8.720   2.837  0.7610  0.3562 -0.6010
15944SOL    HW148965   3.535   8.707   2.899  0.7295 -0.8321 -0.7915
15944SOL    HW248966   3.505   8.717   2.751  0.6851  1.1772 -0.6774
15945SOL     OW48967   0.703   3.845   2.305  0.2763 -0.3313  0.3714
15945SOL    HW148968   0.764   3.817   2.373 -0.0951  1.5640  1.5574
15945SOL    HW248969   0.646   3.770   2.291 -0.1727 -0.5141  2.7873
15946SOL     OW48970   6.803   2.424   5.968  0.3897  0.3112  0.3148
15946SOL    HW148971   6.725   2.391   6.013 -0.0834 -2.4808 -2.2267
15946SOL    HW248972   6.820   2.509   6.009 -3.3012  0.5397  1.7813
15947SOL     OW48973   7.584   7.212   5.998  0.7284 -0.2262  0.3838
15947SOL    HW148974   7.496   7.186   6.024  1.3456 -1.2531  1.5607
15947SOL    HW248975   7.574   7.302   5.967 -1.1773 -1.1717 -2.0520
15948SOL     OW48976   5.512   1.470   2.863  0.1019  0.1603 -0.0121
15948SOL    HW148977   5.597   1.481   2.821  0.3770  1.9287  0.9062
15948SOL    HW248978   5.473   1.557   2.863 -0.3386  0.0557  2.3801
15949SOL     OW48979   0.236   2.595   8.799 -0.4627  0.0707 -0.7491
15949SOL    HW148980   0.279   2.661   8.745  0.5673  0.3685  0.3967
15949SOL    HW248981   0.247   2.513   8.751 -0.7180  0.5416 -1.6150
15950SOL     OW48982   8.849   2.746   5.894 -0.4852 -0.1681 -0.0091
15950SOL    HW148983   8.863   2.653   5.873 -0.4149 -0.0823 -0.3399
15950SOL    HW248984   8.914   2.765   5.961  1.4517  0.3793 -1.9432
15951SOL     OW48985   6.692   1.385   5.080  0.4763  1.0150 -0.2797
15951SOL    HW148986   6.777   1.380   5.036 -0.0018  0.2832 -1.1753
15951SOL    HW248987   6.628   1.386   5.008 -0.3649 -1.0485  0.3398
15952SOL     OW48988   6.845   8.582   5.625  0.0977 -0.2064 -0.1140
15952SOL    HW148989   6.893   8.505   5.595 -0.7061 -0.7067 -0.1505
15952SOL    HW248990   6.836   8.637   5.547  0.7557 -0.0279 -0.0662
15953SOL     OW48991   8.023   2.277   4.050 -0.0841 -0.1829  0.5287
15953SOL    HW148992   7.958   2.269   4.121 -0.2805  0.5685  0.4337
15953SOL    HW248993   8.107   2.268   4.094 -0.2390 -1.4424  0.6194
15954SOL     OW48994   1.765   5.755   2.452 -0.2985  0.1668 -0.0350
15954SOL    HW148995   1.746   5.736   2.544 -1.2180 -1.8705 -0.5882
15954SOL    HW248996   1.790   5.847   2.452 -2.9595  1.0313  1.8806
15955SOL     OW48997   3.744   4.904   1.979  0.1766  0.0144 -0.1052
15955SOL    HW148998   3.662   4.907   1.929  0.5039  1.2712 -0.6069
15955SOL    HW248999   3.720   4.864   2.062 -0.6801 -0.7971 -0.7215
15956SOL     OW49000   7.575   2.720   1.045 -0.0420 -0.5966 -0.0165
15956SOL    HW149001   7.614   2.649   0.994  0.2680  0.1954 -0.8985
15956SOL    HW249002   7.556   2.680   1.130  1.0860 -1.4754 -0.1458
15957SOL     OW49003   5.723   0.173   0.798  0.2197  0.4476  0.1383
15957SOL    HW149004   5.731   0.088   0.755 -1.2348  0.2910  0.1376
15957SOL    HW249005   5.629   0.187   0.807  0.4514  1.1058  2.0185
15958SOL     OW49006   5.086   5.844   1.739 -0.5138 -0.6262  0.1029
15958SOL    HW149007   5.032   5.917   1.707 -0.2076 -0.2982  0.3377
15958SOL    HW249008   5.023   5.784   1.779 -0.8188 -0.6959 -0.4673
15959SOL     OW49009   9.060   0.355   8.706  0.3921 -0.4532 -0.0211
15959SOL    HW149010   9.110   0.340   8.626 -0.4775 -2.3148 -0.2882
15959SOL    HW249011   9.125   0.356   8.776  1.0132 -0.5551 -0.5909
15960SOL     OW49012   4.006   8.455   9.096 -0.2470 -0.1286  0.4949
15960SOL    HW149013   4.024   8.546   9.073 -1.8116  0.4023  1.2406
15960SOL    HW249014   4.038   8.404   9.021  1.3627  0.9394  0.4048
15961SOL     OW49015   0.159   4.436   6.550  0.3220 -0.2458 -0.3450
15961SOL    HW149016   0.132   4.417   6.460 -0.0945 -1.6821  0.0608
15961SOL    HW249017   0.120   4.522   6.569 -0.0393 -0.1754 -1.3455
15962SOL     OW49018   6.091   5.808   2.296 -0.3753  0.3015 -0.7014
15962SOL    HW149019   6.112   5.901   2.311 -1.6427  0.4526  0.2996
15962SOL    HW249020   5.996   5.806   2.288 -0.4021 -0.9752 -0.2550
15963SOL     OW49021   8.105   5.495   0.216 -0.1072  0.2743 -0.4585
15963SOL    HW149022   8.033   5.431   0.220  0.2953 -0.1970 -0.6559
15963SOL    HW249023   8.148   5.487   0.301 -0.7660  1.1336 -0.0277
15964SOL     OW49024   4.982   5.941   2.761 -0.1925  0.5903 -0.0077
15964SOL    HW149025   4.932   5.863   2.784 -0.2173  0.5777 -0.1035
15964SOL    HW249026   4.920   5.996   2.713 -0.0168  0.4209 -0.4347
15965SOL     OW49027   5.280   6.135   3.770 -0.1124  0.4886 -0.1849
15965SOL    HW149028   5.231   6.053   3.777 -0.8831  0.6844 -2.4308
15965SOL    HW249029   5.263   6.180   3.852  0.8437 -1.8216  1.4067
15966SOL     OW49030   2.521   8.220   2.337 -0.7334 -0.0420 -0.3327
15966SOL    HW149031   2.439   8.262   2.311 -0.5130  0.3237 -0.4428
15966SOL    HW249032   2.558   8.185   2.256 -0.8759 -0.3828 -0.2534
15967SOL     OW49033   7.626   8.021   0.410 -0.2115  0.0730 -0.0148
15967SOL    HW149034   7.684   8.096   0.395 -0.5179  0.5192  0.9522
15967SOL    HW249035   7.539   8.060   0.421 -0.5495 -0.5167 -0.5696
15968SOL     OW49036   4.707   3.229   7.100 -0.0510  0.0177  0.3424
15968SOL    HW149037   4.697   3.165   7.029  0.0030 -0.0970  0.4365
15968SOL    HW249038   4.792   3.207   7.139 -0.1947 -0.0836  0.6029
15969SOL     OW49039   5.029   3.125   4.363  0.2226 -0.0203 -0.0882
15969SOL    HW149040   4.977   3.077   4.298 -1.0657 -0.2703  1.0671
15969SOL    HW249041   5.041   3.212   4.326  0.7257 -0.5648 -1.2609
15970SOL     OW49042   5.590   8.203   7.547  0.0397  0.3625  0.7632
15970SOL    HW149043   5.496   8.215   7.562  0.0298  2.0829 -0.4126
15970SOL    HW249044   5.629   8.286   7.573  0.8850  0.6918 -1.3899
15971SOL     OW49045   7.945   1.756   5.223 -0.0074 -0.2068 -0.2048
15971SOL    HW149046   7.967   1.667   5.252 -0.3104 -1.1258 -2.5808
15971SOL    HW249047   8.022   1.785   5.173  0.0101  0.8133  0.3851
15972SOL     OW49048   4.556   6.303   2.813  0.0614  0.2922 -0.2870
15972SOL    HW149049   4.537   6.213   2.837 -0.4480  0.7548  1.1479
15972SOL    HW249050   4.637   6.324   2.860 -0.7781  1.1121  0.8627
15973SOL     OW49051   3.629   5.852   7.375 -0.6446 -0.0206  0.0295
15973SOL    HW149052   3.658   5.931   7.420 -0.1398  0.5973 -1.3226
15973SOL    HW249053   3.707   5.796   7.372  0.1733  1.1100 -2.4751
15974SOL     OW49054   3.437   9.051   4.044  0.5560 -0.3315  0.4934
15974SOL    HW149055   3.530   9.029   4.049  0.9340  1.0211 -0.1610
15974SOL    HW249056   3.396   8.970   4.013  1.3854 -1.1870  1.5246
15975SOL     OW49057   7.451   6.020   2.720 -0.4894  0.4321  0.4513
15975SOL    HW149058   7.453   5.932   2.683  0.1624  0.4629  0.3975
15975SOL    HW249059   7.358   6.037   2.737 -0.9902  0.8225 -2.1346
15976SOL     OW49060   8.067   7.984   7.558 -0.3048  0.5001 -0.6694
15976SOL    HW149061   8.117   7.914   7.516  0.6614 -0.1744  1.4723
15976SOL    HW249062   8.001   7.938   7.610 -1.1605  1.2922 -1.0216
15977SOL     OW49063   6.400   5.075   8.276  0.3586 -0.3035  0.4475
15977SOL    HW149064   6.396   4.989   8.233 -0.2564 -0.1963  0.2923
15977SOL    HW249065   6.459   5.126   8.220 -0.9894  0.0633 -0.6884
15978SOL     OW49066   8.565   5.940   3.806 -0.8921  0.0642  0.5754
15978SOL    HW149067   8.519   5.971   3.728 -0.6341 -0.6148  0.1454
15978SOL    HW249068   8.565   5.845   3.798  1.4006  0.0281  0.0594
15979SOL     OW49069   9.063   5.017   4.365  0.4189  0.4339  0.1027
15979SOL    HW149070   8.985   4.972   4.398  1.0036  0.2697  1.3210
15979SOL    HW249071   9.045   5.031   4.272 -0.2824 -1.2629 -0.0541
15980SOL     OW49072   7.227   2.078   5.292 -0.1511  0.4522  0.0766
15980SOL    HW149073   7.192   2.156   5.335 -1.1150 -0.4603  1.0270
15980SOL    HW249074   7.229   2.012   5.361 -0.5736 -0.7254 -0.9954
15981SOL     OW49075   1.651   1.941   2.022  0.9746  0.4223 -0.4962
15981SOL    HW149076   1.741   1.934   2.053  0.8304  1.2763  0.1786
15981SOL    HW249077   1.657   1.997   1.944  1.2947 -1.4399 -1.8590
15982SOL     OW49078   3.517   4.245   2.136  0.3284 -0.6305  0.2591
15982SOL    HW149079   3.535   4.294   2.055 -0.3679  1.8039  1.4993
15982SOL    HW249080   3.598   4.253   2.187 -0.1873  0.2877  0.9587
15983SOL     OW49081   8.227   3.472   1.480  0.1030 -0.1756 -0.0773
15983SOL    HW149082   8.225   3.546   1.541  3.6859  0.1440 -0.1638
15983SOL    HW249083   8.233   3.395   1.537 -0.5634 -0.2104 -0.0383
15984SOL     OW49084   0.207   0.307   7.565  0.3061 -0.4145  0.2242
15984SOL    HW149085   0.227   0.215   7.582 -0.4598 -0.3977  1.3601
15984SOL    HW249086   0.120   0.306   7.526  0.4099 -0.1826 -0.0170
15985SOL     OW49087   1.897   8.969   3.077 -0.1925  0.7450 -0.1285
15985SOL    HW149088   1.964   9.036   3.093  1.4015 -1.0215  0.9748
15985SOL    HW249089   1.946   8.891   3.052 -1.9643 -0.2115 -0.7874
15986SOL     OW49090   7.897   8.236   2.123  0.2239  0.4287  0.0521
15986SOL    HW149091   7.812   8.280   2.119 -0.8707 -1.4646  0.9676
15986SOL    HW249092   7.918   8.218   2.031  0.4209  2.2355 -0.2971
15987SOL     OW49093   2.758   4.643   7.760  0.2531 -0.7898  0.0571
15987SOL    HW149094   2.755   4.727   7.806  2.1904 -1.0787  0.8098
15987SOL    HW249095   2.694   4.652   7.690 -1.3226  0.4329  1.5448
15988SOL     OW49096   8.401   2.700   2.918 -0.2537  0.0432 -0.2637
15988SOL    HW149097   8.392   2.661   3.005  0.0370  1.9722  0.6912
15988SOL    HW249098   8.319   2.748   2.905  0.4342  1.2666 -0.2233
15989SOL     OW49099   2.023   8.590   4.862 -0.1538 -0.5100 -0.9365
15989SOL    HW149100   2.047   8.646   4.934 -0.2240 -0.6050 -0.8382
15989SOL    HW249101   2.086   8.518   4.864 -1.0851 -1.3395 -0.0043
15990SOL     OW49102   5.357   0.132   1.861  0.1255 -0.6503 -0.2545
15990SOL    HW149103   5.263   0.151   1.869  0.4389  1.1320 -0.3962
15990SOL    HW249104   5.397   0.177   1.934  1.0275 -0.1603 -1.0253
15991SOL     OW49105   2.504   6.409   5.544  0.3976  0.2978  0.2761
15991SOL    HW149106   2.408   6.410   5.535  0.4589  1.5606 -0.4366
15991SOL    HW249107   2.531   6.326   5.505 -0.3276  0.4576 -0.5971
15992SOL     OW49108   2.751   1.795   1.826 -0.3215  0.0506 -0.0278
15992SOL    HW149109   2.808   1.785   1.750 -0.3439  0.8451 -0.1632
15992SOL    HW249110   2.680   1.852   1.795 -1.0766 -0.7442  0.1983
15993SOL     OW49111   0.089   8.401   6.812  0.7088  0.5598  0.1993
15993SOL    HW149112   0.035   8.472   6.845  0.2332  0.0474  0.5523
15993SOL    HW249113   0.171   8.409   6.859  1.5081  2.2162 -1.3693
15994SOL     OW49114   8.356   6.877   8.138 -0.5309 -0.6174 -0.3516
15994SOL    HW149115   8.401   6.917   8.063  0.6317  0.1254  0.7101
15994SOL    HW249116   8.372   6.783   8.128  1.8486 -0.3416  0.3108
15995SOL     OW49117   8.965   1.359   7.741 -0.1977 -0.0363  0.1493
15995SOL    HW149118   9.058   1.372   7.723 -0.0788 -0.2385  0.6033
15995SOL    HW249119   8.924   1.355   7.654  0.5266 -2.2882 -0.1680
15996SOL     OW49120   6.698   1.124   5.763 -0.0888 -0.3184  0.5125
15996SOL    HW149121   6.693   1.101   5.856  0.0061 -0.6344  0.4405
15996SOL    HW249122   6.731   1.214   5.762 -0.8086 -0.0460  0.8119
15997SOL     OW49123   2.599   1.836   7.867  0.1835  0.5397 -0.3011
15997SOL    HW149124   2.520   1.822   7.918  2.0224 -0.6802  2.4777
15997SOL    HW249125   2.632   1.921   7.895  0.2215  0.7309 -0.9107
15998SOL     OW49126   8.120   4.897   2.055  0.1051 -0.1941  0.0715
15998SOL    HW149127   8.125   4.976   2.109 -0.0653 -0.5898  0.6686
15998SOL    HW249128   8.067   4.836   2.106 -0.0275 -0.5867 -0.5271
15999SOL     OW49129   2.483   5.388   0.621  0.0806  0.2340  0.5935
15999SOL    HW149130   2.416   5.321   0.638 -0.8690  0.6893 -1.1923
15999SOL    HW249131   2.557   5.339   0.585 -1.4555  0.2640 -2.9699
16000SOL     OW49132   1.695   5.146   4.671 -0.1209 -0.1524 -0.1588
16000SOL    HW149133   1.625   5.108   4.618 -1.4840  0.5134  1.1058
16000SOL    HW249134   1.750   5.072   4.696 -1.1094 -0.8695 -0.0832
16001SOL     OW49135   8.268   4.720   7.461 -0.6942 -0.5542 -0.2415
16001SOL    HW149136   8.297   4.778   7.532  0.2988 -1.5851  0.2426
16001SOL    HW249137   8.176   4.703   7.480 -1.4209  1.9652 -1.1983
16002SOL     OW49138   0.776   5.519   7.991  0.5023  0.7691  0.2774
16002SOL    HW149139   0.734   5.446   7.945 -0.6316  1.3770  0.3007
16002SOL    HW249140   0.740   5.514   8.080 -0.7222  2.1802 -0.0932
16003SOL     OW49141   7.049   2.720   4.705  0.2836  0.8704  0.3898
16003SOL    HW149142   6.969   2.668   4.707  0.3876  0.6233  3.6722
16003SOL    HW249143   7.119   2.657   4.720  1.1085  1.1947 -1.7150
16004SOL     OW49144   3.797   1.596   1.466  0.1417  0.0317 -0.1091
16004SOL    HW149145   3.870   1.609   1.527 -0.4388  0.1132  0.5975
16004SOL    HW249146   3.728   1.556   1.520 -0.3923  0.1202 -0.7120
16005SOL     OW49147   2.481   8.734   4.278 -0.2864  0.6601 -0.1643
16005SOL    HW149148   2.420   8.690   4.218  1.2936 -2.1678  0.0969
16005SOL    HW249149   2.546   8.774   4.220  0.6030 -1.0803 -0.4309
16006SOL     OW49150   0.338   8.396   1.931 -0.4872  0.1515 -0.1570
16006SOL    HW149151   0.421   8.443   1.936 -0.0561 -0.7115  1.4723
16006SOL    HW249152   0.362   8.304   1.941 -1.5807 -0.1728 -0.3851
16007SOL     OW49153   2.996   3.230   0.054  0.3760 -0.1891 -0.2199
16007SOL    HW149154   2.930   3.239   0.123 -0.4336 -0.0336 -1.0055
16007SOL    HW249155   3.025   3.139   0.061  0.0114 -0.2845  0.0688
16008SOL     OW49156   1.395   0.700   5.905 -0.0356  0.3041 -0.1672
16008SOL    HW149157   1.324   0.736   5.957 -1.0220  0.3899 -1.5279
16008SOL    HW249158   1.353   0.671   5.824  1.2430 -0.9993 -0.3984
16009SOL     OW49159   4.436   4.390   7.695 -0.5663  0.3921  0.0217
16009SOL    HW149160   4.372   4.398   7.766 -1.7405 -1.8079 -0.6687
16009SOL    HW249161   4.410   4.456   7.632 -2.1462 -0.3577 -0.1728
16010SOL     OW49162   0.289   1.971   0.942 -0.0990  0.4427  0.2281
16010SOL    HW149163   0.311   1.979   0.850 -1.1498 -1.2151 -0.2168
16010SOL    HW249164   0.228   2.043   0.959 -0.3597  0.4074 -0.5457
16011SOL     OW49165   8.404   3.156   6.783  0.6334 -0.7427  0.0431
16011SOL    HW149166   8.462   3.216   6.829 -0.7013  0.9304 -0.3396
16011SOL    HW249167   8.448   3.137   6.701  0.5820  0.6763 -0.3355
16012SOL     OW49168   1.699   5.888   1.138  0.3758  0.3385  0.5897
16012SOL    HW149169   1.687   5.857   1.048 -2.2003  2.1288  0.2042
16012SOL    HW249170   1.777   5.942   1.135  1.9186 -1.7952  0.1239
16013SOL     OW49171   1.176   5.369   4.268  0.4734 -0.2460 -0.0851
16013SOL    HW149172   1.190   5.344   4.359 -0.7050  2.4671  0.9613
16013SOL    HW249173   1.106   5.312   4.237 -1.0799  0.6147  1.6720
16014SOL     OW49174   2.817   3.594   7.450  0.1441  0.2191  0.0958
16014SOL    HW149175   2.839   3.506   7.481 -1.7425 -0.6355 -0.7891
16014SOL    HW249176   2.795   3.643   7.529 -0.1172 -0.5297  0.4966
16015SOL     OW49177   1.266   6.616   7.293  0.0761  0.5462  0.9413
16015SOL    HW149178   1.231   6.545   7.239 -2.8057 -0.4743  3.8306
16015SOL    HW249179   1.279   6.688   7.231  1.4331 -1.8518 -1.7927
16016SOL     OW49180   2.138   4.287   1.686  0.5570 -0.0625 -0.2259
16016SOL    HW149181   2.220   4.337   1.692  0.2102  0.6349 -1.1050
16016SOL    HW249182   2.126   4.272   1.592 -1.3822  1.6746 -0.3146
16017SOL     OW49183   3.032   6.247   8.514 -0.6843 -0.0547 -0.1570
16017SOL    HW149184   3.082   6.327   8.531 -3.1216  1.8837 -1.3873
16017SOL    HW249185   3.047   6.228   8.421 -1.1694 -0.2074 -0.2093
16018SOL     OW49186   0.804   5.632   1.758 -0.1218 -0.7048  0.5672
16018SOL    HW149187   0.893   5.643   1.724 -0.5898  2.4039  0.0434
16018SOL    HW249188   0.753   5.604   1.682 -0.1032  0.5378  0.0707
16019SOL     OW49189   2.280   4.718   2.123  0.0733 -0.1481 -0.0710
16019SOL    HW149190   2.347   4.656   2.151  0.4279  0.0974 -0.3640
16019SOL    HW249191   2.254   4.763   2.204  1.7395  1.1963 -0.2189
16020SOL     OW49192   6.331   2.088   8.966  0.1751  0.0332 -0.2259
16020SOL    HW149193   6.422   2.064   8.981  0.3826 -0.6438 -2.2848
16020SOL    HW249194   6.310   2.052   8.880 -1.9094  0.5655 -0.0070
16021SOL     OW49195   6.124   4.712   2.800  0.1468  0.3244 -0.1847
16021SOL    HW149196   6.186   4.705   2.728 -2.8675  1.5640 -3.1651
16021SOL    HW249197   6.071   4.633   2.794 -1.5657  1.4730 -0.8764
16022SOL     OW49198   4.523   9.038   5.224  0.5805  0.2484  0.3628
16022SOL    HW149199   4.532   9.125   5.262  1.1834  0.7993 -0.9738
16022SOL    HW249200   4.488   8.984   5.294 -2.6497  2.1829  0.4199
16023SOL     OW49201   7.410   1.427   7.088 -0.5627 -0.5804  0.3545
16023SOL    HW149202   7.449   1.391   7.008 -0.4825 -0.6228  0.4123
16023SOL    HW249203   7.438   1.368   7.157 -1.7038 -1.2804  0.2363
16024SOL     OW49204   2.509   7.620   0.844  0.0193 -0.4280 -0.4077
16024SOL    HW149205   2.517   7.641   0.752 -0.6090 -0.0187 -0.3743
16024SOL    HW249206   2.440   7.553   0.847  0.6906 -1.1193 -0.3282
16025SOL     OW49207   3.077   4.691   9.011 -0.4565 -0.1088  0.4832
16025SOL    HW149208   3.030   4.676   8.929 -2.0529  0.3874  1.2795
16025SOL    HW249209   3.084   4.605   9.051  0.5048 -0.3876 -0.2279
16026SOL     OW49210   2.171   0.819   5.956 -0.4681 -0.3395 -0.1365
16026SOL    HW149211   2.157   0.911   5.978  1.4038 -0.0022 -0.1154
16026SOL    HW249212   2.153   0.813   5.862  0.3318  0.2887 -0.3416
16027SOL     OW49213   2.578   3.554   5.648  0.3824 -0.6243  0.4751
16027SOL    HW149214   2.650   3.496   5.671  1.6361  0.4948 -0.4989
16027SOL    HW249215   2.594   3.578   5.557 -1.6795 -0.9707 -0.0284
16028SOL     OW49216   3.411   5.031   2.349 -0.0302  0.2115 -0.3082
16028SOL    HW149217   3.385   4.954   2.299  0.4987 -0.2714  0.1369
16028SOL    HW249218   3.369   5.021   2.434 -0.2102  0.5734 -0.3518
16029SOL     OW49219   1.677   6.615   0.452  0.1144 -0.0378  0.8865
16029SOL    HW149220   1.762   6.627   0.410 -0.3384  2.5122  0.5495
16029SOL    HW249221   1.695   6.619   0.546  0.4655 -0.3666  0.8355
16030SOL     OW49222   0.419   6.594   1.541 -0.2242 -0.0602 -0.3250
16030SOL    HW149223   0.356   6.556   1.479  0.7765  0.1166 -1.5069
16030SOL    HW249224   0.479   6.644   1.485  0.6589  0.1927  0.8210
16031SOL     OW49225   0.308   7.310   1.811 -0.6595 -0.3365  0.3856
16031SOL    HW149226   0.381   7.338   1.867  2.2882 -0.8453 -2.8084
16031SOL    HW249227   0.282   7.390   1.765 -1.7781 -0.2676  1.1233
16032SOL     OW49228   8.805   3.768   0.183  0.7973  0.3065  0.4860
16032SOL    HW149229   8.728   3.823   0.168  0.8968 -0.0261 -1.5461
16032SOL    HW249230   8.775   3.704   0.248  0.3826  2.0830  2.1266
16033SOL     OW49231   8.842   8.868   0.648 -0.4948  0.0007 -0.4652
16033SOL    HW149232   8.828   8.792   0.592 -0.4610 -0.7693  0.5464
16033SOL    HW249233   8.864   8.939   0.588 -1.0482 -0.6621 -1.4591
16034SOL     OW49234   1.355   7.849   1.961 -0.2023  0.4102  0.1797
16034SOL    HW149235   1.435   7.856   1.909 -0.3601 -0.3989 -0.1955
16034SOL    HW249236   1.376   7.892   2.043 -0.0341  1.9453 -0.6384
16035SOL     OW49237   3.067   3.691   1.714 -0.1279 -1.0120 -0.5198
16035SOL    HW149238   3.108   3.647   1.639  3.7805 -0.6690  1.2231
16035SOL    HW249239   3.140   3.722   1.767 -2.7198  2.1071  1.5761
16036SOL     OW49240   8.880   3.975   5.971  0.2818 -0.4765  0.4116
16036SOL    HW149241   8.906   3.890   5.936 -2.3946 -1.1210 -0.2514
16036SOL    HW249242   8.915   3.976   6.060  0.1345 -2.4142  0.5363
16037SOL     OW49243   6.253   8.413   5.612  0.7387  0.0764 -0.4007
16037SOL    HW149244   6.245   8.507   5.630  1.2710  0.1426 -0.4966
16037SOL    HW249245   6.183   8.373   5.663 -1.1343  0.7343 -2.2918
16038SOL     OW49246   1.163   7.777   8.644  0.3980 -0.0710  0.4100
16038SOL    HW149247   1.247   7.748   8.678 -0.5069 -1.0766  1.8809
16038SOL    HW249248   1.125   7.700   8.602  0.6897  0.6833 -1.3652
16039SOL     OW49249   1.367   1.079   2.981  0.1891  0.1908 -0.4024
16039SOL    HW149250   1.326   1.163   3.001  1.7038  0.3017  3.0092
16039SOL    HW249251   1.294   1.019   2.968 -1.2053  0.8819  3.0291
16040SOL     OW49252   8.291   5.492   6.072 -0.5661  0.3376 -0.2552
16040SOL    HW149253   8.236   5.550   6.125 -0.0376 -0.6995  1.5165
16040SOL    HW249254   8.229   5.437   6.024 -1.1590 -0.9069  1.8179
16041SOL     OW49255   7.741   2.093   2.958  1.0624 -0.5327 -0.0149
16041SOL    HW149256   7.792   2.168   2.928  0.0791  0.3475  0.4352
16041SOL    HW249257   7.708   2.053   2.878  0.3976  0.3986 -0.2205
16042SOL     OW49258   8.221   2.477   9.112 -0.3960 -0.0826 -0.2520
16042SOL    HW149259   8.277   2.546   9.146 -1.6987  0.5095  0.7384
16042SOL    HW249260   8.282   2.418   9.066  0.8323  1.2812 -0.4513
16043SOL     OW49261   5.155   0.839   2.567 -0.0110 -0.4879 -0.2401
16043SOL    HW149262   5.186   0.905   2.629  2.6409 -1.5252 -0.3172
16043SOL    HW249263   5.152   0.758   2.618  1.6142 -1.2355 -1.2605
16044SOL     OW49264   7.167   6.749   5.965 -0.2454 -0.0331 -0.0728
16044SOL    HW149265   7.123   6.700   5.896  0.0144  0.2718 -0.4573
16044SOL    HW249266   7.238   6.794   5.921 -0.1912  0.3156  0.3633
16045SOL     OW49267   1.443   5.619   7.355 -0.1145  0.2733  0.0374
16045SOL    HW149268   1.408   5.629   7.443 -3.1385 -0.4939 -0.9739
16045SOL    HW249269   1.463   5.526   7.347 -1.3138  0.0460 -0.5410
16046SOL     OW49270   8.316   4.044   2.329  0.4168 -0.3875 -0.0116
16046SOL    HW149271   8.262   3.974   2.367  0.1516 -0.6293 -0.8025
16046SOL    HW249272   8.277   4.060   2.243  2.1990 -1.3005 -1.0688
16047SOL     OW49273   4.583   8.640   2.552  0.1551  0.1718  0.0652
16047SOL    HW149274   4.514   8.707   2.554 -0.7284 -0.7148  1.7758
16047SOL    HW249275   4.632   8.659   2.472 -2.8784  0.0691 -2.0166
16048SOL     OW49276   3.972   0.230   5.521 -0.1312  0.5397 -0.1478
16048SOL    HW149277   3.884   0.251   5.492 -0.4575 -0.6483 -0.0432
16048SOL    HW249278   3.962   0.198   5.610  0.5539  1.5073  0.3033
16049SOL     OW49279   5.030   8.281   1.265  0.1183 -0.5584  0.4239
16049SOL    HW149280   5.054   8.363   1.221 -1.9753  0.0778  0.3758
16049SOL    HW249281   5.058   8.294   1.356  1.3498 -0.4952  0.0478
16050SOL     OW49282   0.147   8.290   0.235  0.4436  0.6374  0.4211
16050SOL    HW149283   0.227   8.342   0.248  0.1920  0.9821  0.6333
16050SOL    HW249284   0.089   8.319   0.305  0.7841 -0.9128  1.3928
16051SOL     OW49285   3.777   2.802   2.707 -0.2775  0.0455  0.2838
16051SOL    HW149286   3.869   2.810   2.733 -0.4407  0.0212  0.8847
16051SOL    HW249287   3.736   2.882   2.738 -0.1421  0.8379 -1.4543
16052SOL     OW49288   6.440   3.338   5.528 -0.0876  0.2068 -0.1405
16052SOL    HW149289   6.393   3.278   5.586 -0.8345 -1.0826 -2.0138
16052SOL    HW249290   6.383   3.415   5.522  0.1210  0.4774  0.9811
16053SOL     OW49291   7.543   5.425   6.891  0.0816  0.4125  0.0831
16053SOL    HW149292   7.533   5.501   6.948 -0.9899  1.5843 -1.5664
16053SOL    HW249293   7.468   5.370   6.910  1.0921 -0.5059  1.5983
16054SOL     OW49294   0.724   4.899   6.130 -0.4869 -0.4545 -0.8957
16054SOL    HW149295   0.699   4.987   6.159 -1.1968 -0.8860 -0.1725
16054SOL    HW249296   0.728   4.906   6.034 -0.4222  0.3911 -0.8409
16055SOL     OW49297   4.929   4.595   0.726  0.4210  0.1469  0.2767
16055SOL    HW149298   4.974   4.679   0.726  0.8550 -0.0783 -0.1486
16055SOL    HW249299   4.996   4.532   0.702 -0.0433 -0.2412 -0.0233
16056SOL     OW49300   2.627   3.646   1.938 -0.4064  0.5240  0.3202
16056SOL    HW149301   2.574   3.628   1.860 -0.7031 -0.4463  0.7219
16056SOL    HW249302   2.683   3.719   1.913 -0.9379  0.6410 -0.5908
16057SOL     OW49303   8.927   3.953   8.320 -0.2902  0.2161  0.3426
16057SOL    HW149304   8.949   3.877   8.375 -0.6058  1.3244  2.0939
16057SOL    HW249305   9.011   3.985   8.289 -0.1077 -0.4894  0.0838
16058SOL     OW49306   8.343   1.058   6.541  0.1469 -0.2220  0.5879
16058SOL    HW149307   8.319   0.968   6.517  1.3995 -0.4566  0.1542
16058SOL    HW249308   8.343   1.057   6.637  0.1979 -0.6916  0.5879
16059SOL     OW49309   4.199   6.102   2.857  0.0441  0.8455  0.3699
16059SOL    HW149310   4.228   6.027   2.804 -0.7616  1.7410 -1.4075
16059SOL    HW249311   4.132   6.065   2.915 -1.7955  0.4853 -1.8439
16060SOL     OW49312   3.911   7.205   4.424  0.5104  0.2864 -0.0090
16060SOL    HW149313   3.959   7.283   4.394  0.6208  1.1311  2.1698
16060SOL    HW249314   3.876   7.230   4.510 -1.2791 -1.3628 -0.1881
16061SOL     OW49315   7.814   8.785   1.583 -0.0363 -0.2516 -1.0101
16061SOL    HW149316   7.840   8.835   1.661  1.0883  2.0713 -2.7393
16061SOL    HW249317   7.719   8.777   1.590 -0.3488  2.5490 -0.7656
16062SOL     OW49318   8.248   6.437   6.910  0.4236 -0.1198 -0.3282
16062SOL    HW149319   8.153   6.450   6.899  0.7546  1.5483 -1.7677
16062SOL    HW249320   8.261   6.344   6.894 -1.1590 -0.7480  1.6378
16063SOL     OW49321   2.805   3.530   6.976  0.5316  0.2754  0.1416
16063SOL    HW149322   2.769   3.576   6.900  0.4380 -1.6979 -1.0638
16063SOL    HW249323   2.729   3.494   7.021  0.6597  0.5978  0.6276
16064SOL     OW49324   1.209   5.161   8.966  0.1963 -0.3833 -0.4267
16064SOL    HW149325   1.115   5.143   8.968  0.4437 -1.7354  1.9803
16064SOL    HW249326   1.219   5.243   9.015  0.1393  0.9460 -2.4923
16065SOL     OW49327   3.622   1.190   8.894  0.4630 -0.3929 -0.1551
16065SOL    HW149328   3.547   1.228   8.940  0.5732  2.5733 -2.1555
16065SOL    HW249329   3.687   1.175   8.963 -0.5724  0.6236  1.0931
16066SOL     OW49330   1.489   2.829   6.242 -0.0335  0.2695  0.4629
16066SOL    HW149331   1.402   2.789   6.237 -0.0330  0.3743 -1.0203
16066SOL    HW249332   1.517   2.835   6.150  1.4188  0.4973  0.8972
16067SOL     OW49333   4.178   7.822   7.389 -0.1417  0.2963 -0.4404
16067SOL    HW149334   4.220   7.754   7.442  0.9096  0.9001 -0.4774
16067SOL    HW249335   4.085   7.814   7.411  0.3048  0.9391  2.0145
16068SOL     OW49336   3.964   7.932   0.919  0.2845  0.2525  0.4789
16068SOL    HW149337   4.015   7.878   0.859  0.2794 -0.3795  1.0375
16068SOL    HW249338   4.028   7.992   0.958  0.5826 -0.4273  1.0557
16069SOL     OW49339   1.477   2.458   1.039  0.1855 -0.0958 -0.3453
16069SOL    HW149340   1.405   2.514   1.011 -0.4936 -1.3414 -1.1967
16069SOL    HW249341   1.500   2.408   0.960  1.2510 -0.4945  0.1975
16070SOL     OW49342   7.920   1.847   4.056  0.1936 -0.4851  0.1070
16070SOL    HW149343   7.932   1.761   4.015 -1.6732 -0.2152 -1.0913
16070SOL    HW249344   7.828   1.849   4.082 -0.0579  1.5019 -0.7443
16071SOL     OW49345   5.729   8.861   5.142 -0.2509 -0.1948 -0.8080
16071SOL    HW149346   5.704   8.813   5.221  0.8319  1.7918  0.8435
16071SOL    HW249347   5.656   8.846   5.081 -1.6792 -0.8805  0.9702
16072SOL     OW49348   3.899   5.776   1.924 -0.2271  0.6778  0.4685
16072SOL    HW149349   3.873   5.685   1.909  0.6508  0.4778  0.1301
16072SOL    HW249350   3.884   5.819   1.839 -0.1394  0.7335  0.4819
16073SOL     OW49351   8.304   4.038   5.233 -0.1606  0.3557  0.2109
16073SOL    HW149352   8.227   4.045   5.291 -0.0089  1.5762  0.2956
16073SOL    HW249353   8.283   4.095   5.159  0.9995  1.3807  0.6359
16074SOL     OW49354   8.487   8.265   4.002 -1.2110  0.3043  0.3662
16074SOL    HW149355   8.410   8.322   3.994 -0.7731  1.0195  1.1188
16074SOL    HW249356   8.541   8.307   4.069 -1.4848 -1.6887  1.9361
16075SOL     OW49357   6.832   0.039   8.389 -0.4377  0.0352 -0.1318
16075SOL    HW149358   6.899   0.043   8.321 -0.7147 -1.4156 -0.5138
16075SOL    HW249359   6.831  -0.052   8.418 -3.2525 -0.3709 -1.1826
16076SOL     OW49360   5.407   1.722   3.276 -0.5966 -0.1176  0.5646
16076SOL    HW149361   5.344   1.732   3.205  0.6101  1.5290 -0.3648
16076SOL    HW249362   5.457   1.643   3.253 -0.4367  0.2147 -0.2476
16077SOL     OW49363   1.273   0.737   2.692  0.4555 -0.6230  0.0833
16077SOL    HW149364   1.295   0.739   2.786  3.0760  2.5643 -0.3964
16077SOL    HW249365   1.358   0.733   2.648 -0.7158 -2.0378 -2.2154
16078SOL     OW49366   1.101   6.309   6.645 -0.1806  0.0600 -0.0977
16078SOL    HW149367   1.187   6.341   6.614 -0.3078  1.2326  0.6855
16078SOL    HW249368   1.038   6.353   6.588 -0.2893 -0.3703 -0.3124
16079SOL     OW49369   8.000   8.979   8.680  0.0824  0.0082 -0.6153
16079SOL    HW149370   7.956   8.939   8.605  1.2287 -0.3762 -1.1162
16079SOL    HW249371   8.078   8.925   8.694 -0.1173  0.0552  0.8885
16080SOL     OW49372   2.937   6.828   2.627  0.7148 -0.0607  0.5366
16080SOL    HW149373   2.971   6.888   2.560 -1.7716  0.9717  0.1100
16080SOL    HW249374   2.882   6.767   2.579  0.6748 -0.7120  1.3931
16081SOL     OW49375   7.753   1.936   7.583  0.1010  0.2931  0.7109
16081SOL    HW149376   7.715   2.023   7.568 -1.0227 -0.4554 -1.0102
16081SOL    HW249377   7.725   1.884   7.508  2.4279 -1.0365  0.6867
16082SOL     OW49378   1.208   6.932   0.451  0.3269 -0.2359  0.6533
16082SOL    HW149379   1.119   6.909   0.480 -0.3745  0.3840 -0.8882
16082SOL    HW249380   1.242   6.851   0.412 -0.0315 -0.1652  0.1806
16083SOL     OW49381   3.412   7.335   4.209  0.4440 -0.3217 -1.0126
16083SOL    HW149382   3.388   7.399   4.276  0.5704  0.9764 -2.1695
16083SOL    HW249383   3.330   7.312   4.167  0.4715 -0.5251 -0.9584
16084SOL     OW49384   8.828   4.650   4.850 -0.2127  0.1342  0.3650
16084SOL    HW149385   8.846   4.620   4.761  1.3633  0.0543  0.6853
16084SOL    HW249386   8.770   4.726   4.839  1.7710  1.5547 -0.8798
16085SOL     OW49387   6.288   1.674   8.197 -0.7836 -0.1432 -0.2815
16085SOL    HW149388   6.218   1.610   8.186 -2.0631  1.0134  0.6670
16085SOL    HW249389   6.346   1.635   8.262 -0.9700 -0.7934 -0.4980
16086SOL     OW49390   6.274   3.302   4.788 -0.1381 -0.1542  0.5109
16086SOL    HW149391   6.252   3.350   4.709  1.4698 -0.6241 -0.2761
16086SOL    HW249392   6.210   3.231   4.793  0.4115 -0.8066 -1.0412
16087SOL     OW49393   3.552   1.439   0.796 -0.1694  0.3433  0.3001
16087SOL    HW149394   3.480   1.486   0.754 -0.0754  0.2761  0.0632
16087SOL    HW249395   3.540   1.348   0.770  0.3917  0.4329 -0.3092
16088SOL     OW49396   7.906   4.268   5.436  0.0564  0.5503 -0.1831
16088SOL    HW149397   7.922   4.347   5.385  2.5206  0.1350 -0.1543
16088SOL    HW249398   7.943   4.197   5.384  0.8639 -0.1286  1.2627
16089SOL     OW49399   3.443   0.714   7.805  0.6180 -0.1033  0.2999
16089SOL    HW149400   3.516   0.665   7.842  1.9547  1.8010  0.3419
16089SOL    HW249401   3.402   0.653   7.743  2.3758 -1.1741  0.1123
16090SOL     OW49402   0.895   3.954   5.568  0.6969  0.1597 -0.0109
16090SOL    HW149403   0.803   3.966   5.590  0.8362  0.9475  0.1636
16090SOL    HW249404   0.920   4.033   5.521  0.9227 -0.6703 -1.3517
16091SOL     OW49405   1.221   9.111   4.492 -0.2372 -0.6327 -0.9556
16091SOL    HW149406   1.284   9.065   4.547 -0.2178  0.2219 -0.2442
16091SOL    HW249407   1.139   9.063   4.504 -0.3730 -0.1297  0.2795
16092SOL     OW49408   8.525   3.947   7.989  0.6606  0.0379 -0.3345
16092SOL    HW149409   8.460   4.015   8.009 -0.8122 -0.9743 -1.4367
16092SOL    HW249410   8.584   3.948   8.064  1.3325  3.2334 -0.7517
16093SOL     OW49411   7.978   6.131   2.691 -0.1450  0.2812 -0.1916
16093SOL    HW149412   7.973   6.068   2.763 -1.6989  0.9708  0.3450
16093SOL    HW249413   7.893   6.128   2.649  0.4218  0.6011 -1.4139
16094SOL     OW49414   2.624   4.057   4.968  0.1267 -0.1983 -0.4208
16094SOL    HW149415   2.531   4.039   4.961  0.2964 -1.0776 -0.4718
16094SOL    HW249416   2.632   4.151   4.948 -0.7423 -0.1063 -0.3571
16095SOL     OW49417   6.034   3.274   2.572 -0.5222  0.0574  0.0085
16095SOL    HW149418   5.993   3.195   2.607  0.4154 -0.0091  1.0196
16095SOL    HW249419   6.125   3.268   2.601 -0.0749  0.7693 -1.1927
16096SOL     OW49420   2.981   3.326   3.076  0.1843  0.8103 -0.2115
16096SOL    HW149421   2.981   3.345   2.982 -0.4037  1.3128 -0.1126
16096SOL    HW249422   2.959   3.409   3.118 -0.4292  0.3873  0.3294
16097SOL     OW49423   7.343   0.908   1.384 -0.1917  0.0179  0.0794
16097SOL    HW149424   7.409   0.919   1.315  0.2834  1.0749  0.6659
16097SOL    HW249425   7.262   0.887   1.338  0.4747 -0.9908 -0.6785
16098SOL     OW49426   0.171   4.768   0.802  0.7620  0.1638 -0.1733
16098SOL    HW149427   0.169   4.862   0.818  0.9620  0.2708 -0.7523
16098SOL    HW249428   0.082   4.747   0.773  0.5186  0.0426  0.6135
16099SOL     OW49429   7.452   2.313   3.086  0.5670 -0.0231  0.3104
16099SOL    HW149430   7.471   2.371   3.013  1.5760 -0.3876  0.2728
16099SOL    HW249431   7.370   2.346   3.122 -0.7243 -0.6396 -1.8259
16100SOL     OW49432   1.573   3.534   7.924 -0.6785  0.3609 -0.1466
16100SOL    HW149433   1.500   3.589   7.898 -0.1261  0.7420 -0.9391
16100SOL    HW249434   1.542   3.444   7.913 -1.0617  0.5200 -0.3520
16101SOL     OW49435   6.489   2.919   8.565 -0.3765  0.5282 -0.7945
16101SOL    HW149436   6.537   2.852   8.614 -0.1581 -0.4576 -2.2767
16101SOL    HW249437   6.553   2.988   8.548 -0.5708  1.1008  0.6403
16102SOL     OW49438   6.743   4.866   7.425  0.1712  0.0415 -1.2323
16102SOL    HW149439   6.832   4.883   7.396 -0.0584 -0.7269 -2.4496
16102SOL    HW249440   6.738   4.771   7.434  0.3589  0.2046  1.8966
16103SOL     OW49441   2.029   3.914   2.289  0.3381  0.1834  0.6525
16103SOL    HW149442   1.975   3.931   2.367  0.6026 -0.9802  1.1031
16103SOL    HW249443   2.097   3.981   2.292 -1.1834  1.8454 -0.0579
16104SOL     OW49444   2.894   0.400   4.347  0.0442 -0.0239  0.0299
16104SOL    HW149445   2.842   0.338   4.297 -0.7594 -0.5147  1.4271
16104SOL    HW249446   2.916   0.354   4.428  1.1165  0.8257  0.2564
16105SOL     OW49447   9.114   6.246   8.898  0.1958 -0.2944 -0.3194
16105SOL    HW149448   9.135   6.267   8.989 -0.3252 -0.7136 -0.0904
16105SOL    HW249449   9.078   6.328   8.862  2.3857  0.5160 -0.8064
16106SOL     OW49450   0.350   1.608   9.115  0.6319 -0.7884  0.2127
16106SOL    HW149451   0.369   1.619   9.208 -0.7711  2.5404  0.2757
16106SOL    HW249452   0.312   1.692   9.089 -2.9568 -2.9169 -2.4188
16107SOL     OW49453   5.428   5.445   7.755  0.5740 -0.3887 -0.2551
16107SOL    HW149454   5.405   5.355   7.735  0.1706 -0.3558  0.0676
16107SOL    HW249455   5.523   5.448   7.745  0.7662 -1.1916  1.0854
16108SOL     OW49456   2.794   1.135   6.614  0.2506 -0.1017  0.2681
16108SOL    HW149457   2.868   1.183   6.651  0.1778  0.2295 -0.0176
16108SOL    HW249458   2.795   1.051   6.660  0.7872 -0.0894  0.2859
16109SOL     OW49459   0.404   1.309   6.758  0.2016 -0.4645 -0.6491
16109SOL    HW149460   0.360   1.392   6.738 -1.8909 -2.0070 -3.2174
16109SOL    HW249461   0.336   1.255   6.797  1.5636 -1.0121  1.0974
16110SOL     OW49462   1.885   0.076   6.285  0.4426  0.1365  0.5022
16110SOL    HW149463   1.912   0.127   6.209  1.4999  0.7762  1.2807
16110SOL    HW249464   1.960   0.081   6.345  0.0420 -1.2232  1.1515
16111SOL     OW49465   0.658   1.017   4.283  0.0145 -0.2464 -0.3162
16111SOL    HW149466   0.574   1.056   4.309 -1.8183 -2.6470 -2.1298
16111SOL    HW249467   0.693   1.076   4.217 -0.1344  0.8682  0.5680
16112SOL     OW49468   1.461   2.091   1.291 -0.1143  0.1245 -0.3101
16112SOL    HW149469   1.489   2.095   1.200  1.3398  1.7932  0.1460
16112SOL    HW249470   1.500   2.168   1.331  0.0079 -1.0177  1.9284
16113SOL     OW49471   2.355   8.145   0.516  0.4801 -0.0002 -0.3435
16113SOL    HW149472   2.345   8.135   0.610  0.2754 -1.5622 -0.5103
16113SOL    HW249473   2.437   8.194   0.506  0.6189 -0.0099  0.6337
16114SOL     OW49474   1.098   0.189   7.971  0.4356 -0.2082  0.0219
16114SOL    HW149475   1.016   0.140   7.967  0.9931 -1.1162 -2.0552
16114SOL    HW249476   1.079   0.270   7.923  1.2720 -1.3914 -2.4643
16115SOL     OW49477   8.807   4.276   1.965  0.1867 -0.1456 -0.1196
16115SOL    HW149478   8.842   4.195   1.926 -0.3774 -0.4526  0.0025
16115SOL    HW249479   8.880   4.338   1.960  0.6592 -0.6900 -0.1267
16116SOL     OW49480   6.393   0.346   6.243  0.0768 -0.8331 -0.4347
16116SOL    HW149481   6.420   0.358   6.334 -2.5306  1.7377  0.1979
16116SOL    HW249482   6.466   0.379   6.191  1.5676 -2.2544  0.6940
16117SOL     OW49483   7.012   4.869   9.054 -0.6343 -0.0467 -0.2883
16117SOL    HW149484   6.963   4.806   9.106  0.8900 -0.8062  0.2982
16117SOL    HW249485   7.028   4.942   9.113  0.9302 -0.8260  0.3118
16118SOL     OW49486   2.051   2.748   6.203  0.1480  0.4755 -0.7686
16118SOL    HW149487   1.965   2.742   6.244 -0.5056  0.3452 -2.0938
16118SOL    HW249488   2.092   2.664   6.220  0.0664  0.5816 -0.0226
16119SOL     OW49489   2.539   4.919   4.789 -0.3172  0.0565 -0.3070
16119SOL    HW149490   2.633   4.909   4.807 -0.0932  2.0835 -0.1150
16119SOL    HW249491   2.499   4.845   4.834  1.0843 -0.2211  0.5675
16120SOL     OW49492   6.554   3.862   3.379  0.1293 -0.0266  0.2675
16120SOL    HW149493   6.623   3.912   3.336  1.5190 -0.9152  1.3823
16120SOL    HW249494   6.526   3.916   3.453  1.1191 -0.5459  1.0415
16121SOL     OW49495   1.961   6.899   0.970 -0.1640 -0.0404 -0.3826
16121SOL    HW149496   1.970   6.981   0.921  3.0285  0.6389  1.0907
16121SOL    HW249497   1.995   6.832   0.910  0.3911  0.2624 -0.4192
16122SOL     OW49498   1.308   7.058   6.735 -0.3285  0.1708 -0.0360
16122SOL    HW149499   1.216   7.032   6.737 -0.2224 -0.2089 -0.0477
16122SOL    HW249500   1.347   7.005   6.665  0.0775 -0.2801  0.5231
16123SOL     OW49501   3.725   4.509   4.479 -0.1828  0.6019 -0.4751
16123SOL    HW149502   3.732   4.572   4.550  3.3981  1.6481 -1.5350
16123SOL    HW249503   3.803   4.525   4.425 -1.0001 -2.3445 -2.8006
16124SOL     OW49504   7.945   0.132   2.507 -0.2973 -0.1325  0.4186
16124SOL    HW149505   7.964   0.144   2.600 -1.9633 -1.9501  1.0442
16124SOL    HW249506   8.022   0.086   2.473  0.7390  1.3712  0.6508
16125SOL     OW49507   7.411   2.967   0.329  0.3154  0.7018 -0.1035
16125SOL    HW149508   7.368   3.038   0.281  0.1361  0.0104 -1.0001
16125SOL    HW249509   7.470   2.928   0.265  0.1591 -0.1738  0.2743
16126SOL     OW49510   4.784   1.219   6.412  0.7499 -0.3326 -0.7392
16126SOL    HW149511   4.810   1.204   6.503  0.4064  0.3030 -0.5338
16126SOL    HW249512   4.865   1.205   6.362  1.2592  0.5485 -0.2046
16127SOL     OW49513   8.869   5.509   3.418 -0.5862 -1.1783 -0.1428
16127SOL    HW149514   8.936   5.574   3.395  0.2934 -2.4840 -1.4198
16127SOL    HW249515   8.786   5.551   3.395 -0.2917  0.5592  1.6918
16128SOL     OW49516   5.968   4.489   1.594 -0.7571 -0.2521  0.1739
16128SOL    HW149517   5.946   4.398   1.614  1.0390 -0.6377  0.6406
16128SOL    HW249518   6.000   4.487   1.503 -0.1834 -0.2126  0.3674
16129SOL     OW49519   2.599   7.239   7.908 -0.1362  0.1161  0.3116
16129SOL    HW149520   2.623   7.282   7.990 -0.6093  0.9313  0.0289
16129SOL    HW249521   2.553   7.159   7.935 -0.4830  0.4894  0.8384
16130SOL     OW49522   6.537   4.454   7.656 -0.1110 -0.2809 -0.3079
16130SOL    HW149523   6.478   4.451   7.581 -2.1142  0.0220  1.1728
16130SOL    HW249524   6.524   4.541   7.694  0.6695 -0.5149  0.5376
16131SOL     OW49525   4.902   5.715   2.894 -0.4984  0.5040 -0.0060
16131SOL    HW149526   4.980   5.689   2.942  0.3364  2.2921 -0.2898
16131SOL    HW249527   4.832   5.715   2.959 -0.3187 -1.2998  0.2121
16132SOL     OW49528   2.355   2.982   7.400  0.1728  0.0322 -0.0103
16132SOL    HW149529   2.301   2.939   7.334  0.0355  0.4173 -0.1491
16132SOL    HW249530   2.401   3.051   7.352  1.0778 -0.5282  0.0251
16133SOL     OW49531   1.335   3.378   4.115  0.1857  0.7889 -0.0192
16133SOL    HW149532   1.298   3.439   4.179 -0.6719  2.2548 -1.8431
16133SOL    HW249533   1.360   3.433   4.041  1.4549 -0.8215 -0.8333
16134SOL     OW49534   2.004   3.840   0.847 -0.6092  0.3350 -0.2521
16134SOL    HW149535   2.019   3.782   0.921 -1.1310  0.3363 -0.1451
16134SOL    HW249536   2.017   3.928   0.882 -0.0452  0.3053 -0.3617
16135SOL     OW49537   6.602   7.435   0.630  0.7473  0.3116  0.0199
16135SOL    HW149538   6.623   7.484   0.709  0.3781 -0.0369  0.3376
16135SOL    HW249539   6.513   7.461   0.608  0.4312 -0.4512  0.3727
16136SOL     OW49540   3.205   3.595   5.818 -0.5694 -0.5314  0.0364
16136SOL    HW149541   3.241   3.621   5.733 -0.5843 -0.4330  0.0605
16136SOL    HW249542   3.266   3.633   5.882 -0.1317 -1.2372  0.0557
16137SOL     OW49543   6.359   5.889   5.569 -0.1034  0.0816  0.0318
16137SOL    HW149544   6.401   5.868   5.653 -0.5714  1.3924  0.6173
16137SOL    HW249545   6.287   5.827   5.561 -1.0187  0.9324  1.3724
16138SOL     OW49546   8.170   7.460   1.335 -0.3635  0.1329 -0.0221
16138SOL    HW149547   8.189   7.503   1.251 -1.1900 -0.1653 -0.3736
16138SOL    HW249548   8.086   7.496   1.362 -0.0325  0.3415  0.7688
16139SOL     OW49549   1.766   4.762   2.326  0.2467 -1.1252 -0.5362
16139SOL    HW149550   1.737   4.847   2.292  0.2214 -0.9980 -0.2051
16139SOL    HW249551   1.783   4.709   2.248 -0.7950 -1.1731 -0.7572
16140SOL     OW49552   5.190   1.862   2.773  0.3473 -0.7622  0.5666
16140SOL    HW149553   5.111   1.905   2.806 -0.2538 -1.0846 -0.4183
16140SOL    HW249554   5.227   1.924   2.711 -0.8580 -1.8462 -1.3268
16141SOL     OW49555   3.683   4.651   7.010  0.9236  0.5354 -0.1983
16141SOL    HW149556   3.668   4.582   7.074  0.3762  0.1167 -0.7673
16141SOL    HW249557   3.747   4.709   7.051  0.7897  0.1183  0.6043
16142SOL     OW49558   2.872   7.549   6.190 -0.4402 -0.0660  0.1047
16142SOL    HW149559   2.914   7.495   6.122  0.3167 -1.3911  1.5608
16142SOL    HW249560   2.822   7.486   6.243  0.2896  0.6653  1.7173
16143SOL     OW49561   4.144   0.953   0.885  0.3313 -0.2357 -0.1150
16143SOL    HW149562   4.066   0.971   0.833  0.9374 -1.4650 -1.5100
16143SOL    HW249563   4.139   0.860   0.904 -0.1019  0.2528  2.5054
16144SOL     OW49564   6.097   7.075   5.340 -0.5055 -0.0182 -0.4763
16144SOL    HW149565   6.157   7.148   5.355  4.1228 -3.0935 -1.9594
16144SOL    HW249566   6.088   7.032   5.425  2.1902 -1.2444 -0.7024
16145SOL     OW49567   1.494   7.146   8.617 -0.5844  0.4682 -0.0093
16145SOL    HW149568   1.501   7.110   8.529  1.7404  1.1021 -0.1531
16145SOL    HW249569   1.511   7.240   8.607 -1.1487  0.7055  1.0156
16146SOL     OW49570   7.594   1.021   1.036  0.2782  0.2019  0.4175
16146SOL    HW149571   7.624   1.006   0.946 -0.1370  0.4873  0.2250
16146SOL    HW249572   7.514   1.074   1.026 -1.1449 -1.7645  0.8480
16147SOL     OW49573   3.440   1.945   5.090  0.0828  0.2640 -0.1604
16147SOL    HW149574   3.400   1.975   5.171 -1.6695 -2.6203  0.1890
16147SOL    HW249575   3.366   1.923   5.033  1.2569 -0.0593 -1.6530
16148SOL     OW49576   7.154   1.696   0.410 -0.0577  0.0567  0.1902
16148SOL    HW149577   7.247   1.675   0.421 -0.1998  0.1590  1.9010
16148SOL    HW249578   7.124   1.639   0.339  1.5221  0.7349 -1.0897
16149SOL     OW49579   1.591   2.439   5.099  0.2375  0.1947 -0.2767
16149SOL    HW149580   1.683   2.438   5.073  0.0765 -1.4491 -0.9191
16149SOL    HW249581   1.591   2.476   5.187  1.4821  0.3731 -0.3282
16150SOL     OW49582   8.080   3.239   1.812  0.1747  0.6250  0.4995
16150SOL    HW149583   8.162   3.233   1.763 -0.8407 -1.0579 -1.0832
16150SOL    HW249584   8.016   3.272   1.749 -0.6660  0.6176  1.3294
16151SOL     OW49585   7.066   4.959   0.891 -0.2632  0.3766 -0.5341
16151SOL    HW149586   7.112   5.012   0.956 -1.5573  0.5760  0.2558
16151SOL    HW249587   7.116   4.971   0.810 -0.3571  2.6141 -0.3284
16152SOL     OW49588   3.694   2.260   4.441  0.0144 -0.5211 -0.0764
16152SOL    HW149589   3.769   2.318   4.441 -0.3486 -0.0439  0.1580
16152SOL    HW249590   3.693   2.221   4.354 -0.4594  0.7702 -0.6675
16153SOL     OW49591   7.976   2.688   8.734  0.2073 -0.3175 -0.1276
16153SOL    HW149592   7.890   2.677   8.696  0.3598  0.1243 -0.5959
16153SOL    HW249593   7.959   2.718   8.823 -0.1579 -1.6978  0.3069
16154SOL     OW49594   5.820   2.218   8.164  0.2077 -0.6927  0.2770
16154SOL    HW149595   5.814   2.264   8.081  1.5044 -0.6833  0.1708
16154SOL    HW249596   5.766   2.140   8.152 -0.6910 -0.0384 -0.0972
16155SOL     OW49597   8.367   0.701   4.640 -0.2919 -0.2226 -0.1500
16155SOL    HW149598   8.454   0.699   4.681 -0.5196 -1.3148  0.3185
16155SOL    HW249599   8.340   0.609   4.637 -1.4388  0.1045 -0.2783
16156SOL     OW49600   0.451   5.908   0.032  0.4978  0.3064 -0.2326
16156SOL    HW149601   0.508   5.930   0.106  0.0139 -2.4122  1.0691
16156SOL    HW249602   0.509   5.864  -0.030  0.2939 -0.2409 -0.0353
16157SOL     OW49603   2.683   3.962   7.912  0.1462 -0.7559  0.5323
16157SOL    HW149604   2.771   3.947   7.876  0.0171 -0.1051 -0.0804
16157SOL    HW249605   2.630   3.983   7.836  0.0229  1.3802  1.1618
16158SOL     OW49606   4.852   6.014   2.278 -0.3939 -0.0429  0.1117
16158SOL    HW149607   4.829   5.945   2.340 -0.6884  0.5442  0.6647
16158SOL    HW249608   4.889   5.967   2.203 -1.3186 -0.8616  0.1384
16159SOL     OW49609   5.732   2.620   0.391  0.6212  0.0408 -0.3141
16159SOL    HW149610   5.797   2.690   0.381  0.1405  0.7018  0.9545
16159SOL    HW249611   5.657   2.650   0.339  0.3868  0.5329  0.2869
16160SOL     OW49612   6.473   8.621   2.975  0.5377 -0.3202  0.1918
16160SOL    HW149613   6.403   8.666   3.023 -0.4308 -1.8640  0.2996
16160SOL    HW249614   6.516   8.690   2.925  0.4284  1.0498  1.9026
16161SOL     OW49615   2.648   2.127   7.191 -0.7282 -0.1543  0.1450
16161SOL    HW149616   2.604   2.091   7.268 -1.2762  1.4580  0.6087
16161SOL    HW249617   2.680   2.049   7.144 -2.2995 -1.2732  0.8371
16162SOL     OW49618   5.758   6.625   2.358  0.5097 -0.5422 -0.0206
16162SOL    HW149619   5.671   6.608   2.392  0.4532  0.1899  0.2064
16162SOL    HW249620   5.766   6.720   2.357  2.1572 -0.5876  2.1745
16163SOL     OW49621   5.062   4.020   1.304  0.6939 -0.2563 -0.4770
16163SOL    HW149622   5.009   4.083   1.256  0.4603 -0.1517 -0.0847
16163SOL    HW249623   5.036   3.934   1.269  2.0995 -0.0765 -2.1073
16164SOL     OW49624   5.242   2.009   4.994  0.4037 -0.6840  0.4377
16164SOL    HW149625   5.274   2.058   5.069  0.2519 -1.0484  0.7403
16164SOL    HW249626   5.233   2.075   4.925 -2.2066  0.2669  1.5347
16165SOL     OW49627   2.335   6.630   1.700  0.2135 -0.2712 -0.8117
16165SOL    HW149628   2.251   6.673   1.689  2.0160  3.5362 -1.3275
16165SOL    HW249629   2.364   6.656   1.788  1.0829 -1.0647 -0.8444
16166SOL     OW49630   8.152   1.840   6.430  0.2788  0.2049 -0.2373
16166SOL    HW149631   8.206   1.850   6.508  0.2195  1.2117 -0.3026
16166SOL    HW249632   8.106   1.924   6.422 -0.1175 -0.0764 -1.0503
16167SOL     OW49633   8.481   4.320   4.349  0.7905 -0.3855 -0.1582
16167SOL    HW149634   8.413   4.266   4.389  0.4568  0.6008  0.6551
16167SOL    HW249635   8.433   4.388   4.301  1.1985 -0.2596 -0.3951
16168SOL     OW49636   5.509   5.328   6.735  0.3073 -0.5224  0.0351
16168SOL    HW149637   5.450   5.338   6.660  0.0958 -0.6095  0.1905
16168SOL    HW249638   5.562   5.408   6.733  0.9871 -0.9765 -0.8018
16169SOL     OW49639   5.944   8.490   2.130  0.2046  0.5243 -0.4894
16169SOL    HW149640   5.955   8.403   2.091 -0.3130 -0.0899  0.6552
16169SOL    HW249641   5.851   8.509   2.121  0.0317  0.2675  0.6039
16170SOL     OW49642   6.187   7.893   5.408  0.4185 -0.1958  0.1844
16170SOL    HW149643   6.267   7.921   5.363  0.7837 -0.4300  0.6843
16170SOL    HW249644   6.218   7.851   5.488 -0.1944 -0.5404  0.2454
16171SOL     OW49645   2.396   2.784   4.909 -0.3223 -0.5746 -0.0589
16171SOL    HW149646   2.352   2.790   4.824 -1.6158 -0.1653  0.6145
16171SOL    HW249647   2.327   2.800   4.973  0.9452  0.9073  1.0246
16172SOL     OW49648   2.370   0.556   6.465 -0.3421 -0.2880  0.5186
16172SOL    HW149649   2.359   0.645   6.430 -0.1186 -0.7283 -0.7497
16172SOL    HW249650   2.459   0.555   6.500 -0.4346  0.0635  0.7642
16173SOL     OW49651   5.383   8.790   0.914  0.3080 -0.2259  0.1384
16173SOL    HW149652   5.394   8.727   0.843  1.1874 -0.0643  0.1191
16173SOL    HW249653   5.332   8.861   0.875  2.2655  0.6891 -0.8831
16174SOL     OW49654   7.260   0.005   0.533 -0.0977  0.1224  0.1816
16174SOL    HW149655   7.170   0.001   0.500 -0.9205  0.8796  2.1721
16174SOL    HW249656   7.269  -0.074   0.587  0.3324  0.2018  0.2279
16175SOL     OW49657   7.009   1.614   6.169  0.0724 -0.3887  0.3218
16175SOL    HW149658   7.051   1.542   6.123  0.3001  0.0880 -0.2242
16175SOL    HW249659   6.969   1.573   6.246 -0.9744 -1.3071 -0.6840
16176SOL     OW49660   3.212   6.432   4.045  0.5250 -0.0710  0.3963
16176SOL    HW149661   3.251   6.359   4.093  0.2805 -0.0830  0.5770
16176SOL    HW249662   3.233   6.414   3.953  0.6926 -0.2300  0.4645
16177SOL     OW49663   1.457   3.216   6.617  0.1305  0.3225  0.3200
16177SOL    HW149664   1.386   3.263   6.572 -0.9689 -0.0727  1.5710
16177SOL    HW249665   1.532   3.276   6.613 -1.0642  1.9799  1.3917
16178SOL     OW49666   4.309   4.087   8.656  0.1416 -0.3749 -0.1700
16178SOL    HW149667   4.371   4.022   8.690 -0.0699 -0.2902  0.3847
16178SOL    HW249668   4.328   4.090   8.562  0.9701 -0.3633 -0.0151
16179SOL     OW49669   7.631   3.493   4.022  0.7371 -0.2301 -0.0821
16179SOL    HW149670   7.540   3.480   4.050  0.3157 -0.1977 -1.3587
16179SOL    HW249671   7.662   3.405   3.999  0.0577  0.0415 -2.3569
16180SOL     OW49672   2.551   8.440   3.981  0.8006  0.3940  0.2831
16180SOL    HW149673   2.603   8.427   4.060  1.0139 -0.4545  0.0164
16180SOL    HW249674   2.485   8.504   4.006  0.5579 -0.2243  1.2996
16181SOL     OW49675   0.482   0.961   3.424  0.1643 -1.1210  0.3554
16181SOL    HW149676   0.531   1.033   3.385 -1.6635  0.3856  0.7078
16181SOL    HW249677   0.472   0.897   3.354 -1.1381  0.5304 -1.0403
16182SOL     OW49678   4.093   2.824   3.357  0.1446 -0.8754 -0.8007
16182SOL    HW149679   4.082   2.902   3.411  3.3450  0.7051 -2.1419
16182SOL    HW249680   4.035   2.837   3.282  1.2402  0.7371 -1.4236
16183SOL     OW49681   8.210   8.174   6.406 -0.0502 -0.8343 -0.2391
16183SOL    HW149682   8.251   8.223   6.477  1.7545 -1.1395 -0.9944
16183SOL    HW249683   8.278   8.169   6.339 -1.7158 -0.4956 -2.0260
16184SOL     OW49684   5.492   8.286   4.534 -0.0108  0.3810  0.2373
16184SOL    HW149685   5.533   8.268   4.450  0.2798  0.9080  0.2660
16184SOL    HW249686   5.414   8.336   4.512  0.0566  0.5047  0.2823
16185SOL     OW49687   4.575   2.772   0.661  0.0538 -0.5113 -0.1383
16185SOL    HW149688   4.602   2.854   0.621  0.9532 -0.8656 -0.2787
16185SOL    HW249689   4.504   2.796   0.721  0.8999  0.4924  0.4828
16186SOL     OW49690   0.819   1.671   2.617 -0.0578  0.4530  0.3274
16186SOL    HW149691   0.731   1.708   2.612  0.1369  0.8891  0.0578
16186SOL    HW249692   0.810   1.593   2.672 -1.1659 -1.0877 -1.8447
16187SOL     OW49693   0.742   6.260   2.086 -0.2248 -0.5138 -0.1094
16187SOL    HW149694   0.815   6.299   2.039 -0.6111 -0.1621 -0.4350
16187SOL    HW249695   0.685   6.224   2.018 -1.6354  1.4701 -0.0798
16188SOL     OW49696   1.518   2.875   8.699 -0.6356 -0.3508 -0.0131
16188SOL    HW149697   1.573   2.814   8.650  1.0823  0.5682  0.7072
16188SOL    HW249698   1.500   2.829   8.782 -1.6061 -0.9549 -0.5447
16189SOL     OW49699   2.761   1.956   8.936 -0.3779  0.0687  0.1006
16189SOL    HW149700   2.818   1.889   8.898  0.9269  1.1629  0.0540
16189SOL    HW249701   2.797   2.039   8.905 -0.2266  0.9372  2.4255
16190SOL     OW49702   1.556   5.581   0.810  0.3236  0.8072  0.6086
16190SOL    HW149703   1.492   5.546   0.750 -0.3442  1.3716  0.9767
16190SOL    HW249704   1.579   5.507   0.867  1.4992  0.0770 -0.7567
16191SOL     OW49705   2.820   3.073   5.819 -0.4011 -0.6222  0.0795
16191SOL    HW149706   2.807   3.146   5.879  0.2535 -0.4716  0.0473
16191SOL    HW249707   2.847   3.000   5.875 -0.2259 -0.6043  0.0188
16192SOL     OW49708   3.097   3.710   7.024 -0.0564 -0.0826  0.0006
16192SOL    HW149709   3.146   3.776   6.975  0.3051 -2.1030 -2.5949
16192SOL    HW249710   3.020   3.692   6.969 -0.6882 -1.0401  1.1599
16193SOL     OW49711   4.235   1.646   3.077  0.2285 -0.0419 -0.0871
16193SOL    HW149712   4.243   1.605   2.990  2.5909 -1.3423  0.6272
16193SOL    HW249713   4.304   1.604   3.128 -0.7478  1.1005  2.2845
16194SOL     OW49714   7.572   6.432   7.895 -0.2754  0.0959  0.0142
16194SOL    HW149715   7.575   6.508   7.836 -0.2000  0.4871  0.5179
16194SOL    HW249716   7.659   6.392   7.886 -0.1699  0.3102  0.0630
16195SOL     OW49717   2.025   8.691   5.692 -0.2672 -0.0057 -0.5495
16195SOL    HW149718   1.960   8.762   5.698  2.0041  2.1795 -0.2706
16195SOL    HW249719   2.077   8.713   5.614  0.9237 -1.0054 -0.0621
16196SOL     OW49720   7.071   4.525   8.004 -0.1202 -0.4996 -0.2149
16196SOL    HW149721   7.018   4.599   8.033 -0.3910 -1.0319  0.6944
16196SOL    HW249722   7.072   4.465   8.078  0.3811 -1.2604 -0.8102
16197SOL     OW49723   7.461   3.119   8.920 -0.2761 -0.1504 -0.2872
16197SOL    HW149724   7.500   3.158   8.841 -1.7909  0.0475 -0.9617
16197SOL    HW249725   7.535   3.076   8.964  0.9922  1.4853 -0.7203
16198SOL     OW49726   2.253   2.001   6.131 -0.1174  0.1382 -0.4357
16198SOL    HW149727   2.308   2.074   6.159  0.3131 -0.6411  0.8642
16198SOL    HW249728   2.260   2.001   6.036  1.7701  0.3702 -0.3473
16199SOL     OW49729   5.516   0.805   7.308 -0.2545  0.2520  0.0020
16199SOL    HW149730   5.441   0.752   7.282 -0.4062  0.6019 -0.2766
16199SOL    HW249731   5.514   0.806   7.403 -0.2703 -0.2153  0.0092
16200SOL     OW49732   7.206   3.037   5.184  0.4563  0.5276 -0.6207
16200SOL    HW149733   7.135   2.972   5.188 -0.1605  1.1589 -1.1816
16200SOL    HW249734   7.187   3.088   5.106  2.1931 -0.0393 -1.4667
16201SOL     OW49735   1.594   8.433   0.026 -0.1195  0.4709  0.0234
16201SOL    HW149736   1.659   8.365   0.042  0.4981  1.1196  0.3075
16201SOL    HW249737   1.543   8.437   0.107 -0.6442 -0.1533 -0.2592
16202SOL     OW49738   1.190   1.413   5.615 -0.4862  0.1473  0.4736
16202SOL    HW149739   1.152   1.410   5.703 -1.0366  0.1037  0.2347
16202SOL    HW249740   1.242   1.332   5.609  0.1257  0.4951  1.0115
16203SOL     OW49741   0.794   6.839   3.746  0.1173  0.0516  0.3312
16203SOL    HW149742   0.758   6.848   3.658  2.5916  0.7050 -0.7007
16203SOL    HW249743   0.824   6.927   3.770  0.1743 -0.2617  1.5192
16204SOL     OW49744   5.069   8.330   2.783 -0.2088 -0.0481 -0.3054
16204SOL    HW149745   5.030   8.381   2.712 -3.1720 -0.8655  0.5725
16204SOL    HW249746   5.004   8.334   2.854  1.7391 -0.9022  1.6349
16205SOL     OW49747   3.050   1.192   2.002  0.7174 -0.5802 -0.6221
16205SOL    HW149748   2.992   1.140   2.058  0.8655  0.2966  0.3592
16205SOL    HW249749   3.047   1.146   1.918 -0.9089 -0.9185 -0.4305
16206SOL     OW49750   4.912   0.312   6.172 -0.2369  0.3153 -0.1267
16206SOL    HW149751   4.928   0.240   6.110 -2.2071  0.9386 -1.4469
16206SOL    HW249752   4.997   0.326   6.214  0.2727 -2.6592  0.0925
16207SOL     OW49753   8.852   5.611   3.069 -0.0503 -0.8601 -0.2727
16207SOL    HW149754   8.934   5.658   3.086 -0.9943  0.0490  2.4779
16207SOL    HW249755   8.851   5.597   2.975  2.9803 -0.4146 -0.4770
16208SOL     OW49756   8.913   2.607   7.133 -0.0823  0.6243  0.0358
16208SOL    HW149757   8.933   2.641   7.220 -2.1520  1.0048  0.4092
16208SOL    HW249758   8.963   2.663   7.073  1.3252  0.3890  0.9444
16209SOL     OW49759   4.591   7.946   0.705  0.3554 -0.7935  0.0665
16209SOL    HW149760   4.680   7.960   0.737  0.3293 -0.8998  0.1884
16209SOL    HW249761   4.602   7.893   0.626  0.4426 -0.2377 -0.2960
16210SOL     OW49762   8.489   0.029   1.859  0.3319 -0.2874  0.1961
16210SOL    HW149763   8.420   0.068   1.913 -0.4392  0.1455 -1.0477
16210SOL    HW249764   8.464   0.050   1.769  1.9187 -0.4048 -0.3163
16211SOL     OW49765   6.418   8.484   1.873  0.5052 -0.4286  0.4103
16211SOL    HW149766   6.414   8.495   1.968  0.9724  1.2376  0.2620
16211SOL    HW249767   6.447   8.394   1.861 -1.0131 -1.1614  1.8129
16212SOL     OW49768   3.467   7.199   0.328 -0.2743  0.0240 -0.2818
16212SOL    HW149769   3.557   7.211   0.359 -0.4056 -1.4713  0.7487
16212SOL    HW249770   3.421   7.157   0.401 -1.7825  0.5838 -0.8592
16213SOL     OW49771   7.068   0.587   2.810  0.6785  0.4875 -0.1808
16213SOL    HW149772   7.038   0.570   2.899  2.0417  1.1907  0.4263
16213SOL    HW249773   6.987   0.588   2.758 -0.0841 -0.4937  0.9350
16214SOL     OW49774   3.725   7.249   0.368 -0.5811 -0.1304 -0.9878
16214SOL    HW149775   3.813   7.212   0.370 -0.9369 -1.0303 -1.5549
16214SOL    HW249776   3.720   7.295   0.285  0.1391  1.9652  0.0585
16215SOL     OW49777   3.137   3.281   8.071  0.0990 -0.1633  0.1728
16215SOL    HW149778   3.149   3.200   8.022 -0.3164  0.2377 -0.5991
16215SOL    HW249779   3.120   3.253   8.161 -1.2776 -0.9822 -0.3175
16216SOL     OW49780   5.617   1.501   7.049  0.1366  0.0069 -0.3248
16216SOL    HW149781   5.527   1.469   7.057  0.2366 -0.3033 -0.4131
16216SOL    HW249782   5.610   1.578   6.992 -0.3371  1.2102  1.2937
16217SOL     OW49783   2.181   0.039   4.155  0.0367 -0.1895 -0.4083
16217SOL    HW149784   2.115  -0.025   4.130  1.3543 -1.7938  0.0031
16217SOL    HW249785   2.238   0.046   4.078  0.9104 -0.8962  0.1521
16218SOL     OW49786   2.887   0.752   6.176  0.0756 -0.2287  0.4768
16218SOL    HW149787   2.833   0.815   6.223  2.0089  1.0702  1.1167
16218SOL    HW249788   2.916   0.799   6.098  1.2696 -0.3939  0.7880
16219SOL     OW49789   5.111   7.844   4.530 -0.1393  0.2923  0.5852
16219SOL    HW149790   5.095   7.898   4.453 -1.3669  0.6941  1.1084
16219SOL    HW249791   5.056   7.767   4.517  0.9402 -0.4635  0.2679
16220SOL     OW49792   7.304   0.896   4.976 -0.2793 -0.1740 -0.2487
16220SOL    HW149793   7.399   0.883   4.983 -0.3798 -0.2591  1.4141
16220SOL    HW249794   7.267   0.809   4.995 -0.7047 -0.0710 -0.5923
16221SOL     OW49795   5.778   9.046   7.532 -0.2871 -0.2563  0.2270
16221SOL    HW149796   5.840   9.118   7.523 -0.3212 -0.2995 -0.3500
16221SOL    HW249797   5.778   9.027   7.626 -0.2914  0.5053  0.3927
16222SOL     OW49798   1.833   4.497   3.123  0.6400 -0.4487  0.3125
16222SOL    HW149799   1.838   4.493   3.027  3.1000 -1.6101  0.4285
16222SOL    HW249800   1.817   4.589   3.142 -0.8684 -0.3402 -1.1963
16223SOL     OW49801   7.591   2.133   0.073 -0.1038  0.2219 -0.0094
16223SOL    HW149802   7.667   2.145   0.016 -1.0041  0.8231 -1.1149
16223SOL    HW249803   7.613   2.181   0.153  0.4260  0.9228 -0.5622
16224SOL     OW49804   8.323   3.299   9.066  0.3390  0.1607 -0.1151
16224SOL    HW149805   8.304   3.307   8.973 -0.4015 -0.9577 -0.0872
16224SOL    HW249806   8.248   3.340   9.109  1.4002  2.0702  0.0237
16225SOL     OW49807   6.483   7.774   0.537  0.1508  0.2066 -0.2809
16225SOL    HW149808   6.500   7.726   0.455 -0.5165  0.4413 -0.5639
16225SOL    HW249809   6.391   7.758   0.555 -0.4301  2.3238 -1.0267
16226SOL     OW49810   3.081   7.300   5.278  0.6061 -0.6036 -0.0364
16226SOL    HW149811   3.033   7.364   5.330  1.0720 -0.7731  0.6102
16226SOL    HW249812   3.054   7.318   5.188  1.9109  1.5366 -0.0502
16227SOL     OW49813   5.391   5.558   4.031 -0.3369 -0.6350  0.0295
16227SOL    HW149814   5.325   5.516   4.086 -2.2486  0.3062 -1.4016
16227SOL    HW249815   5.344   5.579   3.950  1.7707  0.0338 -1.0977
16228SOL     OW49816   5.553   2.633   8.106 -0.1181 -0.1462  0.4789
16228SOL    HW149817   5.623   2.688   8.141 -0.1877  0.0476  0.3167
16228SOL    HW249818   5.483   2.694   8.084 -0.0906 -0.2649  0.0402
16229SOL     OW49819   2.073   2.502   0.802  0.4760  0.3774 -0.7336
16229SOL    HW149820   2.106   2.412   0.810  0.9384  0.5899 -0.2745
16229SOL    HW249821   2.151   2.556   0.794  0.2030  0.7611 -0.8082
16230SOL     OW49822   5.392   6.751   1.062  0.0878  0.0200 -0.6140
16230SOL    HW149823   5.330   6.752   0.989  0.4206 -1.5505 -0.9499
16230SOL    HW249824   5.396   6.659   1.089  1.3495  0.2854  0.1864
16231SOL     OW49825   3.580   0.529   2.337 -0.8830  0.0371 -0.0032
16231SOL    HW149826   3.622   0.460   2.388 -0.9018 -0.6087 -0.8494
16231SOL    HW249827   3.653   0.575   2.295 -0.9821 -1.0453 -1.4228
16232SOL     OW49828   1.048   2.350   4.704  0.2438  0.2268  0.1761
16232SOL    HW149829   1.034   2.441   4.675  1.9631  0.9318  1.4367
16232SOL    HW249830   1.081   2.305   4.626  0.1381  0.8625 -0.2451
16233SOL     OW49831   5.558   4.239   6.377 -0.2350  0.1502  0.9096
16233SOL    HW149832   5.567   4.329   6.345  0.2661 -0.6050 -1.2252
16233SOL    HW249833   5.646   4.216   6.408  0.3067 -0.3815 -0.8756
16234SOL     OW49834   4.536   8.766   2.851 -0.8732 -0.3899 -0.1250
16234SOL    HW149835   4.508   8.778   2.941 -3.4493  0.3401 -0.9463
16234SOL    HW249836   4.455   8.755   2.801  0.4843 -1.3521 -2.2949
16235SOL     OW49837   6.558   6.987   1.154 -0.0394 -0.4094  0.7520
16235SOL    HW149838   6.584   6.905   1.111 -0.9082 -0.8243  1.0076
16235SOL    HW249839   6.626   7.002   1.220  1.4958  0.3940 -0.8923
16236SOL     OW49840   3.069   7.336   6.867 -0.7521 -0.1560  0.2629
16236SOL    HW149841   3.075   7.364   6.776  1.5785 -1.0568  0.0811
16236SOL    HW249842   3.082   7.416   6.917 -0.6955  0.1225 -0.1868
16237SOL     OW49843   1.997   0.816   8.637  0.4742 -0.2036 -0.1825
16237SOL    HW149844   1.908   0.837   8.666  0.2178 -1.1481 -0.2576
16237SOL    HW249845   2.046   0.897   8.653 -0.3828  0.3292 -0.1208
16238SOL     OW49846   9.084   1.226   1.693 -0.8267 -0.1702 -0.0172
16238SOL    HW149847   9.017   1.198   1.631 -0.9925  2.0754 -0.9409
16238SOL    HW249848   9.035   1.261   1.768 -0.6862  0.4571 -0.2135
16239SOL     OW49849   2.692   7.836   8.392 -0.2717  0.2161 -0.1279
16239SOL    HW149850   2.672   7.930   8.388 -0.9760  0.0350 -1.1900
16239SOL    HW249851   2.641   7.805   8.468  0.9291  0.8937  0.9904
16240SOL     OW49852   5.390   3.146   0.073  0.0720  0.0351 -0.4634
16240SOL    HW149853   5.344   3.205   0.133  0.7695 -0.5859  0.7089
16240SOL    HW249854   5.483   3.166   0.085  0.3049 -1.1289 -0.2296
16241SOL     OW49855   0.287   6.851   0.744  0.4395 -0.8840  0.2206
16241SOL    HW149856   0.274   6.943   0.723 -2.9318 -0.7892  2.0288
16241SOL    HW249857   0.266   6.804   0.663  1.7248 -0.1264 -0.5754
16242SOL     OW49858   5.378   1.684   0.431 -0.1478  0.1894 -0.0502
16242SOL    HW149859   5.425   1.603   0.451 -0.0731 -0.0490 -1.1246
16242SOL    HW249860   5.402   1.704   0.340  1.2003  2.3456  0.7014
16243SOL     OW49861   7.397   0.959   5.419  0.2393  0.4493 -0.0401
16243SOL    HW149862   7.427   0.875   5.456  1.5772  1.5184  1.4506
16243SOL    HW249863   7.318   0.936   5.370  0.3129 -1.6225  0.6812
16244SOL     OW49864   7.261   5.726   1.391  0.1379 -0.5101 -0.1007
16244SOL    HW149865   7.283   5.653   1.333  1.7398 -1.4093  1.5303
16244SOL    HW249866   7.178   5.701   1.431  0.8446 -1.6543  0.7045
16245SOL     OW49867   5.985   2.020   0.651 -0.0300 -0.1296  0.0511
16245SOL    HW149868   6.019   2.084   0.712  0.5994  0.7009 -1.1269
16245SOL    HW249869   5.979   1.939   0.702 -0.7689  0.8279  1.5355
16246SOL     OW49870   7.233   4.652   4.408 -0.4741  0.0429  0.1599
16246SOL    HW149871   7.282   4.599   4.346  0.8214 -0.5640  1.6266
16246SOL    HW249872   7.212   4.733   4.361 -0.2125 -0.7075 -1.2741
16247SOL     OW49873   5.205   6.099   6.349 -0.1101 -0.2546 -0.2329
16247SOL    HW149874   5.209   6.170   6.414  0.5380 -1.5563  1.2333
16247SOL    HW249875   5.260   6.129   6.277  0.2872  0.6738  0.4361
16248SOL     OW49876   6.347   4.481   0.867 -0.3541 -0.6200 -0.1972
16248SOL    HW149877   6.307   4.405   0.909  1.4762 -1.0300  0.9413
16248SOL    HW249878   6.438   4.455   0.851  0.0748  1.0081 -0.6417
16249SOL     OW49879   8.538   8.593   7.161  0.0805  0.1326 -0.2639
16249SOL    HW149880   8.454   8.621   7.199  1.0505  2.7516  0.1484
16249SOL    HW249881   8.578   8.540   7.230 -0.9515 -0.6621 -0.2413
16250SOL     OW49882   3.023   4.367   5.424  0.0835 -0.0032 -0.0350
16250SOL    HW149883   3.061   4.283   5.449 -0.7746  0.0910  1.7340
16250SOL    HW249884   2.974   4.395   5.501 -1.4412  1.1046 -1.3374
16251SOL     OW49885   4.245   8.333   6.969 -0.1194 -0.4619 -0.1553
16251SOL    HW149886   4.232   8.427   6.980  0.6502 -0.4889  1.0963
16251SOL    HW249887   4.164   8.302   6.928 -0.9137  0.5316  0.6265
16252SOL     OW49888   7.688   3.824   2.066  0.2647 -0.0625 -0.4747
16252SOL    HW149889   7.713   3.779   2.147 -0.8397  0.2721  0.0679
16252SOL    HW249890   7.732   3.909   2.072  0.7836 -0.3147 -0.5918
16253SOL     OW49891   0.887   0.521   4.471 -0.0067 -0.8197 -0.5146
16253SOL    HW149892   0.860   0.609   4.497  1.4888 -0.3970 -0.3099
16253SOL    HW249893   0.847   0.464   4.536 -0.0243 -0.1829  0.0456
16254SOL     OW49894   4.292   3.791   0.489  0.0168  0.3361 -0.7157
16254SOL    HW149895   4.304   3.697   0.496  2.8859  0.6644  0.3195
16254SOL    HW249896   4.198   3.804   0.481 -0.5058 -2.5512 -0.0615
16255SOL     OW49897   7.203   2.775   0.455 -0.0804 -0.5353  0.2374
16255SOL    HW149898   7.266   2.842   0.426  0.0389 -0.4321  0.7392
16255SOL    HW249899   7.257   2.701   0.482 -0.1941 -0.6339  0.1946
16256SOL     OW49900   6.264   2.906   4.833 -0.3163  0.3368 -0.4542
16256SOL    HW149901   6.212   2.969   4.783 -0.7170  0.5529  0.2262
16256SOL    HW249902   6.343   2.953   4.858  0.1982  0.0231 -1.4488
16257SOL     OW49903   2.346   3.732   5.738 -0.0372  0.0813  0.1891
16257SOL    HW149904   2.376   3.819   5.762 -0.5377  0.8940 -1.9564
16257SOL    HW249905   2.425   3.689   5.703 -0.4857  0.9921 -2.1324
16258SOL     OW49906   0.803   2.061   6.735 -0.3842  0.0075  0.2719
16258SOL    HW149907   0.804   1.967   6.714  0.2599 -0.0556  0.5809
16258SOL    HW249908   0.860   2.070   6.811  1.0030  0.8954 -0.8198
16259SOL     OW49909   9.041   5.231   0.021  0.1556  0.2547  0.0184
16259SOL    HW149910   9.002   5.172  -0.043  1.2449  0.4811 -0.8858
16259SOL    HW249911   8.966   5.276   0.060 -0.5945 -0.6721 -0.3094
16260SOL     OW49912   7.504   1.983   5.059  0.7346  0.0997  0.2146
16260SOL    HW149913   7.458   2.006   5.140  2.2169 -0.8653  1.4009
16260SOL    HW249914   7.450   2.020   4.989 -0.7084  0.7931  1.6220
16261SOL     OW49915   3.550   0.973   7.834  0.0556 -0.5337  0.0451
16261SOL    HW149916   3.552   0.878   7.842 -2.2403 -0.6608 -0.3096
16261SOL    HW249917   3.529   0.989   7.742 -0.5745  0.2886  0.3236
16262SOL     OW49918   4.149   8.637   5.873  0.1360  0.3407 -0.2268
16262SOL    HW149919   4.195   8.649   5.789  0.2582  3.4323  0.1413
16262SOL    HW249920   4.204   8.578   5.923  1.1579  0.1016 -1.5837
16263SOL     OW49921   4.660   6.364   5.239 -0.4508 -0.1454 -0.1832
16263SOL    HW149922   4.723   6.349   5.169  0.0863 -1.7233  0.5824
16263SOL    HW249923   4.668   6.457   5.260  2.3331 -0.4714  0.5400
16264SOL     OW49924   7.779   5.328   8.661  1.8467 -0.2021  0.2153
16264SOL    HW149925   7.700   5.285   8.630  1.6170  0.6535 -0.4421
16264SOL    HW249926   7.762   5.422   8.648  1.6620  0.2795  3.0689
16265SOL     OW49927   4.864   0.519   6.441 -0.5972  0.2930  0.0047
16265SOL    HW149928   4.811   0.442   6.418 -0.9246  0.6388 -0.4002
16265SOL    HW249929   4.836   0.540   6.530 -0.3119 -0.2185  0.2199
16266SOL     OW49930   6.843   4.611   6.838 -0.2931 -0.3676 -0.1913
16266SOL    HW149931   6.846   4.585   6.746 -2.4404 -1.0944 -0.0895
16266SOL    HW249932   6.757   4.652   6.849  1.7795  4.5886  0.2888
16267SOL     OW49933   6.607   7.460   4.198 -0.0088 -0.2221 -0.0166
16267SOL    HW149934   6.556   7.460   4.117 -0.5565 -0.8262  0.3122
16267SOL    HW249935   6.551   7.414   4.261 -0.6374  2.3213  1.3891
16268SOL     OW49936   9.056   1.084   3.527  0.0176 -0.3036  0.1502
16268SOL    HW149937   8.961   1.090   3.533 -0.0323  0.1204 -0.8980
16268SOL    HW249938   9.076   1.097   3.434  1.0443 -1.1991  0.2245
16269SOL     OW49939   5.896   3.148   6.419 -0.2601  0.1092  0.3928
16269SOL    HW149940   5.838   3.221   6.400  0.0518  0.7324  1.7302
16269SOL    HW249941   5.969   3.187   6.467 -0.0971 -1.0599  1.1438
16270SOL     OW49942   2.013   2.451   2.828  0.0298  0.6151  0.1052
16270SOL    HW149943   1.953   2.442   2.902  1.1614 -0.7707  0.8978
16270SOL    HW249944   2.100   2.446   2.867  0.6564 -0.5988 -1.3530
16271SOL     OW49945   3.863   1.039   7.199 -0.3599 -0.3064  0.1172
16271SOL    HW149946   3.955   1.014   7.209 -0.2019  0.2312  0.0117
16271SOL    HW249947   3.835   1.064   7.287 -0.1932  0.2482  0.0140
16272SOL     OW49948   8.550   3.969   3.742 -0.2390 -0.5082  0.2927
16272SOL    HW149949   8.480   4.011   3.793 -0.7956 -0.0662 -0.8053
16272SOL    HW249950   8.630   4.014   3.768 -0.4534 -0.5603  1.0646
16273SOL     OW49951   2.058   2.715   0.154  0.2124  0.5697  0.0594
16273SOL    HW149952   2.073   2.661   0.076 -0.6419  0.0781  0.2225
16273SOL    HW249953   2.081   2.804   0.126  0.2861  0.3404 -0.6347
16274SOL     OW49954   2.493   0.503   2.611  0.3858 -0.0816 -0.2891
16274SOL    HW149955   2.574   0.516   2.563 -0.0240 -1.9754 -1.5894
16274SOL    HW249956   2.482   0.408   2.615 -2.7443  0.0675 -1.9646
16275SOL     OW49957   5.938   0.661   8.047  0.1943  0.0505 -0.1318
16275SOL    HW149958   5.856   0.707   8.027 -0.2059 -1.5634 -2.6869
16275SOL    HW249959   6.007   0.723   8.025 -0.3306  0.8176  0.3591
16276SOL     OW49960   2.609   6.842   0.239  0.4669 -0.1162  0.3066
16276SOL    HW149961   2.539   6.826   0.303 -1.2457  2.6295 -0.6799
16276SOL    HW249962   2.612   6.763   0.186 -0.3685 -1.1554  1.7481
16277SOL     OW49963   4.901   9.041   4.586 -0.5159  0.3445  0.4014
16277SOL    HW149964   4.930   9.041   4.678  1.7479  0.3919 -0.2536
16277SOL    HW249965   4.975   9.078   4.538 -1.9995  1.1455 -1.3755
16278SOL     OW49966   4.749   1.807   5.606  0.2508  0.5367  0.3817
16278SOL    HW149967   4.827   1.812   5.551  1.4358  0.2425  1.9587
16278SOL    HW249968   4.729   1.713   5.610 -0.7896  0.6788 -0.7687
16279SOL     OW49969   4.558   0.745   3.978 -0.4426 -0.2737 -0.7805
16279SOL    HW149970   4.582   0.831   4.014  1.0648 -0.8755 -0.2668
16279SOL    HW249971   4.557   0.758   3.884 -2.1603  0.7625 -0.6622
16280SOL     OW49972   3.100   2.945   4.994 -0.3547 -0.2568  0.7242
16280SOL    HW149973   3.187   2.944   5.035  0.1605 -0.8556 -0.3556
16280SOL    HW249974   3.110   3.003   4.919 -0.5080 -1.3850 -0.1942
16281SOL     OW49975   8.727   6.449   8.152 -0.3066 -0.0186 -0.1487
16281SOL    HW149976   8.640   6.471   8.118 -0.3538 -0.0970 -0.0785
16281SOL    HW249977   8.784   6.451   8.076 -0.2324  0.7541 -0.0829
16282SOL     OW49978   5.029   5.428   6.204  0.1697 -0.7937  0.3766
16282SOL    HW149979   5.092   5.416   6.133  0.1403 -0.6686  0.3296
16282SOL    HW249980   5.000   5.519   6.195 -3.0586 -1.8626 -2.1412
16283SOL     OW49981   4.408   8.869   2.241 -0.1294 -0.6744 -0.2037
16283SOL    HW149982   4.496   8.885   2.207  0.3574 -0.2004  1.1874
16283SOL    HW249983   4.400   8.929   2.315 -1.7729 -0.4496 -0.5332
16284SOL     OW49984   3.861   4.818   0.312 -0.3059 -0.0252 -0.1468
16284SOL    HW149985   3.839   4.888   0.374  0.6780  1.2868 -1.2119
16284SOL    HW249986   3.880   4.864   0.230  1.1310 -1.4854 -0.6870
16285SOL     OW49987   7.551   0.148   6.265 -0.0390 -0.0306  0.1997
16285SOL    HW149988   7.520   0.119   6.179 -0.3755 -0.7219  0.5485
16285SOL    HW249989   7.606   0.077   6.297 -0.6647 -0.1902  0.9553
16286SOL     OW49990   4.495   2.357   6.359 -0.0632 -0.1767  0.4520
16286SOL    HW149991   4.566   2.323   6.305 -0.8102 -2.3927  0.7675
16286SOL    HW249992   4.538   2.419   6.419  1.1928  0.2831 -0.8688
16287SOL     OW49993   8.628   7.816   1.375  0.5341 -0.4808 -0.0323
16287SOL    HW149994   8.618   7.800   1.469 -0.2296 -1.0004 -0.1879
16287SOL    HW249995   8.541   7.844   1.347  1.0936  1.0161 -0.3520
16288SOL     OW49996   7.681   6.328   8.887 -0.0779 -0.5143  0.4054
16288SOL    HW149997   7.673   6.232   8.886  1.8695 -0.7253  0.6829
16288SOL    HW249998   7.678   6.351   8.980  1.6518 -0.5836  0.5161
16289SOL     OW49999   5.085   4.276   4.103 -0.2536 -0.0844  0.6684
16289SOL    HW150000   5.117   4.361   4.074  0.9055 -0.3218  1.2073
16289SOL    HW250001   4.989   4.286   4.106 -0.2293  0.7248 -0.6935
16290SOL     OW50002   5.391   5.591   8.020  0.0472  0.5305 -0.6751
16290SOL    HW150003   5.399   5.561   7.929 -1.2216 -1.2424 -0.2682
16290SOL    HW250004   5.402   5.512   8.072 -0.8218  1.2310  0.6332
16291SOL     OW50005   1.607   7.177   1.224  0.2167  0.0593 -0.8506
16291SOL    HW150006   1.529   7.124   1.204  0.5974 -0.3845 -1.1637
16291SOL    HW250007   1.583   7.224   1.304 -0.7473  0.6971 -1.5014
16292SOL     OW50008   1.702   5.848   5.811 -0.4569 -0.4712  0.0163
16292SOL    HW150009   1.621   5.887   5.778 -1.4912 -2.7136 -0.2904
16292SOL    HW250010   1.698   5.757   5.781  2.5963 -0.4680 -0.7573
16293SOL     OW50011   2.946   4.870   2.442 -0.3323  0.6998  0.4796
16293SOL    HW150012   3.007   4.796   2.447  0.3745  1.2766  0.6782
16293SOL    HW250013   2.871   4.843   2.494 -0.1094  0.0976  0.5004
16294SOL     OW50014   6.268   6.635   6.155  0.6530  0.0723  0.1664
16294SOL    HW150015   6.253   6.675   6.241 -2.2808  2.2966 -1.1817
16294SOL    HW250016   6.229   6.548   6.163 -1.1429  0.8626  0.7180
16295SOL     OW50017   2.303   4.544   6.253  0.3345 -0.0694 -0.1125
16295SOL    HW150018   2.219   4.579   6.280  0.9394  1.0892  0.3346
16295SOL    HW250019   2.293   4.449   6.259 -0.2095  0.0884  2.2264
16296SOL     OW50020   6.882   5.782   4.432  0.3309 -0.5601  0.1790
16296SOL    HW150021   6.874   5.824   4.347  3.4631 -1.0041 -0.4507
16296SOL    HW250022   6.872   5.688   4.414 -2.3502 -0.4992  0.9173
16297SOL     OW50023   5.460   0.679   4.718  0.3794 -0.1681  0.0124
16297SOL    HW150024   5.518   0.615   4.761  0.6524 -0.6741 -1.0858
16297SOL    HW250025   5.422   0.728   4.791  1.8745 -0.0906  0.7954
16298SOL     OW50026   5.068   0.856   4.615  0.5570  0.2097  0.2140
16298SOL    HW150027   5.147   0.839   4.564  1.1179  2.0084  0.4008
16298SOL    HW250028   5.100   0.898   4.695 -0.5560  0.8330  0.3557
16299SOL     OW50029   7.997   7.778   5.960  0.2323  0.0263 -0.8868
16299SOL    HW150030   8.003   7.700   6.015  3.6049  1.6058  1.3058
16299SOL    HW250031   7.915   7.820   5.987  0.7034 -0.3964  1.4149
16300SOL     OW50032   3.019   7.910   8.267  0.0677  0.3497 -0.4787
16300SOL    HW150033   3.001   7.925   8.360 -0.0909 -1.2732 -0.2269
16300SOL    HW250034   2.937   7.935   8.223  0.4868  2.1369 -0.3304
16301SOL     OW50035   1.373   6.765   2.463 -0.0599 -0.1665 -0.1972
16301SOL    HW150036   1.381   6.766   2.368  1.9759  1.2376 -0.0591
16301SOL    HW250037   1.458   6.734   2.494 -0.6285 -0.4212  1.1787
16302SOL     OW50038   8.911   1.875   0.626  0.2734  0.3772 -0.4194
16302SOL    HW150039   8.948   1.959   0.655 -0.6441  1.0108 -1.0202
16302SOL    HW250040   8.975   1.841   0.564  0.2194  1.0808 -0.8658
16303SOL     OW50041   0.967   1.884   2.112 -0.0296 -0.1329 -0.4123
16303SOL    HW150042   0.953   1.894   2.018 -0.7300 -0.4413 -0.3386
16303SOL    HW250043   0.892   1.928   2.153  0.5455  0.4833  0.0171
16304SOL     OW50044   0.019   8.000   1.360  0.1927  0.0667 -0.2295
16304SOL    HW150045   0.049   8.063   1.295 -0.7084  0.8668  0.1057
16304SOL    HW250046  -0.065   7.969   1.326  1.1536 -1.8585 -0.9765
16305SOL     OW50047   7.244   2.154   3.706 -0.1459 -0.0307  0.9410
16305SOL    HW150048   7.258   2.237   3.660  1.9329 -1.4363 -1.2145
16305SOL    HW250049   7.324   2.140   3.756  0.3514 -1.5797 -0.2213
16306SOL     OW50050   6.535   7.414   6.300  0.1711  0.6194  0.2119
16306SOL    HW150051   6.493   7.349   6.356  1.2263 -0.1426  0.1588
16306SOL    HW250052   6.621   7.427   6.339  1.1515 -0.3369 -1.5006
16307SOL     OW50053   1.099   7.946   9.003 -0.3893 -0.0676  0.1941
16307SOL    HW150054   1.007   7.922   8.995 -1.0057  1.8949  0.9259
16307SOL    HW250055   1.111   7.965   9.096  0.4942  0.6468 -0.0538
16308SOL     OW50056   8.378   8.481   5.422 -0.0473 -0.2394  0.0272
16308SOL    HW150057   8.294   8.505   5.382  0.3040 -0.1744 -0.6781
16308SOL    HW250058   8.368   8.389   5.446  0.0704 -0.5582 -1.0968
16309SOL     OW50059   1.839   2.242   6.151 -0.0307 -0.6194 -0.3115
16309SOL    HW150060   1.887   2.291   6.083 -0.6346  0.6664  0.1440
16309SOL    HW250061   1.904   2.183   6.188  2.0274  2.6465  1.8943
16310SOL     OW50062   2.862   4.528   6.856 -0.0761 -0.2080 -0.1366
16310SOL    HW150063   2.927   4.560   6.794  0.4348 -0.6628  0.1545
16310SOL    HW250064   2.780   4.567   6.827 -0.2801 -2.1287 -2.4022
16311SOL     OW50065   1.225   6.759   5.885 -0.9168  0.1535  0.1968
16311SOL    HW150066   1.245   6.751   5.792  2.8173  0.1278  0.8285
16311SOL    HW250067   1.130   6.759   5.889 -1.2471 -0.3701 -3.5466
16312SOL     OW50068   2.052   6.986   3.548  0.5845  0.3490 -0.3102
16312SOL    HW150069   1.964   6.990   3.511  0.8328  1.0097 -0.8619
16312SOL    HW250070   2.073   6.892   3.550 -0.2516  0.1666  0.1389
16313SOL     OW50071   1.509   0.053   5.128 -0.1052  0.2609  0.4750
16313SOL    HW150072   1.444   0.057   5.198 -1.4992 -2.6118 -0.5185
16313SOL    HW250073   1.458   0.048   5.047  1.4237  0.8291 -0.5776
16314SOL     OW50074   3.296   1.264   2.534  0.0622  0.4035 -0.0720
16314SOL    HW150075   3.229   1.255   2.466 -0.7470  0.1064  0.7297
16314SOL    HW250076   3.343   1.181   2.532 -2.7108 -1.4588  2.4887
16315SOL     OW50077   5.092   5.424   7.688 -0.3029  1.1341  0.2939
16315SOL    HW150078   5.094   5.383   7.602  0.9284 -0.9680  1.2476
16315SOL    HW250079   5.137   5.508   7.675  0.2913  0.6363 -1.0130
16316SOL     OW50080   2.396   4.514   5.625  0.4198  0.4377 -0.2600
16316SOL    HW150081   2.450   4.493   5.701 -0.9269  3.5200  1.7658
16316SOL    HW250082   2.458   4.532   5.555  1.7325 -1.5537  0.3140
16317SOL     OW50083   6.033   2.636   1.352  0.8264  0.3062 -0.3491
16317SOL    HW150084   5.992   2.617   1.268 -0.2549  3.5529 -0.7089
16317SOL    HW250085   6.086   2.559   1.371 -3.7586 -3.3618 -0.8542
16318SOL     OW50086   1.348   8.666   7.698  0.0802  0.3017  0.3345
16318SOL    HW150087   1.289   8.729   7.657  0.4745 -0.0204 -0.7782
16318SOL    HW250088   1.359   8.597   7.632  1.8651  0.4709  0.4155
16319SOL     OW50089   6.599   9.084   7.076  0.6427 -0.1572  0.6204
16319SOL    HW150090   6.602   9.158   7.136  0.1313 -0.9131  1.6082
16319SOL    HW250091   6.690   9.073   7.048  0.6539  1.1086  0.1060
16320SOL     OW50092   8.572   5.590   6.523  0.9666  0.5880 -0.5381
16320SOL    HW150093   8.540   5.640   6.448 -0.5873 -1.0174 -1.0209
16320SOL    HW250094   8.534   5.503   6.511  2.9501 -0.5024  0.6540
16321SOL     OW50095   5.063   6.491   5.775 -0.0994  0.4198 -0.5512
16321SOL    HW150096   5.079   6.575   5.731 -0.3629  1.5563  1.3989
16321SOL    HW250097   5.141   6.476   5.828 -0.8362  0.3818  0.5380
16322SOL     OW50098   2.851   6.888   0.107  0.4661  0.2880 -0.0530
16322SOL    HW150099   2.849   6.809   0.053 -0.5081  1.1837 -1.3887
16322SOL    HW250100   2.767   6.888   0.153  1.8355 -1.2093  2.6787
16323SOL     OW50101   1.797   5.351   3.566 -0.2703 -0.4572  0.4014
16323SOL    HW150102   1.735   5.418   3.537  1.1903  0.1740 -1.4709
16323SOL    HW250103   1.875   5.400   3.593  0.1604 -1.3193  0.7642
16324SOL     OW50104   8.153   1.520   0.929  0.3126  0.1072 -0.0201
16324SOL    HW150105   8.069   1.507   0.884 -0.1871 -0.0936  0.9549
16324SOL    HW250106   8.132   1.519   1.022  1.3068  0.7508  0.2289
16325SOL     OW50107   8.419   7.808   3.840  0.2149 -0.5247 -0.0512
16325SOL    HW150108   8.398   7.890   3.885  0.8578 -1.7900  2.7644
16325SOL    HW250109   8.336   7.780   3.802 -0.3034  0.7639  0.0897
16326SOL     OW50110   8.368   2.448   1.927  0.2563 -0.1198 -0.1961
16326SOL    HW150111   8.448   2.486   1.963  1.2752 -0.2767 -2.1413
16326SOL    HW250112   8.300   2.513   1.942  0.8510  0.2225  1.0596
16327SOL     OW50113   0.312   5.713   5.555  0.4389 -0.3450 -0.4735
16327SOL    HW150114   0.359   5.795   5.567 -0.1023 -0.2357  1.2097
16327SOL    HW250115   0.232   5.738   5.508  0.5315 -0.0044 -0.4531
16328SOL     OW50116   7.574   2.581   0.213 -0.0346 -0.3043 -0.8231
16328SOL    HW150117   7.499   2.552   0.265  0.6385 -0.3433  0.1356
16328SOL    HW250118   7.650   2.569   0.270  0.8425 -1.1515 -2.1005
16329SOL     OW50119   2.343   7.489   1.115 -0.3922 -0.3406 -0.8340
16329SOL    HW150120   2.399   7.440   1.056  2.0814  0.8893  0.3165
16329SOL    HW250121   2.277   7.426   1.145  1.1320 -2.2365 -1.3063
16330SOL     OW50122   6.477   5.690   1.698  0.0224  0.1068  0.0738
16330SOL    HW150123   6.556   5.715   1.746  0.3906  1.1464 -1.0320
16330SOL    HW250124   6.465   5.759   1.633 -0.7487 -1.0046 -1.0032
16331SOL     OW50125   2.438   6.869   1.870 -0.2580  0.2965 -0.3902
16331SOL    HW150126   2.479   6.879   1.956  1.3391  2.2267 -1.3050
16331SOL    HW250127   2.355   6.916   1.877 -0.8915 -0.8836  0.5058
16332SOL     OW50128   3.483   8.412   0.695  0.3900 -0.0122 -0.4617
16332SOL    HW150129   3.471   8.497   0.653 -0.4037 -0.2221 -0.6800
16332SOL    HW250130   3.511   8.433   0.784 -2.5311  0.6135  0.4364
16333SOL     OW50131   7.386   3.613   7.460 -0.4659  0.1196 -0.3421
16333SOL    HW150132   7.479   3.591   7.467 -0.4949  0.0543 -0.1642
16333SOL    HW250133   7.384   3.709   7.465 -0.1664  0.3381 -2.9030
16334SOL     OW50134   6.661   5.896   1.166 -0.6480 -0.0974 -0.5637
16334SOL    HW150135   6.569   5.873   1.181 -0.6659 -1.0026 -1.8493
16334SOL    HW250136   6.663   5.922   1.073  0.8876 -2.9493 -1.4326
16335SOL     OW50137   0.847   8.800   3.244 -0.2354  0.6319  0.3700
16335SOL    HW150138   0.806   8.858   3.180  1.5656  0.0419 -1.4236
16335SOL    HW250139   0.822   8.836   3.329 -1.3764  2.4260 -0.6701
16336SOL     OW50140   8.385   1.660   5.707 -0.5407 -0.2129 -0.2975
16336SOL    HW150141   8.359   1.741   5.664 -0.4691  0.1980  0.4090
16336SOL    HW250142   8.370   1.591   5.642 -3.3023 -0.0069  0.0343
16337SOL     OW50143   0.186   0.196   2.453  0.4808 -0.1242 -0.0158
16337SOL    HW150144   0.178   0.123   2.515  2.4525  0.3304  0.8540
16337SOL    HW250145   0.215   0.155   2.371 -0.3824 -0.5265 -0.1273
16338SOL     OW50146   8.401   8.301   0.595 -0.2035 -0.4754 -0.2718
16338SOL    HW150147   8.402   8.357   0.672  0.4771  0.3614 -0.8665
16338SOL    HW250148   8.330   8.239   0.611 -1.2410  0.7842  0.2491
16339SOL     OW50149   6.867   6.784   7.145  0.1587 -0.4411  0.2634
16339SOL    HW150150   6.774   6.771   7.167 -0.2135  2.1826  0.5499
16339SOL    HW250151   6.879   6.735   7.063 -2.0787  0.8860 -0.9642
16340SOL     OW50152   2.075   4.484   0.047 -0.0678 -0.3145  0.0032
16340SOL    HW150153   2.063   4.406   0.101 -0.4266 -1.3357 -1.4852
16340SOL    HW250154   2.166   4.480   0.017  0.0708  0.1328  0.3570
16341SOL     OW50155   8.427   2.074   0.559 -0.9148 -0.8910 -0.1902
16341SOL    HW150156   8.342   2.061   0.517 -1.2001  1.0064 -0.2633
16341SOL    HW250157   8.489   2.079   0.486 -0.7548 -1.9475 -0.1492
16342SOL     OW50158   4.529   5.570   3.582  0.7288  0.2422 -0.2859
16342SOL    HW150159   4.487   5.629   3.520  1.0105  0.6857 -0.0597
16342SOL    HW250160   4.618   5.559   3.548  0.4477 -0.6755 -0.7518
16343SOL     OW50161   0.828   1.258   3.231  0.1319 -0.3017 -0.3262
16343SOL    HW150162   0.887   1.281   3.302  0.4146 -0.7059 -0.4271
16343SOL    HW250163   0.885   1.220   3.164 -0.1576 -0.1169 -0.6840
16344SOL     OW50164   4.975   7.749   3.566 -0.2842 -0.0894  0.3847
16344SOL    HW150165   5.041   7.798   3.517  0.1209  1.9102  2.7584
16344SOL    HW250166   4.892   7.790   3.542  0.0876  2.3015  2.6945
16345SOL     OW50167   2.322   5.896   1.142 -0.2345  0.0016 -0.1273
16345SOL    HW150168   2.269   5.972   1.168 -1.6382 -1.1417  0.4366
16345SOL    HW250169   2.392   5.934   1.088 -1.9538  1.5046 -1.4367
16346SOL     OW50170   7.500   2.667   2.557 -0.2386 -0.9508  0.5775
16346SOL    HW150171   7.553   2.612   2.499 -1.0174 -2.1793  1.0058
16346SOL    HW250172   7.440   2.713   2.498 -0.1151 -1.1599  0.2879
16347SOL     OW50173   3.783   7.721   0.381  0.2547  0.0359 -0.2714
16347SOL    HW150174   3.701   7.705   0.427 -0.2402 -1.6533 -1.5892
16347SOL    HW250175   3.829   7.637   0.384  0.9385  0.3387 -1.3794
16348SOL     OW50176   4.048   6.060   0.687  0.1049 -0.1495 -0.3759
16348SOL    HW150177   4.102   6.053   0.608 -0.4028 -1.0313 -0.6635
16348SOL    HW250178   3.967   6.016   0.664 -0.0638 -0.3800  0.6281
16349SOL     OW50179   3.125   1.125   1.287  0.2395 -0.0930  0.1690
16349SOL    HW150180   3.090   1.071   1.217  3.4857 -1.7939 -0.3542
16349SOL    HW250181   3.113   1.215   1.257 -0.3543 -0.7215 -1.5785
16350SOL     OW50182   8.854   8.837   2.623 -0.1055  0.0962 -0.3222
16350SOL    HW150183   8.896   8.922   2.613  1.3608 -0.5102  0.4030
16350SOL    HW250184   8.926   8.776   2.640 -1.2435 -1.0640  0.5644
16351SOL     OW50185   1.645   0.397   2.182  0.2444  0.0074 -0.0982
16351SOL    HW150186   1.565   0.448   2.169 -0.1856 -0.0689  1.9503
16351SOL    HW250187   1.614   0.311   2.209  0.9968  0.3986  2.1533
16352SOL     OW50188   1.367   2.144   5.878 -0.3683  0.1274 -0.3269
16352SOL    HW150189   1.438   2.121   5.937 -1.1370 -0.8355  0.2465
16352SOL    HW250190   1.408   2.147   5.791  0.1328 -1.6398 -0.1754
16353SOL     OW50191   8.595   8.584   6.166 -0.4453  0.2688  0.2429
16353SOL    HW150192   8.675   8.599   6.117 -0.9818  1.8252 -0.2373
16353SOL    HW250193   8.621   8.586   6.258  0.0677  0.8279  0.0886
16354SOL     OW50194   4.072   1.551   0.143  0.2845 -0.1151 -0.2352
16354SOL    HW150195   4.070   1.482   0.076  0.1894 -0.0527 -0.2966
16354SOL    HW250196   4.047   1.631   0.096 -0.6730 -0.2320  0.0644
16355SOL     OW50197   8.740   1.860   4.551  0.1331 -0.3859 -0.3779
16355SOL    HW150198   8.775   1.850   4.463 -0.3987  0.3689 -0.6815
16355SOL    HW250199   8.772   1.945   4.581 -0.1261 -0.4012 -0.0442
16356SOL     OW50200   3.785   2.532   4.287  0.4062 -0.1865 -0.0414
16356SOL    HW150201   3.758   2.606   4.234 -2.3483 -0.1971  1.1546
16356SOL    HW250202   3.843   2.480   4.230  0.7757  1.8019 -1.5641
16357SOL     OW50203   7.128   0.107   8.982 -0.6450 -0.2418 -0.0243
16357SOL    HW150204   7.102   0.162   8.908  1.5011  0.4031 -0.3730
16357SOL    HW250205   7.206   0.061   8.950 -1.9667 -3.0506  0.4733
16358SOL     OW50206   0.665   3.576   5.163 -0.1577 -0.1832 -0.3261
16358SOL    HW150207   0.721   3.575   5.241 -0.7631 -0.1181  0.1167
16358SOL    HW250208   0.713   3.523   5.099  0.3398 -0.2502  0.0902
16359SOL     OW50209   1.659   1.747   1.215 -0.0920 -0.5481  0.0196
16359SOL    HW150210   1.716   1.679   1.178  0.7946  0.1610  0.0282
16359SOL    HW250211   1.594   1.765   1.147  0.9313  0.0522 -0.8334
16360SOL     OW50212   6.473   4.234   0.566 -0.3108 -0.1089 -0.5150
16360SOL    HW150213   6.494   4.307   0.625  2.0134  0.0817 -1.4687
16360SOL    HW250214   6.391   4.199   0.600 -0.3976  1.6149  1.2538
16361SOL     OW50215   1.916   2.891   8.922 -0.1642  0.3551 -0.0598
16361SOL    HW150216   1.996   2.858   8.880 -0.9637 -2.6616  0.5714
16361SOL    HW250217   1.846   2.867   8.861 -0.9007 -0.1139  0.9433
16362SOL     OW50218   3.087   1.185   7.702  0.3498 -0.2037  0.1811
16362SOL    HW150219   2.994   1.167   7.687  0.1902  2.1262 -2.3659
16362SOL    HW250220   3.133   1.121   7.647  0.2043 -0.0875 -0.0734
16363SOL     OW50221   6.217   6.185   8.655  0.0359 -0.6169 -0.2925
16363SOL    HW150222   6.265   6.198   8.573 -0.9753 -0.4488 -0.8686
16363SOL    HW250223   6.229   6.267   8.702  2.5092 -1.4805  0.7765
16364SOL     OW50224   0.171   2.166   2.561 -0.1129 -0.1999 -0.3097
16364SOL    HW150225   0.088   2.128   2.532  0.0853 -0.7388 -0.1788
16364SOL    HW250226   0.161   2.177   2.655  0.4612 -1.5384 -0.0826
16365SOL     OW50227   6.313   5.993   7.574  0.0023  0.3054 -0.0985
16365SOL    HW150228   6.292   5.919   7.631  0.3933  0.0957 -0.2240
16365SOL    HW250229   6.229   6.024   7.542 -0.0962 -0.8227 -0.9871
16366SOL     OW50230   0.280   4.062   1.795 -0.3468 -0.2346  0.2713
16366SOL    HW150231   0.257   4.045   1.886 -1.0567 -0.7958  0.0020
16366SOL    HW250232   0.369   4.097   1.798 -0.5912  0.3395  1.2233
16367SOL     OW50233   3.299   0.197   2.650 -0.1130 -0.6198  0.2203
16367SOL    HW150234   3.345   0.179   2.569 -2.1599  1.1931 -1.4715
16367SOL    HW250235   3.241   0.270   2.629 -1.0026 -0.3165  3.2307
16368SOL     OW50236   4.842   6.225   1.656 -0.3551  0.8223 -0.3570
16368SOL    HW150237   4.918   6.277   1.685 -1.5387  2.4851 -0.0453
16368SOL    HW250238   4.879   6.145   1.621  1.4604  0.8728  1.2925
16369SOL     OW50239   4.860   5.991   0.220  0.3299 -0.1535  0.0171
16369SOL    HW150240   4.871   6.085   0.236  1.0697 -0.1699 -0.3492
16369SOL    HW250241   4.891   5.979   0.130  1.7144 -1.0023  0.5755
16370SOL     OW50242   3.488   0.296   4.271 -0.1766 -0.1311  0.0298
16370SOL    HW150243   3.456   0.333   4.354  0.1686  2.2709 -0.8181
16370SOL    HW250244   3.575   0.263   4.292 -0.2785  0.0192  0.7276
16371SOL     OW50245   7.239   3.409   7.534  0.5367  0.4566  0.2283
16371SOL    HW150246   7.152   3.427   7.500 -0.4593  1.6286  3.1115
16371SOL    HW250247   7.294   3.478   7.495  0.7649 -1.4056 -3.1502
16372SOL     OW50248   5.278   7.772   0.888 -0.1540 -0.2323 -0.4612
16372SOL    HW150249   5.289   7.766   0.793 -0.5137  1.6192 -0.6516
16372SOL    HW250250   5.237   7.857   0.902  0.6713 -0.1032  1.4298
16373SOL     OW50251   3.162   7.496   7.342  0.4111 -0.5584 -0.1114
16373SOL    HW150252   3.161   7.448   7.425  1.1383 -0.2714  0.0740
16373SOL    HW250253   3.248   7.476   7.304  0.0800 -0.6966 -0.8054
16374SOL     OW50254   1.232   3.779   4.035 -0.6579  0.1379  0.2399
16374SOL    HW150255   1.161   3.816   3.983 -0.4347  0.4767  0.1734
16374SOL    HW250256   1.291   3.739   3.970 -0.3495  0.6119  0.2202
16375SOL     OW50257   4.755   6.420   3.067 -0.2855 -0.4590  0.5561
16375SOL    HW150258   4.748   6.503   3.020 -1.2325 -0.9094 -0.1453
16375SOL    HW250259   4.768   6.445   3.159 -2.1544  0.5056  0.6120
16376SOL     OW50260   5.718   4.606   4.319 -0.7829 -0.1261  0.0943
16376SOL    HW150261   5.651   4.663   4.280  0.0615  0.7407 -0.1487
16376SOL    HW250262   5.694   4.600   4.411 -1.9767 -0.9918 -0.2531
16377SOL     OW50263   2.634   5.211   7.750  0.3231 -0.4730 -0.5822
16377SOL    HW150264   2.644   5.235   7.842  1.4405 -1.1604 -0.5124
16377SOL    HW250265   2.539   5.218   7.734  0.1354 -0.1742  0.5570
16378SOL     OW50266   8.268   7.708   6.684 -0.2694  0.0141  0.7182
16378SOL    HW150267   8.344   7.753   6.649  0.2023 -1.8998 -0.9040
16378SOL    HW250268   8.303   7.646   6.748 -0.6596  0.3548  1.2689
16379SOL     OW50269   2.155   3.427   3.550 -0.1658  0.1521  0.2761
16379SOL    HW150270   2.066   3.396   3.567  0.0353 -0.6601 -0.1202
16379SOL    HW250271   2.184   3.464   3.633 -0.2439 -1.1473  0.9009
16380SOL     OW50272   7.763   2.232   4.203  0.0446 -0.0591 -0.0798
16380SOL    HW150273   7.694   2.296   4.184 -0.8041 -1.0747 -0.5860
16380SOL    HW250274   7.723   2.173   4.267 -0.3147 -1.7987 -1.7962
16381SOL     OW50275   1.654   2.286   2.044  0.0899 -0.0561  0.2455
16381SOL    HW150276   1.688   2.324   2.125 -1.5871  1.3647  0.3365
16381SOL    HW250277   1.559   2.297   2.050 -0.0661  0.2045 -1.9689
16382SOL     OW50278   4.473   5.763   3.287 -0.1083  0.3239 -0.1037
16382SOL    HW150279   4.412   5.830   3.255  0.2957  0.4731 -0.5851
16382SOL    HW250280   4.429   5.680   3.270 -0.3319  0.4449 -0.1148
16383SOL     OW50281   8.123   8.240   4.506 -0.3583 -0.5275 -0.3838
16383SOL    HW150282   8.040   8.286   4.492  0.0333  0.1200 -0.6861
16383SOL    HW250283   8.189   8.301   4.472  0.3388 -0.5144  0.9508
16384SOL     OW50284   8.639   5.220   4.580  0.7065 -0.1148 -0.3520
16384SOL    HW150285   8.660   5.227   4.674  0.6628  0.1137 -0.3591
16384SOL    HW250286   8.653   5.127   4.560  1.5782 -0.0051 -0.3190
16385SOL     OW50287   7.784   2.043   0.339  0.1090  1.1698 -0.0794
16385SOL    HW150288   7.729   1.968   0.363  0.1618  0.8041 -1.0783
16385SOL    HW250289   7.725   2.118   0.344 -0.1543  0.9520  0.1193
16386SOL     OW50290   3.526   6.638   2.221  0.4027 -0.3865  0.1571
16386SOL    HW150291   3.589   6.598   2.281  0.3859 -1.6239 -0.6163
16386SOL    HW250292   3.579   6.680   2.154  0.4110 -0.9248 -0.1750
16387SOL     OW50293   7.293   0.421   8.402  0.5341 -0.1327  0.1230
16387SOL    HW150294   7.287   0.397   8.494  0.5083  0.6622  0.3337
16387SOL    HW250295   7.387   0.418   8.383  0.6181  0.6018  0.4206
16388SOL     OW50296   9.097   6.857   4.420 -0.5171  0.1067 -0.5474
16388SOL    HW150297   9.191   6.854   4.438 -0.7519 -0.6680  0.6480
16388SOL    HW250298   9.077   6.770   4.385 -0.5156  0.7986 -2.3511
16389SOL     OW50299   8.491   4.979   8.391 -0.1237 -0.1290 -0.6395
16389SOL    HW150300   8.491   5.037   8.467 -0.4117 -1.0583  0.0943
16389SOL    HW250301   8.431   4.908   8.415 -2.7334  1.0815 -2.9634
16390SOL     OW50302   1.118   4.255   0.968  0.3793 -0.0580  0.7173
16390SOL    HW150303   1.026   4.232   0.958  0.6417 -0.8877  0.0478
16390SOL    HW250304   1.118   4.348   0.989 -0.5604  0.2679 -0.6184
16391SOL     OW50305   6.104   0.839   2.925  0.2965 -0.0853 -0.2003
16391SOL    HW150306   6.009   0.843   2.912  0.0533  1.2366  1.5793
16391SOL    HW250307   6.115   0.825   3.019  1.8713  0.2380 -0.3037
16392SOL     OW50308   4.380   2.183   0.532  0.0971  0.0184 -0.0556
16392SOL    HW150309   4.438   2.259   0.525  0.1076 -0.0523 -0.7932
16392SOL    HW250310   4.432   2.110   0.498  0.3897 -0.5033  1.4108
16393SOL     OW50311   7.800   8.581   5.030  0.1576 -0.1728  0.5767
16393SOL    HW150312   7.825   8.529   5.107  0.2608  1.0346  1.3885
16393SOL    HW250313   7.817   8.672   5.056 -1.5466  0.4107 -0.2169
16394SOL     OW50314   8.506   5.657   0.784  0.1122  0.2157 -0.0198
16394SOL    HW150315   8.461   5.718   0.726 -0.0841 -0.1815 -0.2916
16394SOL    HW250316   8.572   5.709   0.829  0.0187  0.5991 -0.3333
16395SOL     OW50317   1.472   6.244   8.373  0.2348  0.3920 -0.1143
16395SOL    HW150318   1.452   6.313   8.436  1.2988  0.2924  0.3589
16395SOL    HW250319   1.454   6.284   8.288 -1.2156  0.5288  0.2365
16396SOL     OW50320   2.817   3.254   0.251 -0.3205 -0.3984 -0.2242
16396SOL    HW150321   2.754   3.182   0.256  0.4774 -1.0637  0.6297
16396SOL    HW250322   2.766   3.333   0.269 -1.1004 -0.8053 -0.6195
16397SOL     OW50323   7.372   6.729   9.087  0.4078 -0.2859 -0.4331
16397SOL    HW150324   7.357   6.636   9.103 -1.4348  0.0269 -0.1497
16397SOL    HW250325   7.339   6.744   8.998 -0.5842  0.3350  0.0213
16398SOL     OW50326   1.693   5.717   8.049 -0.3084  0.2181 -0.3326
16398SOL    HW150327   1.701   5.767   8.130 -0.8654 -0.2301  0.0043
16398SOL    HW250328   1.721   5.629   8.072 -2.0993 -0.3475 -0.1751
16399SOL     OW50329   7.969   6.047   4.903 -0.7657  0.3769  0.2654
16399SOL    HW150330   7.984   6.004   4.819  0.0121 -0.8929  1.0225
16399SOL    HW250331   8.053   6.041   4.949 -0.7485  2.3790  0.5673
16400SOL     OW50332   6.625   2.009   2.056 -0.4130 -0.0616 -0.4578
16400SOL    HW150333   6.564   1.941   2.083  0.8022 -0.4677  1.4957
16400SOL    HW250334   6.707   1.987   2.102  0.2227  2.2992 -0.3424
16401SOL     OW50335   0.718   3.493   4.230 -0.1445 -0.1127 -0.6026
16401SOL    HW150336   0.665   3.555   4.181  0.6765  1.2076  0.1256
16401SOL    HW250337   0.706   3.518   4.322 -0.9036 -1.9314 -0.1574
16402SOL     OW50338   1.635   0.891   7.870 -0.0566  0.6263 -0.4455
16402SOL    HW150339   1.692   0.899   7.946 -1.0361 -0.5605  0.4475
16402SOL    HW250340   1.555   0.938   7.895  0.0831  1.3157 -1.2491
16403SOL     OW50341   0.306   5.707   8.929 -0.1830 -0.1897 -0.0703
16403SOL    HW150342   0.234   5.701   8.992  0.4279  0.4861  0.7183
16403SOL    HW250343   0.361   5.631   8.947 -0.1247 -0.1143  0.0770
16404SOL     OW50344   6.911   7.160   7.413  0.5819 -0.7449 -0.0013
16404SOL    HW150345   6.922   7.103   7.490 -0.7979 -1.2673 -0.1654
16404SOL    HW250346   6.868   7.104   7.348 -1.4461  0.6535  0.0635
16405SOL     OW50347   2.605   5.429   5.223 -0.5208 -0.2191  0.5357
16405SOL    HW150348   2.678   5.369   5.206  1.4151  1.2844  2.9092
16405SOL    HW250349   2.584   5.466   5.137  2.2898  0.1101 -0.0970
16406SOL     OW50350   6.705   5.987   3.692 -0.3936 -0.0772 -0.0678
16406SOL    HW150351   6.724   6.061   3.749 -1.0411 -0.1891  0.3008
16406SOL    HW250352   6.676   6.027   3.610 -0.3744  0.0771  0.0004
16407SOL     OW50353   1.612   7.994   7.998  0.0416  0.4452 -0.2639
16407SOL    HW150354   1.652   7.968   7.915  0.4949  0.3244 -0.0131
16407SOL    HW250355   1.559   7.919   8.023  0.1545  0.3565 -0.2893
16408SOL     OW50356   3.166   6.685   5.803 -0.1866 -0.0416 -0.1058
16408SOL    HW150357   3.240   6.716   5.750 -0.1484 -0.5073 -0.3316
16408SOL    HW250358   3.179   6.725   5.888 -0.7529  1.4743 -0.6954
16409SOL     OW50359   2.829   2.769   5.370 -0.5973  0.5295  0.3366
16409SOL    HW150360   2.765   2.752   5.439  0.2060 -0.3675  0.8950
16409SOL    HW250361   2.913   2.747   5.410 -0.0614  0.5095 -0.7673
16410SOL     OW50362   5.976   8.647   0.770  0.3836  0.4738 -0.1974
16410SOL    HW150363   5.918   8.583   0.812  0.1636  0.0089 -1.1772
16410SOL    HW250364   6.045   8.662   0.833  0.7203 -1.1296 -0.1432
16411SOL     OW50365   9.063   7.153   8.310  0.3299  0.4464 -0.1692
16411SOL    HW150366   9.054   7.231   8.365 -2.7577  1.4851 -1.8880
16411SOL    HW250367   9.098   7.086   8.368  0.7709  2.4325  2.0195
16412SOL     OW50368   8.270   3.902   4.855 -0.8213 -0.5110  0.0466
16412SOL    HW150369   8.296   3.810   4.853  0.9125 -0.0607  0.1186
16412SOL    HW250370   8.339   3.947   4.807 -1.1631  0.8635  0.7888
16413SOL     OW50371   3.778   7.254   2.248  0.0452 -0.2584  0.2957
16413SOL    HW150372   3.844   7.303   2.298  1.9092  0.0586 -2.2438
16413SOL    HW250373   3.707   7.316   2.235  0.8750  0.6750  0.0281
16414SOL     OW50374   0.474   3.737   3.185  0.5195 -0.2191 -0.1650
16414SOL    HW150375   0.560   3.695   3.174  0.4420 -0.6200  0.6388
16414SOL    HW250376   0.420   3.702   3.114  0.3405 -1.8168  0.7001
16415SOL     OW50377   7.941   6.965   8.780 -0.1981 -0.2096 -0.3479
16415SOL    HW150378   7.909   7.014   8.705 -0.0551 -0.3301 -0.4886
16415SOL    HW250379   7.932   7.025   8.854  1.3836  0.5919 -0.7540
16416SOL     OW50380   3.562   2.525   4.486  0.6589 -0.2594 -0.2385
16416SOL    HW150381   3.627   2.553   4.551  1.6398 -0.1746 -1.2171
16416SOL    HW250382   3.612   2.470   4.426 -0.4511 -1.1650 -0.3701
16417SOL     OW50383   0.225   6.920   4.554  0.0684  0.0978 -0.0991
16417SOL    HW150384   0.253   7.007   4.585 -0.2984  0.0547  0.3586
16417SOL    HW250385   0.197   6.874   4.633  1.7119 -0.9974 -0.0980
16418SOL     OW50386   7.003   6.899   8.700 -0.0018  0.0966 -0.2779
16418SOL    HW150387   7.074   6.946   8.656  0.5570 -1.1351 -0.7524
16418SOL    HW250388   6.950   6.968   8.740  1.1830  1.0836 -0.3200
16419SOL     OW50389   5.613   7.527   4.678 -0.2888 -0.2525  0.1710
16419SOL    HW150390   5.660   7.516   4.760  0.6290  0.6140 -0.2249
16419SOL    HW250391   5.671   7.492   4.611  1.0901  3.2101 -0.6600
16420SOL     OW50392   5.312   0.234   8.972 -0.0427 -0.3369 -0.3912
16420SOL    HW150393   5.380   0.302   8.966  1.1735 -1.2699  1.6075
16420SOL    HW250394   5.334   0.173   8.901  0.7031 -0.1908 -0.2975
16421SOL     OW50395   4.180   0.152   0.951 -0.8535  0.1394 -0.4293
16421SOL    HW150396   4.256   0.204   0.976 -2.2643  2.4021 -0.5354
16421SOL    HW250397   4.216   0.079   0.900  1.1868  1.4374 -0.9429
16422SOL     OW50398   1.511   5.969   8.232  0.1793 -0.1540 -0.2344
16422SOL    HW150399   1.463   6.049   8.252  1.6733  0.6083  0.5353
16422SOL    HW250400   1.484   5.946   8.143 -0.4907  1.0507 -0.3645
16423SOL     OW50401   4.461   4.600   7.489  0.4793  0.1458  0.4722
16423SOL    HW150402   4.492   4.686   7.518  0.3104  1.0763 -1.8435
16423SOL    HW250403   4.393   4.620   7.424 -1.0226 -1.7980  1.3415
16424SOL     OW50404   2.952   5.828   7.040  1.0300 -0.0201  0.3520
16424SOL    HW150405   2.981   5.752   6.988 -0.3135 -0.6936  0.5397
16424SOL    HW250406   3.014   5.832   7.112  0.7747 -1.3520  0.6799
16425SOL     OW50407   5.012   4.953   8.274 -0.0049  0.4395  0.2101
16425SOL    HW150408   5.104   4.976   8.271  0.7374 -2.1756  0.0914
16425SOL    HW250409   4.977   4.978   8.188  0.4727  1.7415  0.3780
16426SOL     OW50410   5.031   8.759   0.531 -0.2066 -0.4025  0.1464
16426SOL    HW150411   4.947   8.722   0.559  0.1226 -0.2811  1.3688
16426SOL    HW250412   5.087   8.682   0.517 -0.6147 -0.5008 -1.0458
16427SOL     OW50413   8.371   5.343   0.682 -0.3160 -0.2136 -0.0431
16427SOL    HW150414   8.414   5.358   0.766 -1.8824  0.6012  0.6513
16427SOL    HW250415   8.426   5.390   0.619  0.9037 -0.8765  0.4885
16428SOL     OW50416   3.384   7.539   8.057 -0.6883 -0.1528  0.1430
16428SOL    HW150417   3.313   7.603   8.056 -1.5870 -1.0741  1.1797
16428SOL    HW250418   3.459   7.586   8.093 -1.1115  0.5200  0.1538
16429SOL     OW50419   3.255   3.551   6.316  0.3462  0.6736  0.0676
16429SOL    HW150420   3.204   3.493   6.372 -0.4608  0.6792 -0.6392
16429SOL    HW250421   3.340   3.508   6.308 -0.4295 -0.7559 -0.9326
16430SOL     OW50422   1.901   7.951   5.455 -0.5909 -0.4506  0.1764
16430SOL    HW150423   1.985   7.994   5.471 -0.7936 -0.2604  0.7587
16430SOL    HW250424   1.840   7.995   5.514 -0.9679 -1.0051  0.2084
16431SOL     OW50425   2.804   0.364   7.699  0.4234  0.6152  0.6049
16431SOL    HW150426   2.846   0.304   7.760  1.1680  1.3142  0.7901
16431SOL    HW250427   2.858   0.360   7.620  0.1718  0.6349  0.4320
16432SOL     OW50428   3.095   7.679   5.252  0.1597  0.3607  0.1074
16432SOL    HW150429   3.103   7.730   5.171  0.4012 -0.7121 -0.5569
16432SOL    HW250430   3.185   7.657   5.275  0.0171 -0.3300  0.0217
16433SOL     OW50431   0.869   2.085   1.945  0.4143  0.2072 -0.2700
16433SOL    HW150432   0.861   2.074   1.850  1.1185  3.5835 -0.8737
16433SOL    HW250433   0.784   2.120   1.972  0.5559  0.2397  0.1412
16434SOL     OW50434   1.973   4.969   1.402  0.6052 -0.7349 -0.2585
16434SOL    HW150435   1.928   5.044   1.440 -0.1791 -1.2595 -0.1402
16434SOL    HW250436   2.050   5.007   1.359  0.0212  0.1892 -0.5285
16435SOL     OW50437   5.365   3.651   9.088 -0.7761  0.1229 -0.0865
16435SOL    HW150438   5.412   3.599   9.153  0.2376  0.2921 -0.6619
16435SOL    HW250439   5.275   3.655   9.120 -0.3634 -0.0815  1.1169
16436SOL     OW50440   0.785   6.575   3.683  0.5346 -0.2427  0.3461
16436SOL    HW150441   0.795   6.665   3.715 -0.0076  0.4139 -1.2426
16436SOL    HW250442   0.864   6.560   3.630  1.4642 -1.3481  1.9484
16437SOL     OW50443   3.117   6.925   0.773  0.0920 -0.3810 -0.2877
16437SOL    HW150444   3.047   6.978   0.810  0.4051 -0.9569  1.2107
16437SOL    HW250445   3.129   6.959   0.685 -1.0752  0.6911 -0.0610
16438SOL     OW50446   3.940   4.528   7.691  0.2789 -0.4986  0.2268
16438SOL    HW150447   3.997   4.600   7.717 -0.4573 -0.0532  0.6601
16438SOL    HW250448   3.911   4.551   7.603  1.5631 -1.2426 -0.4163
16439SOL     OW50449   1.900   3.142   8.370 -0.0360  0.4542 -0.3268
16439SOL    HW150450   1.893   3.067   8.429 -0.5062  0.2063 -0.6866
16439SOL    HW250451   1.977   3.189   8.400 -0.0714  0.1442  0.2704
16440SOL     OW50452   1.087   5.825   7.539  0.4204 -0.2067  0.8402
16440SOL    HW150453   1.098   5.778   7.622 -0.3520 -1.5294  0.2166
16440SOL    HW250454   1.015   5.781   7.495 -0.2395  1.4846  0.1360
16441SOL     OW50455   5.652   0.684   5.350  0.8532 -0.1199  0.4553
16441SOL    HW150456   5.653   0.626   5.426  0.4598  1.9663  2.1806
16441SOL    HW250457   5.688   0.767   5.383 -0.9348  1.4065 -1.1450
16442SOL     OW50458   6.515   0.050   8.343  0.0209  0.2275 -0.2819
16442SOL    HW150459   6.589   0.001   8.378  0.6521  0.3807 -1.3718
16442SOL    HW250460   6.458   0.065   8.419  0.3316 -1.2471  0.2710
16443SOL     OW50461   2.381   7.180   6.006 -0.1821 -0.3018  0.0292
16443SOL    HW150462   2.360   7.087   6.011 -1.2469 -0.2184 -1.8940
16443SOL    HW250463   2.448   7.193   6.073 -1.2406 -2.0803  1.5176
16444SOL     OW50464   5.143   8.871   8.737 -0.1423  0.1395  0.1329
16444SOL    HW150465   5.059   8.827   8.750  0.2177 -0.5046  0.3259
16444SOL    HW250466   5.120   8.962   8.719 -0.8024  0.6400  2.9744
16445SOL     OW50467   8.844   4.682   5.223 -0.4260 -0.6642  0.6450
16445SOL    HW150468   8.882   4.656   5.307 -1.8621  0.5059  1.7211
16445SOL    HW250469   8.751   4.693   5.242 -0.3342  2.6970 -0.2919
16446SOL     OW50470   6.297   3.937   8.855 -0.2231 -0.1811  1.0429
16446SOL    HW150471   6.238   3.933   8.930  0.6459 -0.3493  1.7391
16446SOL    HW250472   6.384   3.921   8.893  0.5936  2.3861  0.4453
16447SOL     OW50473   2.438   4.901   0.454 -0.1602  0.1835 -0.1455
16447SOL    HW150474   2.493   4.967   0.411  0.0721 -0.4710 -0.8793
16447SOL    HW250475   2.474   4.818   0.424  0.1514 -0.3079  1.5189
16448SOL     OW50476   0.205   8.812   5.914  0.4834  0.3590  0.3948
16448SOL    HW150477   0.169   8.791   6.000 -1.6698  2.6536  0.1679
16448SOL    HW250478   0.131   8.801   5.854  2.3490 -2.9141 -1.5873
16449SOL     OW50479   8.108   1.068   8.854 -0.5783 -0.8568 -0.1948
16449SOL    HW150480   8.063   1.069   8.769 -2.0440  0.1877  0.5501
16449SOL    HW250481   8.065   1.137   8.905  0.1675 -1.5560  1.4565
16450SOL     OW50482   7.444   0.572   8.107 -0.0425 -0.5192 -0.4042
16450SOL    HW150483   7.453   0.511   8.034 -3.4645 -0.5488 -0.9572
16450SOL    HW250484   7.523   0.558   8.159  1.1741 -2.5315 -2.5759
16451SOL     OW50485   6.477   6.047   2.457 -0.6579  0.2898 -0.1826
16451SOL    HW150486   6.553   6.082   2.410  0.5876  0.2065  1.6748
16451SOL    HW250487   6.464   6.108   2.530 -0.9777 -0.9027  0.7862
16452SOL     OW50488   8.759   2.237   1.376  0.4885  0.0729 -0.3298
16452SOL    HW150489   8.836   2.182   1.392  0.5803  0.2538 -0.1330
16452SOL    HW250490   8.795   2.325   1.366  0.3657  0.0583 -0.8982
16453SOL     OW50491   8.428   1.827   7.659  0.2729  0.3458 -0.0514
16453SOL    HW150492   8.505   1.879   7.635 -0.2219  0.4817 -1.4205
16453SOL    HW250493   8.457   1.736   7.650  0.7126  0.3691  0.9544
16454SOL     OW50494   3.768   2.731   3.993 -0.0541 -0.2165 -0.2723
16454SOL    HW150495   3.820   2.652   3.982  2.2283  1.0309  0.7875
16454SOL    HW250496   3.829   2.795   4.031 -2.0968  1.7009  0.0080
16455SOL     OW50497   2.595   3.547   0.882 -0.3008 -0.1614 -0.0257
16455SOL    HW150498   2.508   3.517   0.909 -0.0343 -0.4288  0.5308
16455SOL    HW250499   2.655   3.481   0.915  0.1811  0.3573  0.1464
16456SOL     OW50500   7.528   3.896   5.212  0.0399  0.1494 -0.2596
16456SOL    HW150501   7.496   3.825   5.156  0.0886 -0.0024 -0.0997
16456SOL    HW250502   7.513   3.863   5.301 -1.2086  0.9107 -0.1725
16457SOL     OW50503   5.462   6.885   5.112 -0.0731  0.0580 -0.0842
16457SOL    HW150504   5.446   6.962   5.167 -1.0393  0.3826 -0.7966
16457SOL    HW250505   5.504   6.823   5.171 -1.2809  0.3047  1.1111
16458SOL     OW50506   6.439   8.040   8.659 -0.1723 -0.0410 -0.7026
16458SOL    HW150507   6.534   8.041   8.672 -0.2017 -0.0334 -0.4813
16458SOL    HW250508   6.403   8.017   8.745 -0.4361  1.4633 -0.3725
16459SOL     OW50509   2.786   8.310   6.063 -0.4785 -0.7483 -0.6788
16459SOL    HW150510   2.791   8.404   6.044 -0.4851 -0.9657 -1.7943
16459SOL    HW250511   2.769   8.269   5.979 -1.7082 -1.6597 -0.0321
16460SOL     OW50512   4.500   2.711   1.401 -0.1136 -0.3758 -0.1089
16460SOL    HW150513   4.521   2.737   1.491  1.5082 -2.3277  0.1420
16460SOL    HW250514   4.518   2.789   1.349 -2.0374  1.1125  1.3047
16461SOL     OW50515   5.991   5.259   6.345  0.3155 -0.3780  0.3861
16461SOL    HW150516   6.025   5.177   6.380 -0.7828 -1.1951 -0.4148
16461SOL    HW250517   5.920   5.283   6.405  1.3479  0.6076  1.2664
16462SOL     OW50518   7.380   5.275   0.074 -0.2176 -0.6994  0.1336
16462SOL    HW150519   7.414   5.327   0.001  0.0693 -0.7758  0.2126
16462SOL    HW250520   7.417   5.188   0.061  0.4172 -0.5310  0.7676
16463SOL     OW50521   8.121   7.738   1.975  0.1957  0.2463 -0.2422
16463SOL    HW150522   8.090   7.688   1.900  0.5561  0.1164 -0.3056
16463SOL    HW250523   8.107   7.680   2.050  0.8802 -0.0665 -0.3514
16464SOL     OW50524   1.405   3.148   0.042  0.0333 -0.3291  0.2590
16464SOL    HW150525   1.491   3.191   0.037  0.2650 -0.4520  2.2452
16464SOL    HW250526   1.405   3.106   0.128 -1.1459 -2.2809 -0.6306
16465SOL     OW50527   2.189   4.662   7.764  0.1901  0.2256 -0.1358
16465SOL    HW150528   2.281   4.637   7.778 -0.2984 -1.1196  0.9361
16465SOL    HW250529   2.168   4.720   7.836  0.6986  2.1172 -1.4363
16466SOL     OW50530   1.589   4.577   5.121  0.1020 -0.3316  0.2130
16466SOL    HW150531   1.633   4.495   5.099 -0.0093  0.0065 -1.3994
16466SOL    HW250532   1.603   4.633   5.044 -1.9537  0.2702  0.2107
16467SOL     OW50533   8.087   1.729   1.130  0.6549  0.2312 -0.1157
16467SOL    HW150534   8.120   1.799   1.186 -2.1164 -0.0908  2.1628
16467SOL    HW250535   7.992   1.732   1.141  0.3723 -3.9234  0.2372
16468SOL     OW50536   8.820   5.071   7.524  0.0075 -0.4000 -0.0402
16468SOL    HW150537   8.898   5.027   7.556 -0.4628 -2.2034 -1.2008
16468SOL    HW250538   8.852   5.130   7.456  0.5694  0.4635  0.9618
16469SOL     OW50539   0.730   0.181   6.161  0.3300  0.9600 -0.9446
16469SOL    HW150540   0.707   0.111   6.101 -0.9233  1.1818 -0.7521
16469SOL    HW250541   0.735   0.259   6.105  1.3090  0.8201 -1.0876
16470SOL     OW50542   3.144   7.837   2.816 -0.2022  0.1480 -0.4376
16470SOL    HW150543   3.194   7.867   2.892  1.1642 -3.3183  0.2067
16470SOL    HW250544   3.183   7.884   2.742  2.2914 -0.4476  0.3980
16471SOL     OW50545   4.727   4.689   7.776  0.0206  0.7298 -0.3375
16471SOL    HW150546   4.748   4.715   7.686 -2.4820 -2.1474 -1.9460
16471SOL    HW250547   4.791   4.620   7.796 -0.5529  0.0882 -0.6734
16472SOL     OW50548   1.577   0.489   1.045 -0.1163 -0.0383 -0.2496
16472SOL    HW150549   1.582   0.457   0.955  1.4597  0.4048 -0.3554
16472SOL    HW250550   1.648   0.554   1.052  0.8825 -1.2160  1.7275
16473SOL     OW50551   7.315   6.219   1.014 -0.0556 -0.8470 -0.0500
16473SOL    HW150552   7.393   6.165   0.997  0.7618  0.4088 -0.4601
16473SOL    HW250553   7.306   6.272   0.935 -0.1532  0.4054  0.7802
16474SOL     OW50554   6.060   5.647   7.216  0.5119 -0.1672 -0.0219
16474SOL    HW150555   6.043   5.627   7.124 -0.4414 -1.2443  0.3751
16474SOL    HW250556   6.129   5.586   7.242  1.5673  0.8744 -0.2969
16475SOL     OW50557   7.499   8.592   6.228 -0.4303  0.1044 -0.6090
16475SOL    HW150558   7.514   8.505   6.265 -0.7412  0.9273  1.5669
16475SOL    HW250559   7.404   8.603   6.228 -0.4531  0.0778 -1.8543
16476SOL     OW50560   8.153   1.530   5.850 -0.3960  0.7274 -0.2273
16476SOL    HW150561   8.235   1.514   5.897 -1.0245  1.5788  1.2039
16476SOL    HW250562   8.085   1.503   5.911 -1.2055  0.2055 -1.3318
16477SOL     OW50563   7.880   8.448   8.371  0.0987 -0.7373  0.4779
16477SOL    HW150564   7.898   8.522   8.313  1.5656 -0.3692  1.3536
16477SOL    HW250565   7.803   8.476   8.421 -1.9957 -1.5674 -2.0506
16478SOL     OW50566   3.235   6.865   6.081  0.2027  0.0156 -0.3869
16478SOL    HW150567   3.149   6.901   6.058  0.5683 -0.3785 -2.7005
16478SOL    HW250568   3.292   6.942   6.085  0.5206  0.0261 -3.0553
16479SOL     OW50569   6.722   8.022   0.205 -0.1356  0.0488  0.3890
16479SOL    HW150570   6.634   7.991   0.228  0.0501 -0.4931  0.3904
16479SOL    HW250571   6.776   7.943   0.207  0.3256  0.3585  0.2570
16480SOL     OW50572   6.461   7.805   2.779  0.3462 -0.2828 -0.2301
16480SOL    HW150573   6.526   7.875   2.786  1.5546 -1.3932 -0.1066
16480SOL    HW250574   6.502   7.729   2.820 -1.3907 -0.7856  0.6896
16481SOL     OW50575   5.448   2.404   8.222 -0.6994  0.3291 -0.2781
16481SOL    HW150576   5.504   2.477   8.197  0.6313  0.2499  2.2081
16481SOL    HW250577   5.386   2.396   8.149 -0.1197  3.1061 -1.2078
16482SOL     OW50578   6.437   2.901   5.144 -0.1995 -0.2608  0.1268
16482SOL    HW150579   6.506   2.876   5.206  0.0286  0.8669  0.3571
16482SOL    HW250580   6.369   2.940   5.199 -0.6843 -0.6729 -0.1815
16483SOL     OW50581   6.573   2.087   4.597 -0.2175 -0.0169 -0.6132
16483SOL    HW150582   6.501   2.051   4.546 -2.5007  1.4624  1.3155
16483SOL    HW250583   6.583   2.177   4.566  0.8253 -0.1890 -0.8344
16484SOL     OW50584   2.385   4.019   5.829  0.2562  0.5673  0.1207
16484SOL    HW150585   2.347   4.042   5.914  1.6390 -0.4444  1.0586
16484SOL    HW250586   2.345   4.080   5.768 -1.0774  1.0686  1.4271
16485SOL     OW50587   6.528   6.015   1.815  0.5774 -0.2589  0.5749
16485SOL    HW150588   6.537   5.937   1.761  0.3013 -0.1342  0.3460
16485SOL    HW250589   6.472   5.988   1.887 -0.4841  0.0283 -0.1159
16486SOL     OW50590   8.565   2.360   4.041 -0.1537  0.3671 -0.4080
16486SOL    HW150591   8.542   2.360   3.948 -2.7048 -0.3490  0.1391
16486SOL    HW250592   8.608   2.445   4.054  0.1255  0.5521 -2.1818
16487SOL     OW50593   3.705   8.398   1.414  0.4433 -0.0679  0.0934
16487SOL    HW150594   3.751   8.474   1.379  0.7633  0.6375  1.9604
16487SOL    HW250595   3.624   8.393   1.364  0.5433  1.3362 -0.2283
16488SOL     OW50596   0.169   0.343   4.061 -0.1320  0.3221  0.4254
16488SOL    HW150597   0.211   0.313   3.981 -1.9680  0.1967 -0.5481
16488SOL    HW250598   0.141   0.433   4.041 -1.0277  0.1246  0.7500
16489SOL     OW50599   0.838   1.485   5.855  0.2663  0.0575  0.2010
16489SOL    HW150600   0.838   1.468   5.949  1.8274 -1.2028  0.0143
16489SOL    HW250601   0.781   1.419   5.818 -0.0419  0.3111  0.2190
16490SOL     OW50602   3.880   4.257   5.230 -0.4980 -0.6431 -0.1038
16490SOL    HW150603   3.844   4.177   5.193 -1.2582  0.0224 -0.8231
16490SOL    HW250604   3.975   4.244   5.228 -0.2274  0.3285 -4.7374
16491SOL     OW50605   4.296   1.480   2.058 -0.1190  0.8617 -0.4033
16491SOL    HW150606   4.382   1.509   2.086  0.0351 -1.4079  1.7487
16491SOL    HW250607   4.305   1.385   2.046 -1.9833  0.7692 -1.4721
16492SOL     OW50608   8.492   7.794   3.190  0.3295 -0.6553 -0.6182
16492SOL    HW150609   8.541   7.754   3.262 -2.4697  0.6072  2.1837
16492SOL    HW250610   8.450   7.720   3.146 -1.8468 -1.2459  2.2047
16493SOL     OW50611   7.850   0.701   0.109 -0.3665 -0.5629  0.1661
16493SOL    HW150612   7.915   0.643   0.150 -0.0497 -0.5966 -0.3775
16493SOL    HW250613   7.766   0.666   0.138 -0.1606 -0.9256  0.3394
16494SOL     OW50614   1.345   0.455   8.877 -0.2435 -0.4454 -0.5355
16494SOL    HW150615   1.390   0.371   8.865  0.5495 -0.2041  0.5604
16494SOL    HW250616   1.358   0.501   8.795  0.8508 -0.6979 -0.5203
16495SOL     OW50617   5.734   3.317   5.369 -0.8189  0.1492  0.9747
16495SOL    HW150618   5.701   3.406   5.387 -0.4416 -0.0301  2.7586
16495SOL    HW250619   5.752   3.281   5.456  1.8293 -0.6230  0.1829
16496SOL     OW50620   2.039   6.062   0.230 -0.0444 -0.2980 -0.1054
16496SOL    HW150621   1.989   6.143   0.243 -0.0299 -0.4124  0.7390
16496SOL    HW250622   2.039   6.020   0.316  0.0198 -1.1589 -0.5103
16497SOL     OW50623   3.951   1.786   0.778 -0.0959 -0.2033 -0.0764
16497SOL    HW150624   3.904   1.707   0.804  0.6282 -0.7148 -0.2930
16497SOL    HW250625   3.949   1.785   0.683  0.8302 -0.5431 -0.1098
16498SOL     OW50626   8.640   0.582   8.260  0.4142  0.8433 -0.4462
16498SOL    HW150627   8.678   0.570   8.347  1.6903  0.5956 -1.0258
16498SOL    HW250628   8.557   0.534   8.264  0.8189  0.1840  0.3934
16499SOL     OW50629   1.836   2.652   9.034 -0.0116  0.2502 -0.2803
16499SOL    HW150630   1.840   2.747   9.044 -1.9470  0.1629  2.6343
16499SOL    HW250631   1.923   2.622   9.061 -0.4290  1.1016  2.3409
16500SOL     OW50632   5.711   6.683   0.048 -0.3699  0.0981  0.0020
16500SOL    HW150633   5.718   6.636   0.130  2.7531 -1.1112 -0.8070
16500SOL    HW250634   5.718   6.616  -0.020  3.0554  1.4306 -1.1854
16501SOL     OW50635   1.265   6.953   5.339  0.1367  0.5933  0.0633
16501SOL    HW150636   1.286   6.904   5.259 -1.7056 -1.4162  0.7242
16501SOL    HW250637   1.339   6.935   5.397  0.8569  0.9912 -0.6977
16502SOL     OW50638   0.100   4.193   0.531 -0.1100  0.1081  0.4818
16502SOL    HW150639   0.119   4.217   0.622  1.0803 -0.4236  0.3953
16502SOL    HW250640   0.011   4.159   0.533 -0.0354 -0.0568  1.4866
16503SOL     OW50641   4.325   1.614   0.273 -0.1525  0.0634 -0.7200
16503SOL    HW150642   4.325   1.648   0.184 -1.4340  1.1398 -0.3402
16503SOL    HW250643   4.235   1.586   0.288  0.0064  0.0541  0.2882
16504SOL     OW50644   8.539   6.583   6.474 -0.0557 -0.3999  0.2727
16504SOL    HW150645   8.610   6.524   6.500 -0.4773 -1.3002 -0.5340
16504SOL    HW250646   8.466   6.559   6.531 -0.4362 -1.1511 -0.5097
16505SOL     OW50647   3.119   5.231   1.806  0.1133  0.7828  0.4129
16505SOL    HW150648   3.031   5.267   1.814  0.4263  1.9350 -0.9107
16505SOL    HW250649   3.148   5.217   1.897 -1.5427  0.0372  0.8587
16506SOL     OW50650   1.349   4.312   6.475  0.4986  0.0921 -0.0391
16506SOL    HW150651   1.335   4.393   6.523  0.8192  0.2994 -0.2936
16506SOL    HW250652   1.421   4.269   6.520 -0.5709 -0.7366  0.9610
16507SOL     OW50653   2.382   8.430   0.159 -0.3604 -0.4568  0.1711
16507SOL    HW150654   2.432   8.495   0.208 -1.9718  0.7179  0.3424
16507SOL    HW250655   2.420   8.431   0.071 -0.6331  1.0688  0.0442
16508SOL     OW50656   5.521   1.288   5.664 -0.4939  0.0369 -0.4794
16508SOL    HW150657   5.454   1.319   5.604 -0.5042 -0.2891 -0.6367
16508SOL    HW250658   5.523   1.193   5.652 -0.8606 -0.0993  0.4058
16509SOL     OW50659   6.527   2.687   3.184  0.5395 -0.3421  0.0984
16509SOL    HW150660   6.552   2.736   3.106  1.1222 -0.7689  0.0164
16509SOL    HW250661   6.571   2.603   3.176 -1.0582 -1.2020 -0.1405
16510SOL     OW50662   3.375   5.486   8.824  0.3933  0.4666 -0.7533
16510SOL    HW150663   3.397   5.449   8.910  1.4023  1.5471 -0.5256
16510SOL    HW250664   3.328   5.567   8.844 -0.1305  0.2934 -1.2399
16511SOL     OW50665   7.947   6.463   0.817  0.9043  0.4605  0.7774
16511SOL    HW150666   7.957   6.555   0.844 -1.0924  1.2113 -0.7897
16511SOL    HW250667   7.893   6.424   0.886 -0.2962  1.1425  0.2502
16512SOL     OW50668   5.946   4.396   7.869  0.2898 -0.0220  0.4118
16512SOL    HW150669   5.979   4.333   7.933  3.1659  0.3919 -0.5284
16512SOL    HW250670   5.996   4.476   7.885  1.4726 -0.0551 -2.5772
16513SOL     OW50671   0.698   6.952   1.257 -0.4364  0.8745 -0.1757
16513SOL    HW150672   0.780   6.947   1.207 -1.0983 -0.6115 -1.1713
16513SOL    HW250673   0.674   7.045   1.253  1.5311  1.4789  0.7408
16514SOL     OW50674   0.835   4.394   6.809  0.1401 -0.3302 -0.1952
16514SOL    HW150675   0.901   4.351   6.864  0.4624  0.8184  0.3775
16514SOL    HW250676   0.758   4.338   6.815  0.8739 -1.3951 -0.3993
16515SOL     OW50677   0.426   2.177   1.658  0.7773 -0.0233 -0.4928
16515SOL    HW150678   0.479   2.239   1.707  0.2538 -1.3609  1.8942
16515SOL    HW250679   0.435   2.094   1.705 -2.8246 -0.5061 -0.3454
16516SOL     OW50680   5.958   1.166   4.319  0.1098 -0.2705 -0.0158
16516SOL    HW150681   5.954   1.071   4.320 -0.5283 -0.2477 -0.1577
16516SOL    HW250682   5.886   1.194   4.375 -1.8558  0.1738 -2.6059
16517SOL     OW50683   4.574   8.605   6.391  0.2107 -0.7040  0.1957
16517SOL    HW150684   4.542   8.655   6.466  2.4927  0.8260  0.2440
16517SOL    HW250685   4.648   8.655   6.358 -0.6389 -1.3608 -3.0977
16518SOL     OW50686   1.783   7.731   3.237  0.2571 -0.1448  0.1546
16518SOL    HW150687   1.720   7.803   3.225 -0.1684 -0.7649 -1.5508
16518SOL    HW250688   1.868   7.771   3.218  0.0054 -0.1111 -0.9549
16519SOL     OW50689   5.261   4.622   7.137  0.3314  0.1786  0.0531
16519SOL    HW150690   5.194   4.634   7.069  0.3081  1.3545  0.2718
16519SOL    HW250691   5.338   4.665   7.102  1.2369 -1.7490 -0.4985
16520SOL     OW50692   1.913   8.007   2.722  0.3919  0.1661  0.2144
16520SOL    HW150693   1.881   7.981   2.809 -0.3076 -0.3024 -0.1759
16520SOL    HW250694   1.888   8.099   2.714  1.8368  0.6802  1.1270
16521SOL     OW50695   1.278   6.144   7.042  0.4882  0.2329 -0.2721
16521SOL    HW150696   1.350   6.164   6.983  0.9566 -0.0139  0.2100
16521SOL    HW250697   1.205   6.122   6.984  0.5990  1.1211 -0.7799
16522SOL     OW50698   7.764   2.532   5.122 -0.0868  0.0492 -0.1712
16522SOL    HW150699   7.720   2.546   5.206 -0.8257 -2.4057 -0.0937
16522SOL    HW250700   7.750   2.440   5.102  2.5289 -0.1420 -1.6080
16523SOL     OW50701   1.653   5.838   7.807 -0.2980 -0.7737  0.4699
16523SOL    HW150702   1.649   5.780   7.883 -2.6291 -1.3999 -0.0625
16523SOL    HW250703   1.711   5.792   7.746 -0.2504 -1.3900  0.9621
16524SOL     OW50704   6.200   2.479   1.494  0.0773  0.0096  0.6286
16524SOL    HW150705   6.292   2.494   1.514  0.3478 -1.5362  0.6340
16524SOL    HW250706   6.158   2.472   1.579 -0.3979  2.4363  0.6653
16525SOL     OW50707   8.372   8.096   4.259 -0.0625 -0.7394  0.7194
16525SOL    HW150708   8.421   8.088   4.177  0.6257 -1.6014  1.1907
16525SOL    HW250709   8.395   8.183   4.292 -2.9388  1.0335 -1.5766
16526SOL     OW50710   8.335   1.243   3.259 -0.9961 -0.4247  0.2918
16526SOL    HW150711   8.349   1.334   3.233 -0.5130 -0.5290  0.1719
16526SOL    HW250712   8.299   1.248   3.347  0.2232 -0.1483  0.7968
16527SOL     OW50713   8.636   5.901   3.170 -0.0288  0.4130 -0.3283
16527SOL    HW150714   8.635   5.865   3.081 -0.5982  0.5081 -0.3643
16527SOL    HW250715   8.729   5.916   3.189  0.2859 -1.5536 -0.1066
16528SOL     OW50716   4.966   4.464   7.758  0.1724  0.4903 -0.1870
16528SOL    HW150717   4.929   4.435   7.675  1.0407  0.9494 -0.7417
16528SOL    HW250718   4.947   4.392   7.819 -0.2008  0.0200 -0.8503
16529SOL     OW50719   8.152   2.232   7.645  0.4596 -0.2562  0.5991
16529SOL    HW150720   8.247   2.220   7.646  0.6369  1.0268  0.8403
16529SOL    HW250721   8.131   2.248   7.553  0.2745 -1.8471  0.3370
16530SOL     OW50722   1.730   5.108   5.179  0.3607  0.1530 -0.3492
16530SOL    HW150723   1.669   5.054   5.129  0.9335  0.6752 -1.6754
16530SOL    HW250724   1.684   5.128   5.260 -0.7405 -0.4751 -0.7949
16531SOL     OW50725   0.960   1.791   8.489 -0.0189 -0.3202  0.4937
16531SOL    HW150726   0.901   1.762   8.559  0.9326 -0.3825  1.2883
16531SOL    HW250727   1.045   1.803   8.532 -0.1356  2.9056  0.0459
16532SOL     OW50728   1.876   4.257   4.130 -0.2087 -0.6853  0.4786
16532SOL    HW150729   1.866   4.255   4.225 -0.5629 -2.4451  0.4340
16532SOL    HW250730   1.966   4.288   4.115 -0.2728 -0.0500  1.3543
16533SOL     OW50731   3.208   0.867   0.313 -0.3650  0.3466  0.0593
16533SOL    HW150732   3.289   0.817   0.318 -1.1112 -0.8114  1.1919
16533SOL    HW250733   3.184   0.864   0.220  0.7258  0.4656 -0.2418
16534SOL     OW50734   4.006   5.614   4.319  0.2631  0.2673  0.0008
16534SOL    HW150735   4.003   5.691   4.375 -0.2492  0.2944 -0.0579
16534SOL    HW250736   3.994   5.648   4.230  0.9001  0.2069 -0.1099
16535SOL     OW50737   8.956   5.026   2.848  0.2323 -0.1216  0.1273
16535SOL    HW150738   8.929   4.970   2.921 -0.5025  2.4503  2.0032
16535SOL    HW250739   8.993   4.966   2.783  1.3622 -2.5325  2.7915
16536SOL     OW50740   1.581   4.135   5.909  0.6032 -0.4630  0.0990
16536SOL    HW150741   1.499   4.142   5.958 -1.1320 -1.6202 -2.4205
16536SOL    HW250742   1.602   4.041   5.911  0.6424 -0.4942 -1.0742
16537SOL     OW50743   4.188   0.042   9.059 -0.2294 -0.4813  0.5089
16537SOL    HW150744   4.136  -0.034   9.083  0.3790 -0.7360  1.0641
16537SOL    HW250745   4.164   0.061   8.968  1.5525 -2.9964 -0.5870
16538SOL     OW50746   6.670   6.216   0.438  0.0774 -0.2974  0.0303
16538SOL    HW150747   6.705   6.148   0.496 -1.1051 -1.4554 -0.5777
16538SOL    HW250748   6.671   6.177   0.351 -0.0946  0.6846 -0.4325
16539SOL     OW50749   4.949   7.172   4.446  0.3575  0.3880 -0.1811
16539SOL    HW150750   4.887   7.169   4.520  0.8355 -0.7548  0.1841
16539SOL    HW250751   5.007   7.098   4.460 -0.8081 -1.1677 -2.8313
16540SOL     OW50752   0.990   3.847   0.487 -0.2861  0.3491 -0.1792
16540SOL    HW150753   1.016   3.802   0.407  0.6290  0.8025 -0.1551
16540SOL    HW250754   1.072   3.860   0.535 -0.9920 -1.2299  1.5498
16541SOL     OW50755   7.216   3.881   0.346  0.5871 -0.5008 -0.0593
16541SOL    HW150756   7.207   3.797   0.302 -0.2629 -0.4007 -0.0894
16541SOL    HW250757   7.142   3.885   0.406  0.9791 -0.0468  0.4106
16542SOL     OW50758   6.632   6.556   8.746 -0.1747  0.1227 -0.0245
16542SOL    HW150759   6.724   6.579   8.733  0.2598 -1.0141  0.8642
16542SOL    HW250760   6.604   6.520   8.663  0.5028 -0.5088  0.0075
16543SOL     OW50761   4.739   4.905   5.481 -0.6062  0.3680  0.1710
16543SOL    HW150762   4.807   4.911   5.413  0.9880  0.9739  1.7337
16543SOL    HW250763   4.716   4.812   5.484 -2.2136  0.5803 -2.5234
16544SOL     OW50764   8.072   8.648   4.491 -0.6036  0.8215  0.2994
16544SOL    HW150765   8.128   8.724   4.477  0.9745  0.0573  1.8957
16544SOL    HW250766   8.020   8.670   4.568 -1.7226  1.0853 -0.5083
16545SOL     OW50767   5.097   2.174   1.019 -0.4416  0.4542  0.4749
16545SOL    HW150768   5.182   2.194   0.981 -1.4219  0.7199 -1.7311
16545SOL    HW250769   5.052   2.258   1.023 -0.0340  0.6211  3.3221
16546SOL     OW50770   4.109   8.660   7.066  0.1381 -0.1091 -0.6398
16546SOL    HW150771   4.073   8.672   6.978 -1.8763  1.6394  0.3179
16546SOL    HW250772   4.039   8.617   7.115  1.6931 -2.2348 -0.1121
16547SOL     OW50773   6.889   5.954   2.952  0.1640 -0.0408 -0.6429
16547SOL    HW150774   6.862   5.937   2.862  1.2947 -1.2288 -0.7869
16547SOL    HW250775   6.970   5.903   2.963 -1.3326 -2.1185  1.8465
16548SOL     OW50776   4.975   8.924   5.837  0.0490  0.3102 -0.2398
16548SOL    HW150777   4.946   8.942   5.926  0.2833  1.4267 -0.3861
16548SOL    HW250778   5.070   8.926   5.841  0.1551 -1.9750 -0.0525
16549SOL     OW50779   4.931   0.056   1.963 -0.4114 -0.3255 -0.6538
16549SOL    HW150780   4.937  -0.001   2.040  0.0614 -0.6016 -0.8860
16549SOL    HW250781   4.843   0.094   1.968 -0.2561 -0.0570  0.2160
16550SOL     OW50782   1.067   7.002   1.915 -0.4486  0.2573  0.4774
16550SOL    HW150783   1.045   7.007   2.008 -3.1523  1.4541 -0.1540
16550SOL    HW250784   1.017   6.927   1.883  1.3710 -0.8861  0.1358
16551SOL     OW50785   2.719   7.980   1.119 -0.6906 -0.2493  0.0275
16551SOL    HW150786   2.770   7.912   1.074 -0.4890  1.0273 -1.7819
16551SOL    HW250787   2.636   7.982   1.071 -0.8711  0.4737  0.3627
16552SOL     OW50788   0.530   2.282   4.202  0.2079 -0.1570 -0.4508
16552SOL    HW150789   0.544   2.315   4.291 -0.1350 -0.2058 -0.3771
16552SOL    HW250790   0.441   2.310   4.180  0.7501  0.9865 -1.2782
16553SOL     OW50791   3.846   7.525   8.300  0.1107  0.6613  0.1306
16553SOL    HW150792   3.858   7.439   8.339  0.5557  1.7539  2.5603
16553SOL    HW250793   3.905   7.582   8.349  0.7557  2.1697 -2.2295
16554SOL     OW50794   0.406   1.692   3.198  0.1388 -0.2516  0.4870
16554SOL    HW150795   0.435   1.783   3.197  1.6618 -0.7061  0.5323
16554SOL    HW250796   0.337   1.690   3.264 -1.0555  1.1669 -0.6548
16555SOL     OW50797   3.469   0.258   6.177 -0.5223  0.1501 -0.4093
16555SOL    HW150798   3.529   0.317   6.223  0.4211 -0.5301 -0.7090
16555SOL    HW250799   3.383   0.278   6.213 -0.1390  1.2624 -0.0633
16556SOL     OW50800   8.979   6.158   6.461  0.0350  0.0394  0.4389
16556SOL    HW150801   8.950   6.237   6.414  0.3746 -0.5773 -0.8650
16556SOL    HW250802   8.936   6.163   6.546 -1.6131  0.5862 -0.3907
16557SOL     OW50803   8.916   3.078   7.803  0.8215 -0.3292  0.1257
16557SOL    HW150804   8.831   3.044   7.829  0.9656  0.7463  2.2313
16557SOL    HW250805   8.934   3.037   7.719 -2.3355  0.3851 -1.0255
16558SOL     OW50806   7.669   8.827   3.178 -0.5747 -0.0890 -0.1174
16558SOL    HW150807   7.665   8.922   3.189 -1.3438 -0.1597  0.2608
16558SOL    HW250808   7.744   8.813   3.119 -0.2512  0.7222  0.0846
16559SOL     OW50809   3.391   2.940   6.185  0.3787  0.1523  0.3390
16559SOL    HW150810   3.484   2.964   6.186  0.8952 -1.6902  1.3196
16559SOL    HW250811   3.378   2.895   6.102  0.2215  0.8577 -0.0255
16560SOL     OW50812   2.029   8.601   6.646  0.1161 -0.1413  0.5243
16560SOL    HW150813   2.120   8.602   6.615 -0.3128 -0.1492 -0.8149
16560SOL    HW250814   2.022   8.678   6.703 -0.0141  2.2254 -2.4249
16561SOL     OW50815   8.827   1.160   3.672 -0.0703 -0.6267 -0.5185
16561SOL    HW150816   8.778   1.210   3.607 -2.1729 -2.3296 -0.3833
16561SOL    HW250817   8.866   1.226   3.729 -3.1403  0.9629 -0.0225
16562SOL     OW50818   3.764   6.015   3.324 -0.0365  0.2669 -0.1658
16562SOL    HW150819   3.783   5.926   3.295 -0.0050  0.4657 -0.7800
16562SOL    HW250820   3.752   6.064   3.243  3.0289  1.5189 -0.0222
16563SOL     OW50821   0.563   3.856   9.017  0.2200  0.3476 -0.1558
16563SOL    HW150822   0.514   3.859   8.935  0.7195 -1.3653 -0.5597
16563SOL    HW250823   0.625   3.928   9.011 -0.3053  0.7476 -0.9037
16564SOL     OW50824   6.860   7.997   3.117  0.1858  0.8089  0.4000
16564SOL    HW150825   6.943   7.948   3.117 -0.7715 -0.9268  1.7239
16564SOL    HW250826   6.842   8.013   3.024  0.8625 -0.8186 -0.0455
16565SOL     OW50827   7.846   0.494   6.940 -0.7502  0.3504 -0.1362
16565SOL    HW150828   7.894   0.561   6.891  0.0172  0.9671  1.3902
16565SOL    HW250829   7.912   0.454   6.996 -1.3921 -1.0900 -0.3607
16566SOL     OW50830   0.560   2.279   5.624  0.5379 -0.5882 -0.8113
16566SOL    HW150831   0.623   2.290   5.695 -0.6675 -0.1807  0.2308
16566SOL    HW250832   0.488   2.230   5.663 -0.6745  0.6528 -1.4186
16567SOL     OW50833   7.550   8.976   1.850  0.2559 -0.5067  0.4450
16567SOL    HW150834   7.545   8.941   1.939  1.8136 -1.2312  0.2668
16567SOL    HW250835   7.458   8.991   1.825 -0.2864 -1.7154  1.6075
16568SOL     OW50836   2.569   7.923   8.652  0.2652 -0.1231 -0.8605
16568SOL    HW150837   2.576   7.977   8.730  0.2535 -0.5869 -0.5366
16568SOL    HW250838   2.486   7.949   8.612 -3.0027 -4.0097  2.4919
16569SOL     OW50839   0.662   5.626   6.088  0.1755 -0.1674  0.2606
16569SOL    HW150840   0.724   5.636   6.015 -0.0851  0.4595  0.1185
16569SOL    HW250841   0.657   5.713   6.127  0.9298 -0.6727  1.5474
16570SOL     OW50842   4.986   4.251   8.230 -0.3331 -0.6864  0.1467
16570SOL    HW150843   5.031   4.320   8.182 -1.5446 -0.1701 -0.2923
16570SOL    HW250844   5.056   4.200   8.271  0.5649  1.4239  1.3901
16571SOL     OW50845   8.915   2.987   3.547  0.3169  0.0686  0.0854
16571SOL    HW150846   8.833   3.036   3.558 -2.0204 -3.7765  1.4793
16571SOL    HW250847   8.903   2.940   3.465  0.8377 -0.9949  0.6090
16572SOL     OW50848   5.718   4.744   0.733 -0.1430 -0.4068 -0.0069
16572SOL    HW150849   5.739   4.818   0.676 -0.5560 -0.9596 -0.8946
16572SOL    HW250850   5.778   4.753   0.807 -2.0686  2.4958  1.4099
16573SOL     OW50851   0.237   5.397   6.334  0.6327 -0.1915  0.7675
16573SOL    HW150852   0.312   5.454   6.350 -0.1091  1.0016  0.1718
16573SOL    HW250853   0.165   5.437   6.384  0.8206 -2.4822  3.0554
16574SOL     OW50854   7.453   1.468   8.570 -0.6915  0.2427  0.2345
16574SOL    HW150855   7.377   1.430   8.526 -1.2234  2.1081 -0.5589
16574SOL    HW250856   7.496   1.521   8.503 -1.8201  3.5974  1.9244
16575SOL     OW50857   5.286   6.044   6.983 -0.0751 -0.5997  0.1454
16575SOL    HW150858   5.208   6.086   6.945  0.1567 -0.9143 -0.7073
16575SOL    HW250859   5.359   6.097   6.951  0.3065 -2.1109 -1.7263
16576SOL     OW50860   1.996   8.457   7.372 -0.1063  0.5505  0.5939
16576SOL    HW150861   2.077   8.413   7.398  0.8245  2.2896  0.7861
16576SOL    HW250862   1.935   8.437   7.442  0.5263  0.1702  1.0509
16577SOL     OW50863   8.566   4.958   0.916 -0.1325 -0.3415 -0.3199
16577SOL    HW150864   8.578   4.863   0.917  0.7202 -0.2445 -0.2193
16577SOL    HW250865   8.526   4.976   0.831 -0.7851 -0.8362 -0.1287
16578SOL     OW50866   1.079   5.237   0.461 -0.3737  0.2407 -0.0974
16578SOL    HW150867   1.120   5.294   0.396 -0.7620  0.2664 -0.3202
16578SOL    HW250868   1.133   5.158   0.460 -0.9156 -0.1381 -1.1286
16579SOL     OW50869   4.080   7.415   3.311 -0.2588  0.2269  0.0633
16579SOL    HW150870   4.017   7.432   3.242 -1.2672  0.1914  0.9470
16579SOL    HW250871   4.095   7.320   3.308 -0.3850  0.2108 -0.0227
16580SOL     OW50872   5.849   7.525   3.604  0.4726  0.4912 -0.1761
16580SOL    HW150873   5.814   7.476   3.529  0.6736  2.4018 -1.6146
16580SOL    HW250874   5.810   7.612   3.595 -1.0389  0.2998  3.1165
16581SOL     OW50875   3.775   2.854   0.114 -0.0590  0.8146  0.3472
16581SOL    HW150876   3.848   2.803   0.079  1.0632  3.5965 -1.7652
16581SOL    HW250877   3.800   2.875   0.204  0.2034 -0.8577  0.6962
16582SOL     OW50878   4.601   0.547   6.976 -0.0403 -0.5822  0.4284
16582SOL    HW150879   4.669   0.606   7.008  0.3812 -0.0587 -1.3105
16582SOL    HW250880   4.524   0.604   6.963 -0.4087 -0.9135  1.1151
16583SOL     OW50881   6.263   3.647   0.740  0.1418 -0.8526  0.3852
16583SOL    HW150882   6.262   3.698   0.821  0.7750 -1.2498  0.6522
16583SOL    HW250883   6.353   3.651   0.710 -0.3442  0.3977 -1.0413
16584SOL     OW50884   6.596   0.259   5.625  0.4697  0.4854 -0.6066
16584SOL    HW150885   6.675   0.295   5.666 -0.3370  0.9140  0.6052
16584SOL    HW250886   6.629   0.201   5.556  1.8330  1.1764 -0.5688
16585SOL     OW50887   6.271   4.258   1.102  0.3981 -0.5536  0.0467
16585SOL    HW150888   6.292   4.340   1.146  0.9175 -0.9309  0.5018
16585SOL    HW250889   6.186   4.275   1.060  0.6021  0.2821 -0.0427
16586SOL     OW50890   2.347   7.596   2.420 -0.5423  0.2997 -0.1319
16586SOL    HW150891   2.432   7.560   2.446  0.9262  2.8495 -1.0450
16586SOL    HW250892   2.318   7.540   2.348  1.4131  0.5625 -1.1880
16587SOL     OW50893   1.085   7.115   2.787  0.2627 -0.4808 -0.0156
16587SOL    HW150894   1.020   7.180   2.762  2.5044  1.5468 -1.0591
16587SOL    HW250895   1.129   7.153   2.863 -0.4082 -2.3102  1.3659
16588SOL     OW50896   0.976   8.855   2.515  0.3353 -0.0233  0.3258
16588SOL    HW150897   0.924   8.811   2.448  2.4983  1.5094 -2.6296
16588SOL    HW250898   1.022   8.784   2.560 -0.8120 -1.0874 -0.1136
16589SOL     OW50899   2.793   4.471   3.059  0.2264 -0.1219 -0.1479
16589SOL    HW150900   2.841   4.474   3.141  0.8911  0.0846 -0.5347
16589SOL    HW250901   2.832   4.540   3.006  1.1460 -1.5162 -1.3529
16590SOL     OW50902   4.285   0.297   2.083  0.2050 -0.5652  0.1378
16590SOL    HW150903   4.200   0.302   2.038  0.8372  1.1026 -0.9587
16590SOL    HW250904   4.279   0.361   2.153  0.8043  0.0996 -0.4099
16591SOL     OW50905   2.317   4.227   5.640 -0.2865 -0.1411  0.1000
16591SOL    HW150906   2.304   4.232   5.545  0.8679 -2.1117 -0.2295
16591SOL    HW250907   2.328   4.317   5.668 -0.3907  0.4623 -1.6846
16592SOL     OW50908   1.891   8.081   7.196  0.1997  0.2369 -0.0287
16592SOL    HW150909   1.986   8.093   7.198  0.0907  1.5928 -1.3029
16592SOL    HW250910   1.875   8.007   7.255  1.8541  1.2298  1.8115
16593SOL     OW50911   4.622   8.852   8.296 -0.9498  0.0624 -1.1570
16593SOL    HW150912   4.588   8.811   8.216 -2.1104 -0.1764 -0.5780
16593SOL    HW250913   4.622   8.781   8.361  0.3616  0.1529 -1.0394
16594SOL     OW50914   1.162   6.005   1.094 -0.6745 -0.2343  0.0711
16594SOL    HW150915   1.149   5.946   1.169 -0.3284  1.3938  1.4637
16594SOL    HW250916   1.236   5.966   1.046 -0.4873 -0.9708  0.9283
16595SOL     OW50917   8.532   2.594   6.821 -0.4700  0.8644 -0.1065
16595SOL    HW150918   8.621   2.559   6.827 -1.2789 -1.1157  3.2446
16595SOL    HW250919   8.502   2.571   6.733  1.3565 -1.0166 -0.2950
16596SOL     OW50920   0.920   3.896   1.492 -0.3112  0.4091 -0.1522
16596SOL    HW150921   0.950   3.987   1.488  0.5220  0.1266 -1.0351
16596SOL    HW250922   0.836   3.900   1.537  0.0729  1.5180  0.5084
16597SOL     OW50923   0.096   4.791   8.031  0.0904  0.5835  0.0792
16597SOL    HW150924   0.057   4.767   7.946  1.8758  0.4117 -0.7336
16597SOL    HW250925   0.146   4.870   8.012 -0.0917  0.9684  1.1593
16598SOL     OW50926   3.332   5.683   2.273  0.0716  0.2794  0.5324
16598SOL    HW150927   3.316   5.761   2.221 -0.4477 -0.2162 -0.0600
16598SOL    HW250928   3.418   5.698   2.314  1.0032  0.2066 -1.3105
16599SOL     OW50929   7.579   0.438   7.222  0.2821  0.4256  0.1079
16599SOL    HW150930   7.611   0.374   7.157  0.8562 -0.1989  0.9826
16599SOL    HW250931   7.612   0.522   7.190 -2.9760  0.8525 -2.7212
16600SOL     OW50932   7.200   3.065   6.025 -0.5547  0.7131 -0.2483
16600SOL    HW150933   7.176   3.158   6.030 -2.1848  0.2920  0.7344
16600SOL    HW250934   7.146   3.023   6.092  0.7738 -0.8359 -0.0757
16601SOL     OW50935   8.564   6.596   2.431  0.5815 -0.2981  0.3197
16601SOL    HW150936   8.621   6.549   2.371 -0.2410 -0.1449 -0.6011
16601SOL    HW250937   8.484   6.612   2.381  1.0156  2.5797  0.3894
16602SOL     OW50938   3.623   0.883   6.101 -0.2811 -0.1794 -0.1972
16602SOL    HW150939   3.641   0.826   6.176  1.0466  1.3230  0.6815
16602SOL    HW250940   3.564   0.951   6.136 -0.0877  0.2287 -0.6537
16603SOL     OW50941   7.882   1.432   6.724  0.0003  0.1163  0.0158
16603SOL    HW150942   7.975   1.408   6.727  0.0176  0.0903 -0.6965
16603SOL    HW250943   7.868   1.482   6.805  0.5555 -0.1482  0.2850
16604SOL     OW50944   8.750   8.583   1.496 -0.1093 -0.5595 -0.0081
16604SOL    HW150945   8.789   8.528   1.563  1.7335 -1.2494 -1.5744
16604SOL    HW250946   8.679   8.530   1.459 -0.7074 -0.4251  0.9116
16605SOL     OW50947   3.650   0.163   4.731  0.6019 -0.2050  0.1415
16605SOL    HW150948   3.652   0.251   4.770  1.0395 -0.6944  1.2559
16605SOL    HW250949   3.565   0.159   4.687 -0.4329  0.0033  1.9785
16606SOL     OW50950   8.006   8.673   3.208  0.1351  0.2347 -0.1949
16606SOL    HW150951   8.073   8.676   3.140  1.4744  0.6479  1.0807
16606SOL    HW250952   8.017   8.755   3.256  0.2234 -0.6691  1.4000
16607SOL     OW50953   6.720   7.642   6.733  0.3482  0.1282  0.0860
16607SOL    HW150954   6.647   7.613   6.680 -0.1858  0.6754  0.5069
16607SOL    HW250955   6.759   7.561   6.767 -1.3568 -0.1471  1.5648
16608SOL     OW50956   3.205   6.373   0.667 -0.0983  0.5854  0.3453
16608SOL    HW150957   3.149   6.425   0.609  0.6396  2.3890  1.1632
16608SOL    HW250958   3.144   6.327   0.724 -0.7885  1.1145  0.0530
16609SOL     OW50959   8.613   4.574   7.276 -0.7044  0.4841 -0.4202
16609SOL    HW150960   8.538   4.626   7.247 -1.6478 -0.7016 -0.2211
16609SOL    HW250961   8.585   4.483   7.263  0.1607 -0.0093  0.9559
16610SOL     OW50962   8.463   2.003   9.028  0.5268 -0.1198 -0.3042
16610SOL    HW150963   8.370   1.982   9.036  0.5042 -0.8011 -1.9379
16610SOL    HW250964   8.506   1.918   9.017  1.2842  0.2248 -0.0919
16611SOL     OW50965   1.406   3.008   3.987  0.1262  0.3682 -0.3404
16611SOL    HW150966   1.436   2.954   3.914  1.3682  0.4922  0.0480
16611SOL    HW250967   1.320   2.974   4.008  1.0558 -1.8177  0.1864
16612SOL     OW50968   6.543   6.049   2.999 -0.0461 -0.0450  0.2020
16612SOL    HW150969   6.584   6.010   3.077  1.6723  0.9313 -0.1656
16612SOL    HW250970   6.560   5.987   2.929  1.8554  0.8024 -0.1756
16613SOL     OW50971   5.946   5.107   5.481  0.0338 -0.3783  0.8114
16613SOL    HW150972   6.008   5.174   5.508  0.0318  1.4124 -2.9756
16613SOL    HW250973   5.999   5.027   5.477  1.3581  0.4665  0.6414
16614SOL     OW50974   8.261   6.382   7.279 -0.7062 -0.9695 -0.1832
16614SOL    HW150975   8.269   6.347   7.190 -0.8392  0.1895 -0.6599
16614SOL    HW250976   8.264   6.477   7.268 -0.9880 -0.8088  1.0253
16615SOL     OW50977   0.440   7.162   5.640 -0.1026  0.3719  0.5034
16615SOL    HW150978   0.425   7.243   5.689  0.3094  1.0303 -0.4287
16615SOL    HW250979   0.494   7.109   5.699  1.0294  1.4587  0.4859
16616SOL     OW50980   7.265   8.512   1.533 -0.0866  0.5219  0.2090
16616SOL    HW150981   7.354   8.485   1.555 -0.3736 -0.3359  0.3374
16616SOL    HW250982   7.229   8.545   1.616  0.0961  0.8356  0.1649
16617SOL     OW50983   2.899   7.475   8.075  0.2264 -0.0195  0.0879
16617SOL    HW150984   2.920   7.521   8.157  0.3432  1.3414 -0.6829
16617SOL    HW250985   2.959   7.401   8.074  1.7275  1.1402  0.2317
16618SOL     OW50986   3.402   7.551   1.137  0.2864  0.0496 -0.0619
16618SOL    HW150987   3.458   7.624   1.110 -1.5304  1.8114  0.7737
16618SOL    HW250988   3.390   7.500   1.057  0.7740  1.2289 -0.9120
16619SOL     OW50989   2.168   2.524   7.597  0.2032 -0.3100  0.1191
16619SOL    HW150990   2.187   2.617   7.607 -2.2361  0.6116 -2.4389
16619SOL    HW250991   2.254   2.481   7.606  1.4908  2.2008  0.7634
16620SOL     OW50992   5.972   5.089   7.043 -0.2687  0.3853 -0.2290
16620SOL    HW150993   6.038   5.092   6.974 -0.0912  0.0697 -0.0754
16620SOL    HW250994   5.961   5.181   7.069  0.8826  0.3505  0.4680
16621SOL     OW50995   7.646   2.910   8.588  0.7841  0.2894 -0.1008
16621SOL    HW150996   7.555   2.885   8.570  0.4551 -0.4884  2.2939
16621SOL    HW250997   7.688   2.827   8.612  1.8338  0.8153 -0.1119
16622SOL     OW50998   4.294   7.935   1.936 -0.5196 -0.0263 -0.5550
16622SOL    HW150999   4.356   7.927   2.009 -1.2486 -0.6226  0.0268
16622SOL    HW251000   4.208   7.928   1.978 -1.0105  1.3381 -1.2759
16623SOL     OW51001   7.586   2.888   7.977 -0.2780 -0.0409 -0.7304
16623SOL    HW151002   7.665   2.876   8.030 -0.3213 -0.0908 -0.6755
16623SOL    HW251003   7.618   2.901   7.888 -0.2143 -0.2360 -0.7371
16624SOL     OW51004   8.847   0.284   2.140 -0.5592 -0.0372  0.2409
16624SOL    HW151005   8.769   0.228   2.140  0.2426 -1.2070  0.9707
16624SOL    HW251006   8.919   0.224   2.118  0.6217  0.2240  3.0019
16625SOL     OW51007   2.726   0.765   2.198 -0.2910 -0.3996 -0.7147
16625SOL    HW151008   2.662   0.818   2.150 -1.6617 -1.8538 -0.5949
16625SOL    HW251009   2.694   0.766   2.288 -0.2802 -1.3077 -0.6916
16626SOL     OW51010   3.138   5.303   8.488 -0.0835 -0.3216 -0.3670
16626SOL    HW151011   3.055   5.301   8.440 -0.0200 -0.6314 -0.4714
16626SOL    HW251012   3.144   5.216   8.529 -1.0458  0.5700  1.8007
16627SOL     OW51013   2.325   0.375   4.528  0.3564 -0.1980 -0.0270
16627SOL    HW151014   2.374   0.297   4.501  1.1787  0.7490 -1.3972
16627SOL    HW251015   2.384   0.448   4.510 -0.8652  0.8407  0.0542
16628SOL     OW51016   4.038   4.850   6.072  0.3464 -0.3249  0.1178
16628SOL    HW151017   4.125   4.891   6.065  0.4018 -0.7064 -2.0523
16628SOL    HW251018   4.056   4.756   6.063 -0.3247 -0.3655 -0.8891
16629SOL     OW51019   3.623   5.145   6.879  0.5291  0.7314  0.5646
16629SOL    HW151020   3.538   5.189   6.884  0.2989  0.1936  2.1130
16629SOL    HW251021   3.606   5.057   6.912  0.8577 -0.8336 -2.9592
16630SOL     OW51022   3.493   7.321   8.861 -0.6583 -0.7144  0.1455
16630SOL    HW151023   3.529   7.289   8.944 -0.0555  0.9779  0.5759
16630SOL    HW251024   3.483   7.243   8.807  1.1996 -1.5672  0.9516
16631SOL     OW51025   2.895   2.721   5.958 -0.1831  0.3340  0.2874
16631SOL    HW151026   2.983   2.759   5.967 -0.6469  1.5289 -0.0588
16631SOL    HW251027   2.909   2.643   5.904  0.6059  0.7534 -0.1428
16632SOL     OW51028   6.096   7.133   4.410 -0.4980 -0.1644 -0.2253
16632SOL    HW151029   6.187   7.108   4.395 -0.4958 -0.1388 -0.2540
16632SOL    HW251030   6.099   7.184   4.491 -0.5140 -0.3274 -0.1207
16633SOL     OW51031   0.512   7.145   0.124  0.0862 -0.0620 -0.2524
16633SOL    HW151032   0.426   7.186   0.122 -0.0749 -0.4141 -0.7795
16633SOL    HW251033   0.556   7.184   0.200 -0.0042  1.2018 -0.8202
16634SOL     OW51034   4.277   0.384   0.613  0.4357  0.3690  0.9776
16634SOL    HW151035   4.212   0.371   0.682  0.3030 -0.1868  0.7584
16634SOL    HW251036   4.321   0.465   0.636 -0.4616  0.8524  1.0349
16635SOL     OW51037   1.128   5.589   2.691 -0.0469 -0.1125 -0.8299
16635SOL    HW151038   1.212   5.634   2.702  1.0215 -1.8840 -1.2369
16635SOL    HW251039   1.129   5.520   2.758 -1.3001 -0.0184 -0.6885
16636SOL     OW51040   3.680   8.439   7.613 -0.0697  0.1239  0.1202
16636SOL    HW151041   3.697   8.396   7.529  1.7491  1.7890 -0.4359
16636SOL    HW251042   3.754   8.412   7.668 -0.9228 -0.4566  1.0056
16637SOL     OW51043   1.430   2.478   3.840 -0.2953  0.1874 -0.8707
16637SOL    HW151044   1.445   2.571   3.856 -0.3220  0.7713 -3.6845
16637SOL    HW251045   1.344   2.461   3.878 -0.2899  1.3148 -0.3187
16638SOL     OW51046   4.082   9.096   5.454  0.1776 -0.6001  0.5568
16638SOL    HW151047   4.038   9.181   5.454 -0.0543 -0.7187  0.7915
16638SOL    HW251048   4.074   9.065   5.363  2.6244  0.8212 -0.2372
16639SOL     OW51049   3.724   0.054   3.348 -0.4732 -0.5630 -0.1791
16639SOL    HW151050   3.643   0.073   3.300 -1.1216 -1.9636  0.3099
16639SOL    HW251051   3.787   0.031   3.279 -1.1029 -1.5307 -0.4587
16640SOL     OW51052   1.800   0.261   1.153 -0.6463  0.1883 -0.5660
16640SOL    HW151053   1.846   0.206   1.216 -0.3093 -0.1449 -1.1048
16640SOL    HW251054   1.817   0.351   1.183 -1.7454  0.0057  0.6981
16641SOL     OW51055   9.018   1.289   5.559 -0.0849 -0.4018 -0.1576
16641SOL    HW151056   9.060   1.202   5.563 -1.5028 -1.1769 -1.1598
16641SOL    HW251057   8.956   1.288   5.632  1.7880  0.8939  1.5667
16642SOL     OW51058   6.638   8.858   3.326 -0.5060 -0.1574 -0.3617
16642SOL    HW151059   6.685   8.790   3.277 -0.9008  0.5517 -1.7814
16642SOL    HW251060   6.704   8.898   3.382  0.2348 -0.2697 -1.1349
16643SOL     OW51061   8.131   6.488   4.946 -0.2605  0.1065  0.4347
16643SOL    HW151062   8.205   6.448   4.902 -0.1856  0.4507  0.2461
16643SOL    HW251063   8.072   6.514   4.875  0.1441  1.2266  0.4898
16644SOL     OW51064   4.786   0.781   7.644 -0.1798  0.2603  0.1893
16644SOL    HW151065   4.714   0.833   7.609  0.4706  0.9207 -0.2163
16644SOL    HW251066   4.780   0.793   7.739 -1.1956 -0.5133  0.2384
16645SOL     OW51067   1.721   4.497   1.614  0.8311 -0.5565 -0.4983
16645SOL    HW151068   1.697   4.498   1.521 -0.7945 -0.0361 -0.1151
16645SOL    HW251069   1.738   4.589   1.635 -1.3587 -0.2749  0.2798
16646SOL     OW51070   2.580   7.883   1.909  0.2460  0.7467 -0.0044
16646SOL    HW151071   2.645   7.885   1.839  0.0539  2.7238 -0.1916
16646SOL    HW251072   2.613   7.818   1.970  1.4951  0.4557 -0.9413
16647SOL     OW51073   3.721   8.087   5.779  0.4628 -0.3343  0.1805
16647SOL    HW151074   3.664   8.058   5.709 -0.2634 -0.2153  0.7143
16647SOL    HW251075   3.671   8.071   5.859  0.9326  0.3324  0.6180
16648SOL     OW51076   2.858   5.282   5.152 -0.0233 -0.6049 -0.2493
16648SOL    HW151077   2.946   5.274   5.188 -0.4051 -3.3185  0.2502
16648SOL    HW251078   2.869   5.269   5.058 -0.0160 -2.4069 -0.0231
16649SOL     OW51079   0.536   0.521   0.574 -0.0147  0.8074 -0.0921
16649SOL    HW151080   0.453   0.474   0.589  0.9776 -1.1030 -0.2346
16649SOL    HW251081   0.514   0.590   0.512 -1.4709  0.2268 -0.2567
16650SOL     OW51082   3.251   4.011   8.125 -0.0513 -0.2047 -0.3867
16650SOL    HW151083   3.296   4.094   8.105  1.8005 -1.0112  0.1855
16650SOL    HW251084   3.320   3.945   8.119 -1.1999 -1.5417  0.5304
16651SOL     OW51085   5.766   7.006   0.670 -0.1737  0.1675 -0.1072
16651SOL    HW151086   5.710   7.063   0.617 -0.4069  0.8858  0.8829
16651SOL    HW251087   5.854   7.042   0.659  0.0862 -0.8077 -1.4594
16652SOL     OW51088   3.996   3.493   1.561 -0.3888  0.3908  0.1789
16652SOL    HW151089   4.060   3.525   1.498  1.2977 -2.4360  0.2927
16652SOL    HW251090   3.923   3.463   1.507  0.3183 -0.4522 -0.3389
16653SOL     OW51091   0.025   2.496   0.031 -0.0337  0.3176 -0.0044
16653SOL    HW151092  -0.050   2.472  -0.024  1.8747  1.2934 -3.2683
16653SOL    HW251093   0.042   2.417   0.082 -0.8992 -1.3413 -2.0955
16654SOL     OW51094   3.860   5.053   8.735  0.0010 -0.1775 -0.2720
16654SOL    HW151095   3.879   5.066   8.642  0.2572  0.2402 -0.1613
16654SOL    HW251096   3.848   5.141   8.771  1.6909 -0.2128  0.4673
16655SOL     OW51097   2.283   5.053   0.119 -0.1328 -0.1348 -0.2418
16655SOL    HW151098   2.280   5.126   0.180  1.4432 -0.5418  0.3776
16655SOL    HW251099   2.195   5.016   0.121 -0.5659  0.8984  0.4766
16656SOL     OW51100   3.518   0.440   2.680 -0.0069  0.0704 -0.1734
16656SOL    HW151101   3.430   0.402   2.683  0.4171 -0.9029  1.3691
16656SOL    HW251102   3.503   0.534   2.675 -1.1564 -0.0519  0.5767
16657SOL     OW51103   7.249   8.386   0.015  0.2997 -0.2049 -0.0229
16657SOL    HW151104   7.200   8.444   0.073  1.2407  0.5697  0.0245
16657SOL    HW251105   7.312   8.343   0.072 -0.6955 -1.6567  0.0247
16658SOL     OW51106   3.583   2.876   4.383  0.2694  0.5952  0.0931
16658SOL    HW151107   3.660   2.838   4.425  0.9948  0.1114 -1.5763
16658SOL    HW251108   3.511   2.857   4.443  0.4862 -3.7987 -0.7076
16659SOL     OW51109   8.822   7.292   4.752 -0.4393  0.2070 -0.0462
16659SOL    HW151110   8.898   7.309   4.697  0.8206  0.4716  1.7008
16659SOL    HW251111   8.809   7.374   4.801 -1.4919 -0.0256  0.0858
16660SOL     OW51112   4.380   1.648   8.431 -0.0561 -0.1065 -0.2319
16660SOL    HW151113   4.299   1.694   8.453  0.5182 -0.1568  2.2977
16660SOL    HW251114   4.358   1.598   8.352 -2.3083  0.3199  0.0451
16661SOL     OW51115   5.174   7.225   6.670 -0.0865 -0.3311 -0.0020
16661SOL    HW151116   5.211   7.139   6.692  0.8012  0.3200  1.1701
16661SOL    HW251117   5.244   7.270   6.623 -0.5495 -0.2354 -0.6147
16662SOL     OW51118   7.139   4.325   8.542  0.2512 -0.4055  0.1455
16662SOL    HW151119   7.097   4.311   8.627 -0.3324  1.8047  0.2963
16662SOL    HW251120   7.075   4.295   8.478  0.4632 -1.5638  0.4602
16663SOL     OW51121   3.068   2.494   6.928  0.2011  0.6798 -0.2927
16663SOL    HW151122   3.050   2.496   7.022  0.7231  1.0374 -0.1970
16663SOL    HW251123   2.987   2.524   6.887  0.0357  0.7062  0.0516
16664SOL     OW51124   2.186   3.816   8.643 -0.0064  0.1205  0.2357
16664SOL    HW151125   2.207   3.733   8.599 -0.1966 -0.5227  1.3204
16664SOL    HW251126   2.173   3.878   8.571  0.6851 -0.6483 -0.5850
16665SOL     OW51127   7.385   2.035   5.835 -0.7362  0.0177  0.7886
16665SOL    HW151128   7.347   1.954   5.801 -0.3730 -0.4650  1.5016
16665SOL    HW251129   7.353   2.041   5.925 -0.8784  0.7465  0.6986
16666SOL     OW51130   7.878   0.384   8.020 -0.2366 -0.3433  0.1218
16666SOL    HW151131   7.896   0.360   8.111 -0.8997  0.1385  0.3941
16666SOL    HW251132   7.825   0.464   8.027  1.5458  0.9744 -0.7451
16667SOL     OW51133   3.890   2.643   7.413  0.3679  0.5228 -0.2188
16667SOL    HW151134   3.802   2.607   7.424  0.2172  0.2146 -2.1667
16667SOL    HW251135   3.899   2.707   7.484 -1.2042  0.1491  0.3470
16668SOL     OW51136   7.408   0.941   4.078  0.0526  0.5022  0.2526
16668SOL    HW151137   7.432   1.019   4.127  0.0225  0.1912  0.7727
16668SOL    HW251138   7.312   0.938   4.082 -0.0046  1.0009 -0.6552
16669SOL     OW51139   1.764   1.206   5.676 -0.1299 -0.0966  0.0479
16669SOL    HW151140   1.757   1.301   5.673  1.1433  0.1148  2.2474
16669SOL    HW251141   1.680   1.175   5.643 -0.9160  1.7904  0.1783
16670SOL     OW51142   0.250   4.346   1.144 -0.3989 -0.7880 -0.5498
16670SOL    HW151143   0.234   4.318   1.054  0.9983 -0.1808 -1.0204
16670SOL    HW251144   0.262   4.265   1.193 -2.0861 -1.1648 -0.6846
16671SOL     OW51145   0.141   6.701   1.742  0.0590  0.0234  0.0488
16671SOL    HW151146   0.147   6.607   1.724  1.5437  0.2389 -0.6940
16671SOL    HW251147   0.223   6.723   1.786  0.0442  1.1152 -0.4283
16672SOL     OW51148   5.884   1.496   9.108  0.6332  0.0433 -0.1232
16672SOL    HW151149   5.874   1.520   9.200  0.8778  2.1191 -0.5809
16672SOL    HW251150   5.979   1.491   9.095  0.6278  0.7651 -0.4817
16673SOL     OW51151   7.998   0.743   7.689  0.3964 -0.0121  0.2030
16673SOL    HW151152   7.911   0.722   7.723  0.8520 -0.6603  0.9955
16673SOL    HW251153   8.012   0.680   7.619  0.1784  0.1816 -0.0176
16674SOL     OW51154   7.755   6.083   2.330 -0.3806 -0.0370 -0.0589
16674SOL    HW151155   7.775   6.085   2.237 -2.8253  2.6430 -0.6529
16674SOL    HW251156   7.663   6.055   2.334  0.2912 -2.3311  1.7919
16675SOL     OW51157   3.205   1.255   0.623  0.0858 -0.4074 -0.4311
16675SOL    HW151158   3.164   1.171   0.605  0.8992 -0.6153 -1.4617
16675SOL    HW251159   3.161   1.288   0.701 -2.1049 -0.5536 -1.5447
16676SOL     OW51160   7.411   2.438   3.436  0.3626 -0.2621 -0.3153
16676SOL    HW151161   7.498   2.476   3.428  0.2762 -0.3427 -1.9032
16676SOL    HW251162   7.351   2.508   3.410 -0.1531  0.0960  1.6382
16677SOL     OW51163   0.663   7.358   5.217  0.1487 -0.0483  0.6201
16677SOL    HW151164   0.633   7.280   5.264  0.9313 -0.6915  0.0911
16677SOL    HW251165   0.702   7.413   5.284 -0.7890  0.0984  1.0700
16678SOL     OW51166   3.877   4.443   1.963  0.3013 -0.2356  0.0764
16678SOL    HW151167   3.932   4.385   1.911  2.0114  0.0089  1.4885
16678SOL    HW251168   3.912   4.531   1.946 -0.1959  0.0244  0.3556
16679SOL     OW51169   8.443   0.457   2.707  0.9173  0.4547  0.6215
16679SOL    HW151170   8.515   0.394   2.715  2.2441  2.0347  1.7700
16679SOL    HW251171   8.485   0.539   2.682 -0.7972  0.8870 -1.1038
16680SOL     OW51172   8.614   3.254   5.098 -0.0661 -0.1467 -0.4917
16680SOL    HW151173   8.539   3.289   5.050  1.0578  1.3669 -1.2249
16680SOL    HW251174   8.690   3.292   5.055  1.0665 -0.1135  1.4273
16681SOL     OW51175   5.401   8.767   5.517 -0.0692  0.0187  0.1888
16681SOL    HW151176   5.396   8.821   5.438  0.8266 -0.9014 -0.5272
16681SOL    HW251177   5.471   8.807   5.568  0.4726 -0.3503 -0.2566
16682SOL     OW51178   0.851   8.037   8.174  0.2864  0.2194 -0.0154
16682SOL    HW151179   0.881   8.120   8.137  0.6934 -0.3712 -1.0454
16682SOL    HW251180   0.809   7.992   8.101  1.3923 -1.1121  0.1395
16683SOL     OW51181   5.606   5.847   6.396 -0.3293  0.0385  0.3425
16683SOL    HW151182   5.571   5.795   6.323 -0.1955 -1.1404  1.0947
16683SOL    HW251183   5.681   5.892   6.358 -0.8777  0.2612 -0.5202
16684SOL     OW51184   6.535   7.218   3.488  0.5675 -0.5250  0.3577
16684SOL    HW151185   6.458   7.171   3.455 -0.3854  0.6531  0.8304
16684SOL    HW251186   6.564   7.166   3.563 -1.0072  0.0762  1.4227
16685SOL     OW51187   0.705   7.965   2.381  0.1568 -0.3948 -0.2258
16685SOL    HW151188   0.786   7.925   2.413  0.1985 -1.8232 -1.9982
16685SOL    HW251189   0.735   8.043   2.334  0.2950  0.2960  0.9724
16686SOL     OW51190   1.621   4.178   3.425  0.4742 -0.1883  0.1735
16686SOL    HW151191   1.582   4.243   3.484 -0.1316  0.7408 -1.1953
16686SOL    HW251192   1.715   4.184   3.442  0.4067  0.8806  0.2300
16687SOL     OW51193   9.078   7.112   5.107 -0.2806  0.0474  0.5317
16687SOL    HW151194   9.003   7.140   5.053  0.3809  0.9984  0.0793
16687SOL    HW251195   9.038   7.076   5.186 -1.2274  0.8702  0.4516
16688SOL     OW51196   2.089   9.117   3.339  0.6309  0.1230  0.0119
16688SOL    HW151197   2.131   9.052   3.283 -0.6076  0.7450 -1.6901
16688SOL    HW251198   2.068   9.069   3.419  1.3140 -1.1029 -0.5205
16689SOL     OW51199   7.150   3.304   2.550  0.0133  0.2029  0.2463
16689SOL    HW151200   7.184   3.216   2.531 -0.3679 -0.0388  0.6665
16689SOL    HW251201   7.095   3.292   2.627 -0.7245  0.6513 -0.1964
16690SOL     OW51202   6.713   2.294   2.255 -0.2455  0.0266 -0.0578
16690SOL    HW151203   6.632   2.271   2.301 -1.6351 -1.6970 -3.0888
16690SOL    HW251204   6.700   2.385   2.229 -0.7101  0.0998  0.3968
16691SOL     OW51205   2.737   0.594   1.109  0.1988  0.7692  0.5409
16691SOL    HW151206   2.694   0.669   1.067 -0.9387  0.3111  0.8303
16691SOL    HW251207   2.770   0.628   1.192 -0.7869  0.8561  0.9213
16692SOL     OW51208   2.747   5.358   1.205  0.2778  0.1359 -0.5153
16692SOL    HW151209   2.707   5.275   1.232  0.4428  0.7052  1.6576
16692SOL    HW251210   2.748   5.354   1.110 -2.0749 -1.2471 -0.5645
16693SOL     OW51211   3.651   3.690   3.006  0.3619  0.4060 -0.3674
16693SOL    HW151212   3.724   3.650   3.054 -0.5842 -2.1771 -0.9363
16693SOL    HW251213   3.599   3.735   3.073 -0.3531 -2.2152  0.9618
16694SOL     OW51214   1.453   7.096   5.926  0.5597 -0.1041  0.3129
16694SOL    HW151215   1.548   7.108   5.927  0.7871 -1.4123 -1.1304
16694SOL    HW251216   1.418   7.181   5.901  1.3000  0.5155  1.2921
16695SOL     OW51217   1.643   3.661   4.910 -0.1955 -0.2941 -0.3730
16695SOL    HW151218   1.640   3.587   4.971 -3.9021  0.3200  0.4654
16695SOL    HW251219   1.708   3.720   4.947  0.1113 -1.4855  1.0719
16696SOL     OW51220   0.254   0.044   5.548  0.0368  0.5009 -0.4252
16696SOL    HW151221   0.262  -0.036   5.495 -0.1659 -1.0911  1.7687
16696SOL    HW251222   0.160   0.058   5.557  0.0226 -0.0644  0.5625
16697SOL     OW51223   0.379   4.164   6.138 -0.2994 -0.6335  0.1170
16697SOL    HW151224   0.309   4.101   6.155 -0.6464 -0.0556  0.8817
16697SOL    HW251225   0.440   4.154   6.211 -0.1521 -0.3651  0.0331
16698SOL     OW51226   3.344   1.516   8.728 -0.3545 -0.4376  0.7634
16698SOL    HW151227   3.409   1.470   8.675 -0.3622 -0.6223  0.9153
16698SOL    HW251228   3.293   1.447   8.770 -1.7824 -0.3303 -0.7033
16699SOL     OW51229   7.524   4.947   8.659  0.1537 -0.9995 -0.5738
16699SOL    HW151230   7.448   4.909   8.702  0.5003 -0.0717  0.9302
16699SOL    HW251231   7.556   4.878   8.601 -0.0973 -2.4643  0.9584
16700SOL     OW51232   3.548   0.995   3.213 -0.0001 -0.1227 -0.3949
16700SOL    HW151233   3.487   1.003   3.287 -1.1180 -1.8415 -1.0785
16700SOL    HW251234   3.493   0.985   3.136  1.0026 -3.4546 -0.8613
16701SOL     OW51235   1.016   0.145   1.715  0.2756 -0.5014  0.2531
16701SOL    HW151236   1.084   0.107   1.771 -2.0785 -3.4016  1.4489
16701SOL    HW251237   0.944   0.164   1.775 -0.1495  2.3409 -0.9943
16702SOL     OW51238   1.372   7.067   2.944  0.5381  0.4697 -0.6642
16702SOL    HW151239   1.420   7.117   2.878  1.8073  2.7742  1.7947
16702SOL    HW251240   1.284   7.103   2.942  0.6304  0.6839 -0.9606
16703SOL     OW51241   3.770   3.740   0.592  0.0872  0.3674 -0.1570
16703SOL    HW151242   3.777   3.667   0.653  0.1561  0.3199 -0.2213
16703SOL    HW251243   3.681   3.774   0.604 -1.0338 -1.5697 -2.2325
16704SOL     OW51244   6.672   0.892   3.777  0.4920  0.5526 -0.0334
16704SOL    HW151245   6.709   0.863   3.693 -1.8052 -0.4714 -0.7580
16704SOL    HW251246   6.734   0.859   3.842  0.2309 -2.4026 -1.1011
16705SOL     OW51247   0.767   0.565   7.426 -0.3242  0.1070 -0.1636
16705SOL    HW151248   0.715   0.616   7.488 -1.1532  1.7798 -2.1262
16705SOL    HW251249   0.845   0.619   7.410  0.4804 -0.8775  0.2781
16706SOL     OW51250   4.031   6.088   8.344  0.4778  0.0327  0.0051
16706SOL    HW151251   4.077   6.026   8.288  3.0308  0.3723  1.5344
16706SOL    HW251252   4.001   6.157   8.285 -0.6853 -1.6132 -1.4435
16707SOL     OW51253   1.578   4.324   5.347  0.5079  0.0933  0.2099
16707SOL    HW151254   1.589   4.248   5.403  1.5033 -0.9089 -1.2729
16707SOL    HW251255   1.503   4.303   5.291  0.0265  0.7435  0.5851
16708SOL     OW51256   2.429   6.661   4.797 -0.4480 -0.4351 -0.6073
16708SOL    HW151257   2.453   6.685   4.887  0.2822  0.4776 -1.0274
16708SOL    HW251258   2.348   6.612   4.807 -0.0770 -0.8587  0.6043
16709SOL     OW51259   3.014   8.335   3.087  0.2233 -0.1288  0.2615
16709SOL    HW151260   3.014   8.276   3.162  0.5775 -0.4983 -0.0222
16709SOL    HW251261   3.068   8.290   3.021 -0.7694 -0.2136 -0.5232
16710SOL     OW51262   3.450   5.530   1.025 -0.4234 -0.1425 -0.4521
16710SOL    HW151263   3.510   5.488   1.087 -0.1884  0.8880  0.0413
16710SOL    HW251264   3.394   5.459   0.994  2.0218 -1.4900 -2.1257
16711SOL     OW51265   1.266   3.680   8.382  0.0632  0.0970 -0.4411
16711SOL    HW151266   1.192   3.646   8.332  0.8828 -0.7011 -1.1541
16711SOL    HW251267   1.292   3.760   8.337  0.0359  0.0400 -0.5564
16712SOL     OW51268   7.063   5.076   0.382 -0.4290  0.5726 -0.3428
16712SOL    HW151269   7.050   5.171   0.375 -0.7624  0.4804 -1.0518
16712SOL    HW251270   7.156   5.067   0.405 -0.7291  1.1093  1.1913
16713SOL     OW51271   1.152   6.953   7.860  0.1665 -0.7680  0.1912
16713SOL    HW151272   1.178   6.987   7.945  0.2218  0.6013 -0.3564
16713SOL    HW251273   1.117   6.866   7.879  0.2284 -0.5045  1.6005
16714SOL     OW51274   7.400   5.854   3.770 -0.6643  0.2813  0.3021
16714SOL    HW151275   7.399   5.928   3.708 -1.2320  1.0863  1.2410
16714SOL    HW251276   7.434   5.892   3.851  1.9548 -1.1972  0.0173
16715SOL     OW51277   2.555   7.053   0.083  0.3780 -0.0562  0.0776
16715SOL    HW151278   2.460   7.051   0.079  0.3738 -0.4202  0.2438
16715SOL    HW251279   2.578   6.970   0.125  0.8611 -0.8844 -1.7404
16716SOL     OW51280   3.327   1.550   4.649  0.2749  0.2888  0.6555
16716SOL    HW151281   3.393   1.620   4.653  0.4057  0.4459 -2.0648
16716SOL    HW251282   3.249   1.593   4.615  0.2341 -0.7654 -0.6623
16717SOL     OW51283   4.843   8.343   0.057  0.2160  0.2379  1.2841
16717SOL    HW151284   4.803   8.426   0.032 -1.4627 -0.8417  0.1633
16717SOL    HW251285   4.912   8.329  -0.009 -1.4989 -0.6429 -0.4204
16718SOL     OW51286   8.693   6.959   3.316  0.1021 -0.5205 -0.3980
16718SOL    HW151287   8.600   6.938   3.327  0.1011  0.0272  0.6901
16718SOL    HW251288   8.714   7.019   3.388  1.2058 -0.3214 -0.8560
16719SOL     OW51289   1.808   2.337   7.336 -0.6935 -0.4382  0.2363
16719SOL    HW151290   1.802   2.245   7.312 -2.4459 -0.4991  0.7597
16719SOL    HW251291   1.865   2.339   7.413 -0.6369 -1.0714  0.2103
16720SOL     OW51292   0.100   1.392   4.590 -0.3902  0.1325  0.2808
16720SOL    HW151293   0.160   1.467   4.591  0.7340 -0.7600  0.7064
16720SOL    HW251294   0.097   1.362   4.681 -0.7056 -0.4354  0.0863
16721SOL     OW51295   2.512   6.708   7.285 -0.2503 -0.0748 -0.1304
16721SOL    HW151296   2.465   6.635   7.325  1.6272 -0.6008  1.2109
16721SOL    HW251297   2.444   6.773   7.267 -1.8960 -1.9375 -0.9400
16722SOL     OW51298   6.729   3.105   8.813  0.3152 -0.0909 -0.5031
16722SOL    HW151299   6.817   3.068   8.808 -0.1160 -1.0515 -1.5206
16722SOL    HW251300   6.675   3.034   8.848 -0.2452  0.0963 -0.9708
16723SOL     OW51301   8.148   6.036   1.620 -0.1466 -0.3191  0.1094
16723SOL    HW151302   8.196   5.964   1.580 -0.8325 -0.3411 -0.7179
16723SOL    HW251303   8.215   6.100   1.642  0.4487 -1.1379  0.7089
16724SOL     OW51304   7.383   4.826   0.977 -0.2420 -0.1984 -0.3832
16724SOL    HW151305   7.346   4.810   0.891 -2.2439 -0.3509  0.4578
16724SOL    HW251306   7.469   4.782   0.974 -0.5869 -0.8508 -2.0278
16725SOL     OW51307   1.230   6.573   8.829 -0.2241 -0.3222 -0.2376
16725SOL    HW151308   1.154   6.632   8.835  0.4508  0.4810  0.7757
16725SOL    HW251309   1.219   6.512   8.902 -0.6543 -1.1653 -0.9843
16726SOL     OW51310   6.097   2.482   8.925 -0.5444 -0.0530  0.2496
16726SOL    HW151311   6.055   2.431   8.994 -0.3210 -1.1375 -0.3784
16726SOL    HW251312   6.069   2.572   8.940 -2.7387 -0.6688  0.1172
16727SOL     OW51313   1.498   5.258   8.460  0.3413  0.1576 -0.5148
16727SOL    HW151314   1.576   5.285   8.509 -0.5998 -0.3102  1.3368
16727SOL    HW251315   1.485   5.167   8.484  0.3250 -0.3621 -2.3735
16728SOL     OW51316   6.414   1.029   7.884 -0.2464 -0.0460 -0.0080
16728SOL    HW151317   6.324   1.019   7.853 -0.4579 -2.2120  1.1760
16728SOL    HW251318   6.416   0.985   7.968  1.8046  0.4831  0.2673
16729SOL     OW51319   4.299   2.186   4.251 -0.3421  0.2950  0.3950
16729SOL    HW151320   4.285   2.197   4.157  1.5889 -2.3991 -0.3315
16729SOL    HW251321   4.253   2.105   4.273  1.4032 -0.5379  1.1448
16730SOL     OW51322   2.337   6.032   3.649 -0.1704  0.1290  0.0884
16730SOL    HW151323   2.311   5.941   3.632  1.2686 -0.1301 -0.8603
16730SOL    HW251324   2.256   6.074   3.677 -1.2737 -1.0388 -1.1613
16731SOL     OW51325   8.680   5.439   4.421 -0.5097  0.4609  0.3592
16731SOL    HW151326   8.612   5.498   4.452  0.3903  1.2595  0.8728
16731SOL    HW251327   8.668   5.359   4.473  0.0952  1.2698  1.8085
16732SOL     OW51328   6.873   2.021   2.166  0.4356  0.1015  0.1336
16732SOL    HW151329   6.845   2.101   2.211 -1.6686 -1.1924  1.2684
16732SOL    HW251330   6.952   1.994   2.211  1.1877  1.5077 -0.2716
16733SOL     OW51331   1.841   7.891   5.753 -0.0372 -0.3761  0.5601
16733SOL    HW151332   1.898   7.882   5.677  1.6966  1.6259  1.5085
16733SOL    HW251333   1.814   7.983   5.752 -0.4167 -0.4358  2.0701
16734SOL     OW51334   1.873   8.721   4.629 -0.0095  0.0104 -0.0546
16734SOL    HW151335   1.925   8.668   4.688  0.4393  0.5415  0.0366
16734SOL    HW251336   1.936   8.784   4.592 -0.1491 -0.6516 -1.5095
16735SOL     OW51337   6.724   6.350   5.903 -0.0449 -0.0821  0.4161
16735SOL    HW151338   6.646   6.386   5.945  0.1132 -2.1702  2.7154
16735SOL    HW251339   6.713   6.370   5.810 -1.8226  2.2748  1.0343
16736SOL     OW51340   8.220   3.020   7.646 -0.7663  0.0219 -0.1080
16736SOL    HW151341   8.181   3.047   7.563 -1.1674 -0.3089 -0.0270
16736SOL    HW251342   8.147   2.986   7.698 -0.6609  1.0260  0.7213
16737SOL     OW51343   0.253   5.291   4.285 -0.1365 -0.0288  0.1895
16737SOL    HW151344   0.185   5.324   4.228 -0.3403  1.5903  1.3196
16737SOL    HW251345   0.206   5.248   4.357  0.0913 -0.7580 -0.0863
16738SOL     OW51346   6.124   8.871   4.302  0.6304 -0.1640  0.3899
16738SOL    HW151347   6.191   8.934   4.328 -0.8190  1.3599  0.6614
16738SOL    HW251348   6.118   8.881   4.207  1.7104 -1.3011  0.1874
16739SOL     OW51349   8.494   0.998   0.918  0.3199 -0.1664  0.3839
16739SOL    HW151350   8.538   1.067   0.969  0.9160 -0.8411  0.8022
16739SOL    HW251351   8.566   0.951   0.875 -0.2000  0.7589 -1.5944
16740SOL     OW51352   4.951   0.058   4.924  0.3512 -0.0242 -0.2631
16740SOL    HW151353   4.980   0.127   4.865  2.8550 -0.7482  0.0204
16740SOL    HW251354   4.886   0.100   4.981 -0.5214  1.2266 -2.0945
16741SOL     OW51355   2.370   7.911   0.390  0.8468 -0.5087  0.2492
16741SOL    HW151356   2.346   7.991   0.436 -0.3808 -1.7267  1.9019
16741SOL    HW251357   2.379   7.937   0.299 -1.0270  1.2313  0.4811
16742SOL     OW51358   6.098   5.520   6.947  0.3874  0.3709  0.3039
16742SOL    HW151359   6.038   5.576   6.897 -0.7051 -0.7955  0.2572
16742SOL    HW251360   6.097   5.436   6.900  1.6394  0.1486  0.6306
16743SOL     OW51361   5.105   3.812   5.060 -0.2134  0.1804 -0.2987
16743SOL    HW151362   5.105   3.730   5.109 -2.7496  0.2866  0.0207
16743SOL    HW251363   5.197   3.835   5.052  0.4473 -0.7582  2.9079
16744SOL     OW51364   1.166   6.644   2.061  0.3182 -0.1319  0.7854
16744SOL    HW151365   1.224   6.587   2.111  0.9246  2.0034  2.6581
16744SOL    HW251366   1.221   6.675   1.989  1.1661  0.8954  1.8384
16745SOL     OW51367   8.023   8.363   5.533  0.1321  0.2033  0.0372
16745SOL    HW151368   7.975   8.330   5.609 -1.6235  2.3070 -0.0672
16745SOL    HW251369   8.040   8.285   5.480  0.3774 -1.1520  1.9868
16746SOL     OW51370   4.391   6.266   7.651  0.0787  0.1458 -0.3319
16746SOL    HW151371   4.473   6.312   7.637  0.3987 -0.0699  0.7427
16746SOL    HW251372   4.408   6.176   7.622  0.8948 -0.4295  1.7460
16747SOL     OW51373   1.879   2.280   3.729 -0.6733  0.1729 -0.2321
16747SOL    HW151374   1.813   2.306   3.665 -0.4665  1.2241 -0.0387
16747SOL    HW251375   1.874   2.348   3.797  0.5265  0.2142 -0.1649
16748SOL     OW51376   6.228   8.798   0.888 -0.6872 -0.0851  0.1257
16748SOL    HW151377   6.177   8.871   0.923 -0.0218  0.5994 -0.2921
16748SOL    HW251378   6.283   8.838   0.821 -0.6657 -1.0622 -0.4589
16749SOL     OW51379   1.032   6.540   3.586 -0.2289 -0.1415 -0.0921
16749SOL    HW151380   1.064   6.503   3.668  1.2803 -0.7314 -0.8909
16749SOL    HW251381   1.087   6.500   3.519 -1.9932 -0.3505 -1.4952
16750SOL     OW51382   7.483   5.838   5.917 -0.3419 -0.1676 -0.0137
16750SOL    HW151383   7.543   5.886   5.974 -1.8343 -2.5457  3.9382
16750SOL    HW251384   7.396   5.868   5.944 -1.2323  1.4866 -3.9825
16751SOL     OW51385   5.975   4.182   3.479  0.1240  0.5691 -0.0217
16751SOL    HW151386   6.032   4.253   3.509  1.9449 -0.6718 -0.3383
16751SOL    HW251387   6.032   4.105   3.477 -1.6877 -0.8441 -0.0215
16752SOL     OW51388   5.258   0.402   4.218 -0.0287  0.1122  0.0435
16752SOL    HW151389   5.166   0.381   4.232 -0.3072  0.4859 -1.1384
16752SOL    HW251390   5.300   0.384   4.302 -1.2519  0.3652  0.7279
16753SOL     OW51391   5.345   3.345   0.959 -0.1556  0.2071  0.4795
16753SOL    HW151392   5.374   3.313   1.044 -0.2366  0.7275  0.7009
16753SOL    HW251393   5.384   3.284   0.896 -0.6989 -0.6193  0.9243
16754SOL     OW51394   4.038   6.863   2.293  0.0824  0.0360 -0.2362
16754SOL    HW151395   3.988   6.927   2.342  1.7520  0.6796  0.7290
16754SOL    HW251396   4.021   6.780   2.338  0.8634  0.4687  0.9313
16755SOL     OW51397   2.748   1.189   3.270  0.0907 -0.1634  0.3282
16755SOL    HW151398   2.693   1.206   3.194  1.2206  0.5161 -0.3514
16755SOL    HW251399   2.707   1.239   3.341  0.0859  0.7052 -0.2776
16756SOL     OW51400   1.490   2.622   0.408  0.6877 -0.1569  0.2831
16756SOL    HW151401   1.517   2.651   0.321  0.5842 -1.0779 -0.0578
16756SOL    HW251402   1.487   2.703   0.459 -0.0956  0.5144 -0.7812
16757SOL     OW51403   7.618   3.795   2.926 -0.3329 -0.6305  0.0882
16757SOL    HW151404   7.691   3.852   2.949  0.3238 -1.1036 -0.7350
16757SOL    HW251405   7.656   3.733   2.863 -1.8481  0.1888 -1.7309
16758SOL     OW51406   0.752   7.846   2.830 -0.7358  0.1420 -0.3840
16758SOL    HW151407   0.657   7.837   2.834 -1.1048  3.3384  0.5411
16758SOL    HW251408   0.781   7.837   2.920 -0.1160 -0.8339 -0.6647
16759SOL     OW51409   2.378   6.177   8.833 -0.3913  0.1292  0.4231
16759SOL    HW151410   2.321   6.223   8.772  0.7222  0.5784 -0.2980
16759SOL    HW251411   2.338   6.091   8.843  0.3708 -0.6447 -2.3987
16760SOL     OW51412   8.950   7.860   0.022 -0.2316 -0.8449 -0.1410
16760SOL    HW151413   8.865   7.841  -0.018 -1.3690 -0.4362  1.9617
16760SOL    HW251414   8.947   7.818   0.108  1.4821 -0.3375  0.2161
16761SOL     OW51415   7.146   6.558   3.511  0.3593  0.4803 -0.5210
16761SOL    HW151416   7.172   6.475   3.472 -2.6829  0.5172 -3.0057
16761SOL    HW251417   7.173   6.551   3.603  0.4650 -3.1059 -0.7030
16762SOL     OW51418   1.365   8.693   2.341 -0.4495  0.0345 -0.1226
16762SOL    HW151419   1.351   8.629   2.410  1.1130  2.1646  2.3312
16762SOL    HW251420   1.457   8.684   2.318 -0.2938  1.1602  0.0311
16763SOL     OW51421   7.074   3.608   8.399 -0.4544 -0.7299  0.6481
16763SOL    HW151422   6.980   3.593   8.406 -1.2248  2.7603 -0.0839
16763SOL    HW251423   7.105   3.541   8.338 -2.9478 -0.4972 -1.0029
16764SOL     OW51424   9.073   8.237   7.271 -0.0294 -0.0179 -0.0001
16764SOL    HW151425   9.089   8.289   7.192  1.8092 -0.2394  0.1860
16764SOL    HW251426   9.008   8.287   7.320 -0.1906  0.8063 -1.0259
16765SOL     OW51427   2.423   6.618   8.558 -0.0059  0.0388 -0.3407
16765SOL    HW151428   2.492   6.611   8.624 -0.0785  1.2595 -0.1213
16765SOL    HW251429   2.467   6.647   8.478 -0.1883  0.3347 -0.3357
16766SOL     OW51430   3.434   3.130   0.261  0.9240 -0.6886  0.2192
16766SOL    HW151431   3.390   3.208   0.228 -0.6652 -1.7123 -0.2073
16766SOL    HW251432   3.525   3.157   0.272  0.5123  1.0876 -0.3257
16767SOL     OW51433   6.088   0.564   2.832  0.1619  0.1012 -0.4913
16767SOL    HW151434   6.168   0.519   2.860 -0.5979 -0.9078  0.0903
16767SOL    HW251435   6.097   0.653   2.868  0.6535 -0.2393  0.2442
16768SOL     OW51436   7.110   1.951   2.662  0.4366 -0.3381  0.3664
16768SOL    HW151437   7.177   2.007   2.701  1.2318 -1.5051  0.7222
16768SOL    HW251438   7.101   1.878   2.723 -0.6208 -0.5834 -0.0600
16769SOL     OW51439   7.910   1.446   0.825 -0.3493 -0.2701 -0.7037
16769SOL    HW151440   7.847   1.445   0.897  0.4303  1.0013  0.0209
16769SOL    HW251441   7.893   1.364   0.778 -0.2466 -1.6045  1.4514
16770SOL     OW51442   1.481   3.238   7.858  0.2350 -0.0353  0.4833
16770SOL    HW151443   1.532   3.261   7.781 -0.2908 -1.0558 -0.2031
16770SOL    HW251444   1.406   3.188   7.823 -1.5328  1.8421  1.3905
16771SOL     OW51445   9.034   4.395   0.733 -0.5363  0.1275 -0.5635
16771SOL    HW151446   9.023   4.486   0.759 -1.3709  0.1204 -0.8527
16771SOL    HW251447   8.966   4.380   0.666  0.7818 -0.1925 -1.8772
16772SOL     OW51448   4.539   3.334   0.408  0.1560 -0.2200 -0.1642
16772SOL    HW151449   4.623   3.377   0.395 -0.1747  0.5569  0.2094
16772SOL    HW251450   4.489   3.354   0.328 -0.0954  0.3339  0.1267
16773SOL     OW51451   7.419   7.470   6.656  0.1508  0.0755 -0.6175
16773SOL    HW151452   7.478   7.405   6.617  1.1530  0.6205 -0.0591
16773SOL    HW251453   7.462   7.554   6.638  0.1671  0.3945  0.8563
16774SOL     OW51454   8.422   7.487   5.007 -0.8603 -0.2896 -0.1205
16774SOL    HW151455   8.340   7.533   4.988  0.4349  1.6785 -1.3775
16774SOL    HW251456   8.430   7.421   4.938 -1.0591 -0.0125 -0.4093
16775SOL     OW51457   2.786   7.709   1.998  0.2872 -0.3456  0.3652
16775SOL    HW151458   2.756   7.626   2.036  2.5057 -0.7246  1.4550
16775SOL    HW251459   2.842   7.747   2.066 -0.4051  1.9200 -0.2440
16776SOL     OW51460   3.764   7.923   4.299  0.0166 -0.1021  0.3248
16776SOL    HW151461   3.756   8.018   4.306 -2.0225 -0.1722 -0.1940
16776SOL    HW251462   3.811   7.908   4.218  0.8336  0.4534  0.6822
16777SOL     OW51463   3.101   6.014   0.586 -0.2148 -0.0589  0.7333
16777SOL    HW151464   3.014   6.051   0.569 -0.0677 -0.2284 -0.4348
16777SOL    HW251465   3.106   5.937   0.530  0.9641  0.3631  0.2149
16778SOL     OW51466   6.297   8.493   0.246 -0.3310 -0.1252  0.5820
16778SOL    HW151467   6.373   8.493   0.188 -0.4193  1.6877  0.4235
16778SOL    HW251468   6.312   8.419   0.305  1.6498  0.3145  0.6943
16779SOL     OW51469   2.601   2.014   4.795 -0.0586 -0.6402  0.5377
16779SOL    HW151470   2.618   2.009   4.889  0.7951  1.0857  0.5223
16779SOL    HW251471   2.506   2.006   4.788  0.0172 -3.2684  1.2784
16780SOL     OW51472   5.455   8.493   6.548  0.8333 -0.5766  0.1428
16780SOL    HW151473   5.361   8.483   6.534  0.8755 -2.1781  0.7810
16780SOL    HW251474   5.468   8.469   6.640  1.8893 -0.5091  0.0254
16781SOL     OW51475   5.306   3.029   0.940  0.2717  0.2737 -0.6542
16781SOL    HW151476   5.263   3.112   0.964 -1.2009 -0.3840 -0.8683
16781SOL    HW251477   5.248   2.961   0.975  2.5732 -0.7448  1.5102
16782SOL     OW51478   5.133   8.772   7.246 -0.1147  0.7733  0.4609
16782SOL    HW151479   5.178   8.830   7.184  1.5608 -1.8539 -0.9736
16782SOL    HW251480   5.100   8.700   7.193  0.6833 -1.1992  2.4294
16783SOL     OW51481   3.573   7.220   4.826 -0.5698 -0.5433  0.4207
16783SOL    HW151482   3.605   7.131   4.808  0.9087  0.0599 -0.0571
16783SOL    HW251483   3.503   7.207   4.890 -1.9047 -2.2484 -1.2606
16784SOL     OW51484   8.897   0.167   7.629  0.0912 -0.5334 -0.1462
16784SOL    HW151485   8.806   0.172   7.599  0.7115  0.7025 -2.0147
16784SOL    HW251486   8.894   0.191   7.721 -1.5692 -1.4797  0.0936
16785SOL     OW51487   7.524   5.587   0.840 -0.3164 -1.0531 -0.0846
16785SOL    HW151488   7.429   5.587   0.835 -0.4944  1.8974  1.5747
16785SOL    HW251489   7.544   5.569   0.932  0.7883 -2.0529 -0.4870
16786SOL     OW51490   6.603   4.830   3.310  0.3103 -0.0442  0.1990
16786SOL    HW151491   6.662   4.755   3.301  0.4322  0.0772 -0.0102
16786SOL    HW251492   6.522   4.802   3.266  0.3738 -0.0309  0.0756
16787SOL     OW51493   3.544   3.366   2.366  0.0638 -0.5967 -0.0045
16787SOL    HW151494   3.617   3.319   2.406  0.0811 -0.7766 -0.2457
16787SOL    HW251495   3.549   3.345   2.273  0.4017  0.3280 -0.2065
16788SOL     OW51496   2.325   0.689   2.739 -0.2686  0.7834  0.3303
16788SOL    HW151497   2.238   0.652   2.728  0.0826  0.5866 -2.3076
16788SOL    HW251498   2.382   0.633   2.687  1.5354  0.7659  2.1876
16789SOL     OW51499   2.502   5.663   8.150 -0.1993 -0.2582  0.3085
16789SOL    HW151500   2.561   5.630   8.218 -1.0988  0.0886  1.2865
16789SOL    HW251501   2.517   5.758   8.149 -1.1380 -0.0918  0.9735
16790SOL     OW51502   1.680   3.575   3.789 -0.3495  0.1888 -0.1849
16790SOL    HW151503   1.718   3.571   3.701  0.8204  2.3671  0.1554
16790SOL    HW251504   1.749   3.541   3.846 -0.8744 -0.6363 -0.0295
16791SOL     OW51505   4.373   5.716   6.043  0.2152 -0.3929  0.8693
16791SOL    HW151506   4.420   5.782   5.993 -1.0701  0.5824  0.8833
16791SOL    HW251507   4.441   5.656   6.073  1.1796 -0.2580 -0.8850
16792SOL     OW51508   7.130   0.585   5.955 -0.2857  0.1284 -0.9619
16792SOL    HW151509   7.202   0.585   5.893 -1.0941  0.9670 -1.9328
16792SOL    HW251510   7.151   0.655   6.017  0.0162 -0.0281 -0.8849
16793SOL     OW51511   2.090   8.770   7.167 -0.6791 -0.2855 -0.6315
16793SOL    HW151512   2.075   8.807   7.080 -2.4516 -0.4360 -0.4246
16793SOL    HW251513   2.015   8.800   7.219 -0.5522 -1.6269  0.3717
16794SOL     OW51514   0.935   0.909   8.320 -0.5775 -0.1308  0.3768
16794SOL    HW151515   0.905   0.819   8.305  1.1015 -0.8844  1.2811
16794SOL    HW251516   0.934   0.919   8.415  0.4238  0.3749  0.3424
16795SOL     OW51517   3.822   5.344   8.865  0.2771  0.1081  1.0895
16795SOL    HW151518   3.904   5.390   8.887  0.9608 -0.4911 -0.0808
16795SOL    HW251519   3.782   5.399   8.798 -0.6959  0.7890  2.1770
16796SOL     OW51520   5.132   5.507   1.936  0.6125 -0.6922  0.4367
16796SOL    HW151521   5.175   5.538   2.016  0.7428  0.5734 -0.0971
16796SOL    HW251522   5.203   5.471   1.883  0.5218 -1.5605  0.8906
16797SOL     OW51523   2.418   0.374   0.401  0.2833  0.2247 -0.2992
16797SOL    HW151524   2.393   0.400   0.489  1.3709  1.3095 -0.2771
16797SOL    HW251525   2.393   0.449   0.346  0.4952 -0.0338 -0.7551
16798SOL     OW51526   0.250   4.568   2.650 -0.1078 -0.3253  0.7298
16798SOL    HW151527   0.273   4.641   2.706 -0.8346  0.0667  0.5407
16798SOL    HW251528   0.240   4.494   2.709  2.4492 -0.7585  0.7328
16799SOL     OW51529   2.270   3.780   3.100 -0.5235  0.0493 -1.3443
16799SOL    HW151530   2.232   3.720   3.036  1.3780 -1.8625 -0.8013
16799SOL    HW251531   2.259   3.736   3.184  0.8058  0.4913 -0.9107
16800SOL     OW51532   1.706   3.558   7.018 -0.2646 -0.0956 -0.6593
16800SOL    HW151533   1.711   3.520   7.106 -1.5057 -0.0785 -0.5627
16800SOL    HW251534   1.612   3.563   7.000 -0.0250 -1.0315 -2.3877
16801SOL     OW51535   7.157   6.976   0.914  0.5132 -0.3497 -0.4955
16801SOL    HW151536   7.238   7.020   0.888  0.8555 -0.9397 -0.4323
16801SOL    HW251537   7.114   6.953   0.831  0.5987 -0.3868 -0.5293
16802SOL     OW51538   6.347   2.739   8.869  0.3941 -0.4457 -0.0676
16802SOL    HW151539   6.346   2.678   8.795 -2.9489 -0.6147 -0.0279
16802SOL    HW251540   6.257   2.770   8.876  0.2087 -1.2582  4.5540
16803SOL     OW51541   8.791   4.579   5.770 -0.3257  0.7452 -0.5397
16803SOL    HW151542   8.711   4.535   5.798 -0.7640  1.7558 -0.1417
16803SOL    HW251543   8.828   4.522   5.702 -1.0937  0.0061 -0.3494
16804SOL     OW51544   0.621   8.899   2.870  0.4258 -0.5503 -0.2299
16804SOL    HW151545   0.552   8.964   2.861  1.7044  0.8242 -0.5937
16804SOL    HW251546   0.695   8.935   2.821  2.1785 -0.7978  2.0607
16805SOL     OW51547   8.321   0.355   1.139 -0.3375 -0.0169  0.0678
16805SOL    HW151548   8.298   0.314   1.222 -0.9292  0.1228 -0.0223
16805SOL    HW251549   8.416   0.351   1.135 -0.3321 -0.3607  0.5796
16806SOL     OW51550   8.721   7.946   2.540  0.0156 -0.1219  0.4256
16806SOL    HW151551   8.678   7.875   2.492 -0.1263 -0.4779  1.0692
16806SOL    HW251552   8.653   7.979   2.599  0.9753 -1.6662  2.5334
16807SOL     OW51553   4.957   6.295   7.344  0.5459  0.0144 -0.4392
16807SOL    HW151554   4.916   6.379   7.362 -0.3913 -0.6091  0.4501
16807SOL    HW251555   5.049   6.307   7.367  0.2147  0.5008  0.6978
16808SOL     OW51556   8.047   5.351   1.233  0.0872  0.0286 -0.3099
16808SOL    HW151557   8.025   5.358   1.326  1.7345  0.5208  0.0695
16808SOL    HW251558   8.116   5.285   1.229 -0.5926 -0.6612 -1.3199
16809SOL     OW51559   7.080   4.283   7.626  0.2320  0.7308  0.2417
16809SOL    HW151560   7.150   4.233   7.668  1.2626  1.4470 -0.5984
16809SOL    HW251561   7.081   4.368   7.670 -1.2589  0.1966  1.3936
16810SOL     OW51562   3.344   4.136   5.083  0.2000 -0.0339  0.2142
16810SOL    HW151563   3.264   4.085   5.097  0.2721 -0.5180 -1.0051
16810SOL    HW251564   3.415   4.076   5.106  0.4817 -1.8467 -4.2061
16811SOL     OW51565   9.066   6.270   8.180 -0.2180  0.0511  0.2631
16811SOL    HW151566   9.128   6.284   8.109 -0.4365 -2.4711 -0.5218
16811SOL    HW251567   9.120   6.266   8.259  0.3783 -0.0258 -0.1443
16812SOL     OW51568   3.193   3.732   3.655 -0.1645 -0.3059 -0.2459
16812SOL    HW151569   3.118   3.744   3.597 -0.2008 -0.9987 -0.3498
16812SOL    HW251570   3.250   3.808   3.637  0.2801 -0.9946 -1.8835
16813SOL     OW51571   5.041   4.107   5.262 -0.0942  0.0381 -0.3421
16813SOL    HW151572   5.127   4.072   5.285  0.3086  0.2716 -1.4380
16813SOL    HW251573   4.999   4.124   5.346  1.9057  2.2958  0.3121
16814SOL     OW51574   9.030   2.627   4.581  0.1953 -0.2136 -0.2787
16814SOL    HW151575   9.125   2.617   4.572  0.3558  1.1407 -0.3255
16814SOL    HW251576   9.016   2.638   4.675  0.3924  1.9518 -0.4446
16815SOL     OW51577   8.051   0.456   3.550 -0.1854  0.3839 -0.1324
16815SOL    HW151578   8.004   0.516   3.492 -1.1766 -1.0477 -0.8814
16815SOL    HW251579   8.126   0.427   3.498 -0.7971 -0.5095 -0.5525
16816SOL     OW51580   4.958   3.652   0.843  0.6423 -0.5136  0.2417
16816SOL    HW151581   5.008   3.681   0.766 -0.8423 -1.4804 -1.1438
16816SOL    HW251582   4.924   3.733   0.881 -1.0781 -0.1221 -1.9139
16817SOL     OW51583   9.094   3.342   0.921 -0.2740  0.4354  0.3057
16817SOL    HW151584   9.027   3.277   0.900 -0.0894  0.3851 -0.1556
16817SOL    HW251585   9.093   3.349   1.016 -2.0779  1.6386  0.2400
16818SOL     OW51586   4.643   0.720   8.502 -0.4563  0.0961 -0.1359
16818SOL    HW151587   4.547   0.718   8.506 -0.6153  0.1171 -2.4113
16818SOL    HW251588   4.662   0.769   8.422  1.5274  1.6672  1.1914
16819SOL     OW51589   0.983   4.549   7.400  0.2720 -0.5821  0.3145
16819SOL    HW151590   0.932   4.548   7.480 -0.0691  0.2310  0.1114
16819SOL    HW251591   0.939   4.485   7.343 -0.8507  0.4980 -0.0585
16820SOL     OW51592   3.244   6.457   1.010 -0.3635 -0.8778  0.0157
16820SOL    HW151593   3.193   6.514   0.952  1.4085  0.4218 -0.3425
16820SOL    HW251594   3.206   6.470   1.096 -1.9337 -1.5240 -0.5421
16821SOL     OW51595   0.184   0.427   7.806  0.3694  0.0387  0.5378
16821SOL    HW151596   0.149   0.350   7.852 -2.0825 -0.8542 -2.5174
16821SOL    HW251597   0.239   0.390   7.737 -1.6089  0.8693 -1.5927
16822SOL     OW51598   8.675   8.580   6.693 -0.1786  0.0358 -0.5229
16822SOL    HW151599   8.737   8.644   6.660 -0.7586  0.0877 -1.5690
16822SOL    HW251600   8.673   8.594   6.787  0.8652  0.4920 -0.5581
16823SOL     OW51601   5.600   7.772   8.774  0.0535  0.3770 -0.3901
16823SOL    HW151602   5.534   7.837   8.751 -1.1477 -0.6701 -0.0551
16823SOL    HW251603   5.549   7.696   8.803  1.4054  0.3147  2.0920
16824SOL     OW51604   3.683   0.503   7.592  0.4656 -0.9741 -0.1929
16824SOL    HW151605   3.699   0.572   7.527  2.1563 -0.2451  0.9041
16824SOL    HW251606   3.741   0.432   7.565  2.4432 -0.0472  1.3200
16825SOL     OW51607   7.904   2.610   3.183 -0.1174 -0.1348 -0.2067
16825SOL    HW151608   7.922   2.556   3.106 -0.9140  0.0429 -0.5371
16825SOL    HW251609   7.918   2.553   3.258 -0.9393 -0.8110 -0.5513
16826SOL     OW51610   3.773   5.228   9.104  0.2943  0.2334 -0.6421
16826SOL    HW151611   3.832   5.295   9.138  0.4673  0.3925 -1.2317
16826SOL    HW251612   3.774   5.242   9.009  0.3977 -0.6631 -0.7827
16827SOL     OW51613   1.010   5.581   1.475 -0.2516  0.6271  0.1977
16827SOL    HW151614   0.959   5.502   1.493  1.0889 -0.1949  0.4942
16827SOL    HW251615   0.946   5.652   1.479 -1.0998 -0.1821  2.1723
16828SOL     OW51616   6.214   8.714   5.411  0.2423  0.5008 -0.0029
16828SOL    HW151617   6.289   8.707   5.470 -0.2340 -1.3985  0.4120
16828SOL    HW251618   6.238   8.786   5.352  1.9437  0.5896  0.7304
16829SOL     OW51619   1.542   8.004   8.861  0.0148  0.6426  0.3739
16829SOL    HW151620   1.597   8.034   8.789  0.4405  0.0929  0.4665
16829SOL    HW251621   1.542   8.077   8.923 -0.3261  1.1043 -0.1636
16830SOL     OW51622   8.667   3.966   8.266  0.0821 -0.1540  0.1628
16830SOL    HW151623   8.647   4.017   8.344 -1.2554 -0.3353 -0.0390
16830SOL    HW251624   8.761   3.980   8.251  0.1429  0.6648  1.2224
16831SOL     OW51625   3.346   6.470   1.758 -0.1515 -0.3685 -0.2429
16831SOL    HW151626   3.366   6.377   1.769  2.0345  0.2511  1.9987
16831SOL    HW251627   3.425   6.515   1.789 -1.6114  2.2526 -0.0783
16832SOL     OW51628   3.304   2.439   7.836 -0.6894  0.3353 -0.3848
16832SOL    HW151629   3.355   2.369   7.796 -2.5310  0.9083 -4.1356
16832SOL    HW251630   3.270   2.401   7.917  2.0348 -1.4749  0.0314
16833SOL     OW51631   8.540   5.307   7.317  0.0849 -0.1363  0.1693
16833SOL    HW151632   8.487   5.376   7.358  1.1082  1.0825 -0.4891
16833SOL    HW251633   8.495   5.225   7.340 -2.6134  0.8688 -1.1480
16834SOL     OW51634   2.681   3.558   8.086  0.1441  0.6332 -0.1297
16834SOL    HW151635   2.756   3.499   8.102  0.2069  0.0923 -2.2123
16834SOL    HW251636   2.640   3.523   8.007 -1.4965  1.7722  0.1848
16835SOL     OW51637   6.864   6.191   4.739 -0.3494 -0.9711  0.6643
16835SOL    HW151638   6.894   6.101   4.743  0.5138 -0.6563  2.8142
16835SOL    HW251639   6.875   6.224   4.828 -0.4427  1.3178 -0.0910
16836SOL     OW51640   0.524   8.118   7.650  0.5003 -0.0263 -0.1231
16836SOL    HW151641   0.563   8.149   7.568  2.5624 -1.2546  0.2976
16836SOL    HW251642   0.570   8.167   7.719 -0.1251 -0.0845  0.3475
16837SOL     OW51643   4.820   4.082   3.078  0.0783  0.4640  0.1700
16837SOL    HW151644   4.729   4.101   3.054 -0.5489 -1.8555  0.5418
16837SOL    HW251645   4.820   3.990   3.104  2.4259  0.5799  0.7987
16838SOL     OW51646   6.804   3.423   4.281  0.3899  0.3088 -0.4096
16838SOL    HW151647   6.845   3.506   4.305 -1.4940  1.3502 -0.5851
16838SOL    HW251648   6.796   3.428   4.185  0.5698 -0.2437 -0.4552
16839SOL     OW51649   5.866   2.397   2.363  0.4288 -0.1021 -0.0907
16839SOL    HW151650   5.780   2.413   2.402  0.1934 -0.9823 -0.2139
16839SOL    HW251651   5.905   2.483   2.354 -0.2770  0.2756  0.3500
16840SOL     OW51652   8.188   0.374   4.019  0.1090  0.2622  0.6496
16840SOL    HW151653   8.255   0.425   4.064  1.5158 -1.5267  0.6825
16840SOL    HW251654   8.229   0.345   3.938 -0.5009 -1.0737  0.7869
16841SOL     OW51655   5.594   7.583   5.587 -0.2487 -0.0101  0.5351
16841SOL    HW151656   5.498   7.578   5.577 -0.0381 -0.6947 -1.6566
16841SOL    HW251657   5.622   7.640   5.515  1.0837 -0.5823  0.5774
16842SOL     OW51658   6.137   0.225   3.758 -0.3968 -0.1196  0.4449
16842SOL    HW151659   6.148   0.315   3.729  1.1901 -0.7297 -1.0326
16842SOL    HW251660   6.057   0.195   3.714  0.8416 -0.3771 -1.7805
16843SOL     OW51661   2.771   5.333   2.249  0.0044 -0.3533  0.1941
16843SOL    HW151662   2.729   5.419   2.252  2.2197  0.8019 -0.3735
16843SOL    HW251663   2.864   5.351   2.259  0.6819 -2.5537 -1.3710
16844SOL     OW51664   6.273   4.678   4.815  0.3352 -0.4649 -0.3834
16844SOL    HW151665   6.300   4.754   4.867 -0.6257 -0.9683  0.8992
16844SOL    HW251666   6.280   4.708   4.724  1.0107  0.7986  0.0531
16845SOL     OW51667   5.640   6.060   7.993  0.0285 -0.1304 -0.0102
16845SOL    HW151668   5.615   5.997   8.061 -0.0307 -0.0116  0.0782
16845SOL    HW251669   5.561   6.113   7.980  0.3206  0.4186  0.4623
16846SOL     OW51670   3.532   8.144   0.172  0.0315 -0.0103  0.3022
16846SOL    HW151671   3.451   8.185   0.140 -0.4132 -0.0524  1.3466
16846SOL    HW251672   3.601   8.186   0.120 -0.5898  0.5750 -0.0743
16847SOL     OW51673   7.862   0.921   1.757  0.2770 -0.4661  0.2984
16847SOL    HW151674   7.843   0.936   1.665 -1.5970 -0.2226  0.6851
16847SOL    HW251675   7.857   0.826   1.768 -0.6667 -0.4150  0.3655
16848SOL     OW51676   1.684   2.965   1.461  0.3584  0.3046  0.4403
16848SOL    HW151677   1.684   2.873   1.434  1.2044  0.3858  0.1526
16848SOL    HW251678   1.644   2.964   1.547 -0.5852 -0.2078  0.0189
16849SOL     OW51679   7.971   6.898   4.322  0.2539  0.7160 -0.4355
16849SOL    HW151680   8.020   6.947   4.256  0.1316  0.8090 -0.4572
16849SOL    HW251681   7.884   6.885   4.283  0.6028 -0.4342 -0.8842
16850SOL     OW51682   3.963   8.365   4.336 -0.2339 -0.1335 -0.0450
16850SOL    HW151683   3.963   8.456   4.366  0.1315  0.3438 -1.4484
16850SOL    HW251684   4.054   8.347   4.314 -0.2517 -0.9520  0.4908
16851SOL     OW51685   6.258   0.175   2.254  0.3533  0.0941 -0.0906
16851SOL    HW151686   6.279   0.082   2.251  0.0156  0.0185 -0.0708
16851SOL    HW251687   6.176   0.183   2.206  0.7772  0.4898 -0.7656
16852SOL     OW51688   5.366   1.328   5.292 -0.0321  0.4126  0.0533
16852SOL    HW151689   5.372   1.233   5.308 -1.5777  0.1399 -0.8076
16852SOL    HW251690   5.455   1.359   5.306  0.3950 -1.0767  0.9207
16853SOL     OW51691   2.499   4.401   8.164 -0.6828 -0.1133 -0.0165
16853SOL    HW151692   2.535   4.395   8.076 -0.8833  1.5090 -0.2505
16853SOL    HW251693   2.418   4.451   8.153 -1.0293 -0.4345  0.9987
16854SOL     OW51694   3.931   6.011   1.392  0.0179  0.1588 -0.3634
16854SOL    HW151695   3.836   6.027   1.397 -0.3733 -1.5928 -1.0713
16854SOL    HW251696   3.948   6.002   1.298  0.1169 -3.1295 -0.1505
16855SOL     OW51697   9.051   2.863   2.924  0.2244 -0.0363  0.6511
16855SOL    HW151698   8.963   2.888   2.954  0.4819 -0.2086  1.5856
16855SOL    HW251699   9.053   2.888   2.832  0.4890  3.5729  1.4797
16856SOL     OW51700   2.935   3.960   6.371 -0.1435 -0.4491 -0.0465
16856SOL    HW151701   3.019   3.934   6.333 -0.9273 -2.0794 -0.7647
16856SOL    HW251702   2.900   4.023   6.308  0.3204 -0.1136  0.0210
16857SOL     OW51703   2.511   2.299   3.631  0.1633 -0.3802  0.1270
16857SOL    HW151704   2.548   2.386   3.612 -1.1048  0.2432  0.3728
16857SOL    HW251705   2.468   2.310   3.716  0.2838 -1.3518  0.3228
16858SOL     OW51706   7.630   1.208   3.207 -0.3000 -0.0223 -0.5196
16858SOL    HW151707   7.580   1.284   3.176  0.2673  0.3083 -0.6384
16858SOL    HW251708   7.667   1.170   3.127  1.0994  0.7848 -0.2931
16859SOL     OW51709   7.894   6.958   7.080  0.4030  0.2119  0.2024
16859SOL    HW151710   7.866   6.884   7.133  1.4915 -1.2984 -1.2418
16859SOL    HW251711   7.988   6.966   7.098  1.1087 -1.1829 -2.3529
16860SOL     OW51712   8.173   5.773   7.341 -0.6079 -0.0104  0.1188
16860SOL    HW151713   8.111   5.798   7.273 -2.0095 -3.3782 -0.0203
16860SOL    HW251714   8.234   5.713   7.297  0.2454  0.0272  1.1962
16861SOL     OW51715   1.211   8.085   5.150  0.0195 -0.7965  0.1555
16861SOL    HW151716   1.146   8.054   5.212  1.1929 -0.3973  1.6353
16861SOL    HW251717   1.160   8.116   5.075 -1.6471  0.9833  1.8949
16862SOL     OW51718   5.973   4.167   6.690 -0.0402  0.2058 -0.3841
16862SOL    HW151719   6.022   4.168   6.772 -1.6243 -1.8833  0.6839
16862SOL    HW251720   5.967   4.260   6.665  1.9519  0.7479  0.9051
16863SOL     OW51721   4.455   3.212   7.892 -0.0212  0.2242  0.2844
16863SOL    HW151722   4.381   3.195   7.950  0.5801 -0.9349  0.7457
16863SOL    HW251723   4.414   3.237   7.809 -0.9297 -0.0933  0.6169
16864SOL     OW51724   2.540   4.940   5.699  0.0216 -0.4739 -0.5455
16864SOL    HW151725   2.493   4.891   5.631  0.1112 -1.2516 -0.0623
16864SOL    HW251726   2.488   4.927   5.778  0.0791  0.1708 -0.4021
16865SOL     OW51727   6.230   5.609   4.823 -0.1144 -0.2904 -0.1586
16865SOL    HW151728   6.220   5.678   4.756 -0.6162  1.3379  1.5105
16865SOL    HW251729   6.150   5.557   4.815 -0.1186 -0.1960 -0.8788
16866SOL     OW51730   7.212   7.124   1.957  0.1047 -0.2162 -1.0789
16866SOL    HW151731   7.177   7.114   2.046  3.3033 -0.5161  0.2762
16866SOL    HW251732   7.149   7.078   1.901 -1.5324 -0.8273  1.1102
16867SOL     OW51733   8.714   8.168   3.396 -0.5061 -0.0312 -0.1025
16867SOL    HW151734   8.753   8.254   3.379  1.0435 -1.0471 -2.1076
16867SOL    HW251735   8.692   8.134   3.310 -1.7259 -1.3902  0.7062
16868SOL     OW51736   6.545   2.294   7.027  0.3143  0.8827  0.2219
16868SOL    HW151737   6.467   2.286   6.972  1.0018  1.0003 -0.7786
16868SOL    HW251738   6.569   2.204   7.047  0.0138  0.8422  0.4132
16869SOL     OW51739   6.176   5.697   5.331 -0.7078  0.2582  0.0170
16869SOL    HW151740   6.159   5.617   5.281 -2.0427  0.1165  0.6514
16869SOL    HW251741   6.257   5.732   5.293  0.9731 -2.3497  0.9223
16870SOL     OW51742   4.641   5.757   8.652 -0.3583  0.0895  0.0525
16870SOL    HW151743   4.678   5.749   8.740  0.4469  3.0910  0.1005
16870SOL    HW251744   4.682   5.686   8.603 -0.3872 -1.3075  1.9325
16871SOL     OW51745   1.809   8.230   7.537 -0.0777 -0.1092  0.1357
16871SOL    HW151746   1.871   8.164   7.568  0.2087  0.7552  1.5542
16871SOL    HW251747   1.740   8.232   7.604 -0.5797  0.3381 -0.3811
16872SOL     OW51748   8.138   2.431   2.319 -0.3885  0.0177  0.2486
16872SOL    HW151749   8.149   2.340   2.347  2.2854 -0.4696 -1.8890
16872SOL    HW251750   8.115   2.425   2.226 -0.1316  1.5146  0.0638
16873SOL     OW51751   4.020   3.176   7.359 -0.3901  0.1671 -0.0570
16873SOL    HW151752   4.083   3.115   7.319  0.0261 -0.1846  1.0939
16873SOL    HW251753   3.944   3.121   7.380 -1.0613  0.5648 -1.3238
16874SOL     OW51754   5.987   7.863   8.792  0.5631 -0.3398  0.0606
16874SOL    HW151755   5.893   7.885   8.796  0.3545 -1.1480 -0.1999
16874SOL    HW251756   6.026   7.937   8.746 -0.4462 -1.3602 -2.6766
16875SOL     OW51757   0.362   0.349   2.916 -0.0793  0.2555  0.3721
16875SOL    HW151758   0.288   0.324   2.861  1.3280 -0.9055 -1.0660
16875SOL    HW251759   0.436   0.300   2.882  1.8025  2.7387  0.5754
16876SOL     OW51760   4.734   4.665   3.548 -0.1540  0.3860  0.3348
16876SOL    HW151761   4.669   4.601   3.520  1.3269 -1.1029  0.1299
16876SOL    HW251762   4.692   4.750   3.534 -1.5557 -0.4847 -1.0202
16877SOL     OW51763   7.445   9.018   7.248 -0.4352  0.5390 -0.8819
16877SOL    HW151764   7.476   9.057   7.330 -1.2847  2.6309 -1.4754
16877SOL    HW251765   7.524   8.985   7.205 -0.0023 -0.7924  0.8331
16878SOL     OW51766   8.822   6.231   6.694 -0.1935 -0.6915  0.2733
16878SOL    HW151767   8.911   6.237   6.728 -0.8548  3.7934  1.8870
16878SOL    HW251768   8.767   6.262   6.765 -2.7867 -0.7507 -1.5665
16879SOL     OW51769   3.104   7.834   7.582 -0.3281 -0.3951 -0.2865
16879SOL    HW151770   3.025   7.889   7.587 -0.0235 -0.0650  1.3781
16879SOL    HW251771   3.086   7.773   7.510 -0.3957  2.2879 -2.7697
16880SOL     OW51772   3.189   8.419   1.650 -0.7690 -0.0546 -0.1747
16880SOL    HW151773   3.113   8.475   1.663 -0.9760 -0.1882 -0.7908
16880SOL    HW251774   3.261   8.467   1.691 -0.6557  1.3255 -1.8968
16881SOL     OW51775   5.209   0.233   6.167  0.1349  0.2970  0.3221
16881SOL    HW151776   5.236   0.146   6.198  0.1675  0.6961  1.4916
16881SOL    HW251777   5.212   0.288   6.246 -2.9916  0.6354  0.3369
16882SOL     OW51778   5.251   4.644   3.471 -0.1043 -0.1811 -0.5577
16882SOL    HW151779   5.227   4.575   3.410 -0.9372  2.0708 -2.9968
16882SOL    HW251780   5.172   4.659   3.524 -0.7612  0.4544 -1.6757
16883SOL     OW51781   5.545   3.924   0.050  0.3048 -0.4369  0.2669
16883SOL    HW151782   5.469   3.962   0.005 -0.4309 -0.9955  1.0068
16883SOL    HW251783   5.526   3.937   0.143  1.4417  0.0043  0.4480
16884SOL     OW51784   4.115   1.735   8.444 -0.3789  0.0428 -0.1998
16884SOL    HW151785   4.101   1.660   8.387  0.1828  0.2219 -0.5816
16884SOL    HW251786   4.029   1.754   8.481 -0.6659 -0.3353 -0.6655
16885SOL     OW51787   7.108   6.089   0.388 -0.2020 -0.2412  1.0393
16885SOL    HW151788   7.183   6.098   0.329 -0.6601 -0.1685  0.4581
16885SOL    HW251789   7.137   6.027   0.455  0.1225 -0.7914  0.3992
16886SOL     OW51790   7.844   5.193   1.125 -0.1645 -0.1404 -0.6629
16886SOL    HW151791   7.913   5.254   1.149 -0.9723  0.1200  1.1782
16886SOL    HW251792   7.779   5.247   1.080 -1.0731  0.5121  1.3311
16887SOL     OW51793   5.253   8.959   5.872 -0.0609  0.1348  0.0324
16887SOL    HW151794   5.250   8.894   5.942 -1.2067  0.2495  0.1108
16887SOL    HW251795   5.345   8.981   5.864  0.1140  0.0302  1.4334
16888SOL     OW51796   0.547   2.115   8.043 -0.0303 -0.3260 -0.3999
16888SOL    HW151797   0.480   2.087   7.981 -0.3786  0.7148 -0.5129
16888SOL    HW251798   0.630   2.095   7.999 -0.2251 -2.4036  0.0954
16889SOL     OW51799   5.515   8.187   8.690 -0.1548  0.1350 -0.8449
16889SOL    HW151800   5.432   8.148   8.718 -0.0011 -0.5355 -1.3180
16889SOL    HW251801   5.541   8.242   8.764 -0.9338  0.2156 -0.6228
16890SOL     OW51802   7.460   6.050   2.436 -0.5766 -0.6919  0.1488
16890SOL    HW151803   7.466   5.955   2.448  0.0126 -0.6528  0.1810
16890SOL    HW251804   7.451   6.085   2.524 -0.1524 -0.6779  0.1902
16891SOL     OW51805   1.120   7.363   1.609  0.4562  0.3418  0.4603
16891SOL    HW151806   1.101   7.325   1.695  0.9643 -0.9200  0.0336
16891SOL    HW251807   1.039   7.349   1.559 -0.7915  3.2698  1.3935
16892SOL     OW51808   0.733   9.030   6.443 -0.2903 -0.3178  0.0616
16892SOL    HW151809   0.818   8.987   6.451  0.1261  0.4017 -0.4184
16892SOL    HW251810   0.702   9.008   6.356  0.2375  0.8843 -0.4519
16893SOL     OW51811   0.401   6.065   4.828  0.2277 -0.2332  0.1791
16893SOL    HW151812   0.444   6.014   4.759 -1.8192 -0.4963 -1.0104
16893SOL    HW251813   0.397   6.154   4.793  0.8640  0.0545  0.8151
16894SOL     OW51814   5.425   5.675   2.154  0.5790 -0.1130  0.3404
16894SOL    HW151815   5.498   5.683   2.093 -0.6015 -1.6345 -1.3772
16894SOL    HW251816   5.373   5.754   2.141  0.4220 -0.3514 -0.5555
16895SOL     OW51817   1.846   3.115   6.112  0.2991  0.7103 -0.2814
16895SOL    HW151818   1.844   3.109   6.207 -0.0761 -0.2521 -0.3438
16895SOL    HW251819   1.758   3.141   6.087  0.2351  0.3716 -0.4057
16896SOL     OW51820   5.995   1.969   9.010  0.0349 -0.1247  0.5608
16896SOL    HW151821   5.962   1.991   9.097 -1.6053  0.1333 -0.0998
16896SOL    HW251822   6.056   2.040   8.989  1.8927 -1.1436  2.2164
16897SOL     OW51823   4.876   2.575   5.443  0.1221 -0.2643  0.0003
16897SOL    HW151824   4.920   2.498   5.406  0.5562  1.1877 -2.7225
16897SOL    HW251825   4.783   2.556   5.432 -0.0079 -2.0653  3.0998
16898SOL     OW51826   0.301   7.671   4.834  0.8845  0.0528 -0.2434
16898SOL    HW151827   0.254   7.614   4.773  1.5998 -1.5900  0.6732
16898SOL    HW251828   0.382   7.624   4.852  1.8343  1.7283  0.0119
16899SOL     OW51829   2.339   4.760   7.369  0.1155  0.2728 -0.2933
16899SOL    HW151830   2.327   4.812   7.289  0.0053  1.3552  0.4161
16899SOL    HW251831   2.431   4.773   7.393 -0.0447  0.5573  0.1723
16900SOL     OW51832   7.247   4.854   3.887  0.3439  0.0088  0.8887
16900SOL    HW151833   7.189   4.780   3.869  1.0496 -0.7053  1.4946
16900SOL    HW251834   7.334   4.816   3.895  0.9111  1.0554  0.0766
16901SOL     OW51835   7.399   7.101   3.853 -0.0774 -0.6138  0.2560
16901SOL    HW151836   7.333   7.106   3.922  0.0061 -0.7420  0.3458
16901SOL    HW251837   7.362   7.152   3.781 -0.2128 -0.5699  0.3554
16902SOL     OW51838   6.383   8.501   6.826  0.0190 -0.1620 -0.1956
16902SOL    HW151839   6.288   8.512   6.821  0.2736  2.2094 -0.7227
16902SOL    HW251840   6.395   8.431   6.891 -1.9958  1.5385  2.2208
16903SOL     OW51841   5.662   8.293   7.995 -1.3851  0.0401  0.0863
16903SOL    HW151842   5.648   8.222   7.933 -1.1413  0.1039 -0.0419
16903SOL    HW251843   5.745   8.333   7.968 -1.3164  0.1161  0.4064
16904SOL     OW51844   6.957   8.218   2.345  0.0074 -0.1572 -0.5326
16904SOL    HW151845   6.871   8.258   2.357  0.0393 -0.3541  0.5179
16904SOL    HW251846   6.951   8.134   2.391 -0.0490 -1.4061 -2.6933
16905SOL     OW51847   8.254   0.305   4.294  0.2445  0.3777 -0.0085
16905SOL    HW151848   8.242   0.299   4.199  0.1240 -1.6526  0.1086
16905SOL    HW251849   8.166   0.296   4.330  0.5547 -1.7183  0.3576
16906SOL     OW51850   8.653   1.425   0.162 -0.1052 -0.0348 -0.2574
16906SOL    HW151851   8.650   1.387   0.250 -0.0994 -1.0288 -0.6767
16906SOL    HW251852   8.714   1.498   0.170 -0.0876 -0.1243  0.5593
16907SOL     OW51853   8.452   4.331   8.772 -0.1422  0.2903 -0.1780
16907SOL    HW151854   8.444   4.318   8.678  1.3673 -1.2265 -0.1594
16907SOL    HW251855   8.422   4.248   8.810  0.0845  0.5668  0.6224
16908SOL     OW51856   6.266   6.063   1.045  0.1479  0.0490  0.6384
16908SOL    HW151857   6.289   5.991   0.986  0.6167  0.1858  0.6578
16908SOL    HW251858   6.220   6.126   0.989  0.3220  0.0393  0.4845
16909SOL     OW51859   7.813   1.116   2.303  0.0077 -0.2633  0.6761
16909SOL    HW151860   7.898   1.072   2.295  0.2060 -0.4581  3.0311
16909SOL    HW251861   7.835   1.206   2.328 -0.4691 -0.2629  1.0947
16910SOL     OW51862   3.765   2.682   7.819 -0.0679  0.3468 -0.1126
16910SOL    HW151863   3.727   2.756   7.772 -0.4806 -0.2260 -0.6887
16910SOL    HW251864   3.696   2.616   7.822  0.6844 -0.4928 -0.6844
16911SOL     OW51865   4.969   1.445   0.056  0.1099 -0.0565  0.1325
16911SOL    HW151866   4.999   1.536   0.056 -0.6522  0.2038  0.1288
16911SOL    HW251867   4.937   1.430  -0.033  1.9745 -0.9401 -0.4392
16912SOL     OW51868   5.985   0.691   6.363 -0.2592  0.5084  0.0351
16912SOL    HW151869   5.937   0.617   6.401 -1.1923  1.6615  1.1799
16912SOL    HW251870   6.003   0.664   6.273  1.3493 -2.0064  0.9929
16913SOL     OW51871   1.679   3.312   5.960  0.6294 -0.6355  0.5461
16913SOL    HW151872   1.684   3.376   6.031 -0.7309  1.3193 -1.0002
16913SOL    HW251873   1.587   3.285   5.958  0.4007  0.1283 -1.0643
16914SOL     OW51874   5.974   8.826   3.013 -0.3267  0.6421 -0.1477
16914SOL    HW151875   5.979   8.774   2.933  1.1574  0.7574 -0.1688
16914SOL    HW251876   5.910   8.894   2.994 -3.0373 -1.6109  0.1916
16915SOL     OW51877   7.129   4.320   2.810  0.9251 -0.3632  0.0115
16915SOL    HW151878   7.156   4.380   2.740 -0.8830  2.1024  1.2585
16915SOL    HW251879   7.075   4.255   2.765  1.9345 -0.3791 -1.2384
16916SOL     OW51880   0.214   7.094   0.984  0.4334  0.5522  0.1739
16916SOL    HW151881   0.304   7.082   0.956  0.5566 -0.0068  0.7852
16916SOL    HW251882   0.204   7.189   0.994  0.8242  0.6450 -0.2928
16917SOL     OW51883   0.937   1.213   8.794  0.5090  0.6737  0.9523
16917SOL    HW151884   0.872   1.184   8.857  2.7137 -2.6246  2.0242
16917SOL    HW251885   0.922   1.157   8.717 -0.1121  2.3947 -0.2191
16918SOL     OW51886   7.219   8.661   7.880  0.3566  0.1545  0.2564
16918SOL    HW151887   7.136   8.704   7.857 -0.5782 -0.9661  1.3755
16918SOL    HW251888   7.276   8.678   7.805 -1.2471 -0.0251 -1.0741
16919SOL     OW51889   1.179   2.034   2.821 -0.5904 -0.6399  0.0072
16919SOL    HW151890   1.256   1.985   2.794 -1.1044 -1.7897  0.5209
16919SOL    HW251891   1.121   2.031   2.745 -0.5941 -0.7921  0.0151
16920SOL     OW51892   2.869   8.974   3.961  0.6245 -0.7950 -0.1177
16920SOL    HW151893   2.951   8.934   3.988  1.0031  0.8607  1.3033
16920SOL    HW251894   2.894   9.054   3.916 -0.1067 -2.2072 -3.3301
16921SOL     OW51895   4.794   0.721   7.924 -0.0723  0.6381 -0.0452
16921SOL    HW151896   4.845   0.671   7.988 -0.6930 -1.4276 -1.0733
16921SOL    HW251897   4.704   0.714   7.955 -0.2210  0.7190 -0.4653
16922SOL     OW51898   8.891   0.671   6.284 -0.2902 -0.1604 -0.0556
16922SOL    HW151899   8.954   0.733   6.318 -0.1370 -0.2678 -0.1412
16922SOL    HW251900   8.877   0.698   6.193 -1.2877  0.5993  0.2988
16923SOL     OW51901   8.584   0.238   5.296  0.1885 -0.4133  0.0319
16923SOL    HW151902   8.540   0.192   5.224  1.7645  0.7400 -1.7668
16923SOL    HW251903   8.635   0.307   5.253 -0.4564  1.7229  2.4581
16924SOL     OW51904   6.235   7.699   5.651 -0.1240  0.0962 -0.1426
16924SOL    HW151905   6.253   7.787   5.684 -1.1648  0.3449 -0.2221
16924SOL    HW251906   6.166   7.665   5.707 -1.2074  0.1388 -1.4031
16925SOL     OW51907   6.248   1.380   7.897  0.0375 -0.2195 -0.5191
16925SOL    HW151908   6.340   1.398   7.880  0.1904 -1.0926 -0.6492
16925SOL    HW251909   6.213   1.349   7.813 -0.4669  0.4385 -0.5637
16926SOL     OW51910   8.064   2.034   2.999 -0.2230  0.4500  0.2934
16926SOL    HW151911   8.147   2.035   2.951 -0.8496  1.4267 -0.8221
16926SOL    HW251912   8.010   2.098   2.954 -1.7913 -0.5638  0.6670
16927SOL     OW51913   3.758   2.084   5.893 -0.0286 -0.3162 -0.4409
16927SOL    HW151914   3.729   2.155   5.835 -0.5142  1.3537  1.7274
16927SOL    HW251915   3.758   2.122   5.980  0.6301 -2.7491  0.7196
16928SOL     OW51916   2.060   5.674   4.461  0.8289  0.3674 -0.3590
16928SOL    HW151917   2.002   5.672   4.385 -0.8269  0.4217  0.8523
16928SOL    HW251918   2.055   5.586   4.498  0.6127  0.6934  0.4077
16929SOL     OW51919   4.845   1.368   7.796  0.1388  0.1479  0.9475
16929SOL    HW151920   4.928   1.343   7.838  0.5012  0.6963  0.5792
16929SOL    HW251921   4.858   1.460   7.773  0.3471 -0.4030 -1.3018
16930SOL     OW51922   6.994   4.180   2.379 -0.1644 -0.5396  0.2102
16930SOL    HW151923   7.025   4.226   2.301  1.2908 -0.4231  0.8100
16930SOL    HW251924   7.071   4.131   2.409  0.2237  1.5836  3.1203
16931SOL     OW51925   8.573   2.084   0.928 -0.4083  0.7179  0.5557
16931SOL    HW151926   8.535   2.130   1.002  0.7507  0.2963  1.4456
16931SOL    HW251927   8.500   2.068   0.869 -1.1037  2.3558  0.9159
16932SOL     OW51928   4.349   2.273   0.023 -0.4873  0.2378  0.1563
16932SOL    HW151929   4.356   2.357  -0.022  2.3889  0.1479  0.3060
16932SOL    HW251930   4.281   2.226  -0.025  1.4303  0.6743 -3.2981
16933SOL     OW51931   8.029   2.553   7.531 -0.0019 -0.2101 -0.1753
16933SOL    HW151932   8.055   2.492   7.462 -0.3138 -0.7280  0.1595
16933SOL    HW251933   8.016   2.498   7.609  0.5249  0.3845  0.3523
16934SOL     OW51934   7.004   1.399   5.099 -0.6561  0.0821 -0.1101
16934SOL    HW151935   7.004   1.459   5.174 -0.8304 -0.7926  0.5987
16934SOL    HW251936   7.017   1.312   5.137 -0.8197 -0.3873 -1.0879
16935SOL     OW51937   5.378   0.365   2.765  0.2315  0.1734 -0.2348
16935SOL    HW151938   5.384   0.270   2.775  0.7230  0.1332 -0.7816
16935SOL    HW251939   5.468   0.396   2.776 -0.0592  0.6768  0.8091
16936SOL     OW51940   4.067   7.066   5.552 -0.3130  0.0528 -0.0004
16936SOL    HW151941   4.095   7.084   5.463  3.0444 -0.6439  0.7720
16936SOL    HW251942   4.046   7.152   5.589  0.5007  0.6106 -0.8064
16937SOL     OW51943   1.873   3.781   5.710  0.3516  0.4386  0.1047
16937SOL    HW151944   1.955   3.732   5.718 -0.4021 -1.1402 -1.2340
16937SOL    HW251945   1.888   3.840   5.637  0.2755  0.1205 -0.1672
16938SOL     OW51946   5.888   6.941   5.809  0.0925  0.0812  0.3061
16938SOL    HW151947   5.952   6.883   5.849  1.5190  1.1760 -0.2860
16938SOL    HW251948   5.844   6.983   5.883  0.2480 -0.4815  0.7225
16939SOL     OW51949   8.297   4.146   3.249  0.0156 -0.2696 -0.1940
16939SOL    HW151950   8.329   4.065   3.288  1.5042  0.2315 -0.3112
16939SOL    HW251951   8.371   4.206   3.253 -0.8728  0.9135 -0.6372
16940SOL     OW51952   8.557   0.010   0.076 -0.2504 -0.1453  0.0539
16940SOL    HW151953   8.588   0.095   0.107  0.8649 -0.9293  1.2076
16940SOL    HW251954   8.637  -0.036   0.049 -0.9373 -0.4795 -1.5201
16941SOL     OW51955   0.792   2.658   4.238  0.1514  0.3990  0.3517
16941SOL    HW151956   0.708   2.631   4.275  0.1589  1.6512  1.3866
16941SOL    HW251957   0.769   2.704   4.158 -0.0557 -0.2548  0.0310
16942SOL     OW51958   5.630   5.394   5.478  0.7025 -0.5221 -0.6536
16942SOL    HW151959   5.642   5.299   5.472 -0.1547 -0.7275  0.5250
16942SOL    HW251960   5.585   5.407   5.562  0.7040  0.9153 -0.8591
16943SOL     OW51961   3.703   8.850   1.325 -0.2481 -0.6485 -0.0919
16943SOL    HW151962   3.771   8.905   1.286  1.1419 -1.7045  0.7356
16943SOL    HW251963   3.662   8.906   1.391  1.1553 -0.5661  0.7565
16944SOL     OW51964   8.251   0.672   5.684 -0.1285 -0.2028  0.6213
16944SOL    HW151965   8.321   0.667   5.749  0.7924 -2.8311 -0.4212
16944SOL    HW251966   8.293   0.709   5.606 -0.1946 -0.6286  0.3777
16945SOL     OW51967   5.115   4.556   3.997 -0.4125 -0.5466  0.2336
16945SOL    HW151968   5.050   4.557   4.066 -0.7817 -1.2048 -0.0946
16945SOL    HW251969   5.088   4.626   3.937 -0.9004 -0.9010  0.0309
16946SOL     OW51970   6.759   2.736   5.835  0.1491 -0.3749 -0.1712
16946SOL    HW151971   6.846   2.757   5.802  0.2646  1.5817  1.2184
16946SOL    HW251972   6.774   2.699   5.922 -0.4083  1.4789  0.7715
16947SOL     OW51973   2.889   3.707   8.954 -0.1460 -0.1185  0.5223
16947SOL    HW151974   2.917   3.753   9.033 -1.2141 -1.2635  1.6043
16947SOL    HW251975   2.966   3.660   8.924  0.6810  1.4836 -0.0202
16948SOL     OW51976   7.253   9.004   4.887  0.9719 -0.0893  0.0732
16948SOL    HW151977   7.279   9.040   4.972 -0.1491  1.2459 -0.1185
16948SOL    HW251978   7.162   9.029   4.877  0.4687 -2.0281 -0.6309
16949SOL     OW51979   5.802   5.982   6.287 -0.2682  0.2582  0.2403
16949SOL    HW151980   5.889   6.012   6.263  0.2931 -0.1289  1.7322
16949SOL    HW251981   5.746   6.059   6.276 -0.3566 -0.1300 -3.4006
16950SOL     OW51982   6.950   1.384   3.845  0.0931  0.0648  0.4400
16950SOL    HW151983   6.917   1.339   3.767  0.0682  0.2720  0.3305
16950SOL    HW251984   6.921   1.329   3.918  0.3904 -0.2986  0.2873
16951SOL     OW51985   8.234   0.435   5.084  0.2774  0.3596 -0.4661
16951SOL    HW151986   8.255   0.351   5.041 -1.1017 -0.4593  0.4072
16951SOL    HW251987   8.287   0.435   5.163 -0.9881 -0.5179  0.4167
16952SOL     OW51988   7.391   5.586   5.128 -0.2686 -0.0138  0.1541
16952SOL    HW151989   7.375   5.648   5.199 -0.0247  0.2871 -0.0522
16952SOL    HW251990   7.324   5.519   5.139 -1.4819  1.0358 -0.4767
16953SOL     OW51991   8.872   7.546   0.647  0.2255  0.4250 -0.0345
16953SOL    HW151992   8.800   7.550   0.584  0.4283  3.4318 -0.1978
16953SOL    HW251993   8.948   7.581   0.600  0.9097  0.7134  1.2346
16954SOL     OW51994   5.964   1.248   8.282 -0.8392 -0.6729  0.1715
16954SOL    HW151995   6.051   1.209   8.276 -0.0718  1.1285 -1.5843
16954SOL    HW251996   5.912   1.201   8.217 -0.5170 -0.2615 -0.3967
16955SOL     OW51997   4.864   1.388   0.827 -0.1565 -0.0095  0.5909
16955SOL    HW151998   4.928   1.447   0.867  0.8656 -1.6103  1.4099
16955SOL    HW251999   4.903   1.364   0.743 -1.0960  1.3123 -0.2576
16956SOL     OW52000   4.275   2.310   1.740  0.6086  0.1141 -0.0607
16956SOL    HW152001   4.211   2.250   1.701  0.0718  0.2751  0.5636
16956SOL    HW252002   4.278   2.385   1.680  0.4830 -0.0502 -0.2755
16957SOL     OW52003   0.969   1.718   4.674  0.2072  0.2892 -0.3420
16957SOL    HW152004   0.982   1.808   4.705 -0.9980 -0.0611  1.2725
16957SOL    HW252005   0.937   1.729   4.584 -2.4865  1.6273  0.6814
16958SOL     OW52006   0.086   0.908   3.694  1.0657 -0.0724 -0.5379
16958SOL    HW152007   0.090   0.956   3.777 -1.2140  0.6170 -0.7553
16958SOL    HW252008   0.024   0.958   3.641  1.6647 -1.0999 -2.2709
16959SOL     OW52009   2.367   0.992   5.040  0.2159  0.7767  0.0129
16959SOL    HW152010   2.367   1.087   5.049  0.0062  0.8464 -0.6229
16959SOL    HW252011   2.275   0.969   5.029  0.1979  0.4200  0.8889
16960SOL     OW52012   8.404   8.697   8.895  0.1594 -0.0061  0.1289
16960SOL    HW152013   8.475   8.721   8.837 -0.4547 -2.2117 -1.6666
16960SOL    HW252014   8.358   8.780   8.913 -0.1313  0.6743 -3.2338
16961SOL     OW52015   2.563   4.549   7.585  0.2018  0.2230  0.0238
16961SOL    HW152016   2.603   4.469   7.616  0.3736  0.8310  1.4280
16961SOL    HW252017   2.478   4.522   7.551  0.8381 -0.7373 -0.8851
16962SOL     OW52018   1.386   1.890   4.663 -0.7179 -0.2443 -0.1403
16962SOL    HW152019   1.479   1.904   4.647 -0.8479  1.6245  0.4942
16962SOL    HW252020   1.383   1.825   4.732  0.2994  2.0194  2.2046
16963SOL     OW52021   7.439   2.764   7.542 -0.3756  0.0126 -0.1994
16963SOL    HW152022   7.435   2.858   7.522 -1.4252 -0.4540 -2.5333
16963SOL    HW252023   7.362   2.748   7.597  0.4379  0.6732  1.1867
16964SOL     OW52024   5.880   1.951   1.542  0.6307 -0.1678 -0.2341
16964SOL    HW152025   5.823   1.919   1.612  1.0219 -0.7347 -0.1634
16964SOL    HW252026   5.934   2.018   1.585  0.9829 -0.6316  0.0492
16965SOL     OW52027   4.942   2.195   0.309 -0.3736  0.6988  0.6868
16965SOL    HW152028   5.022   2.244   0.329 -0.5437  1.3491 -0.1549
16965SOL    HW252029   4.879   2.263   0.282 -0.9527  0.1118  0.5453
16966SOL     OW52030   1.940   1.900   2.197  0.1975 -0.5011 -0.2251
16966SOL    HW152031   1.945   1.852   2.114 -0.7889 -2.3624  0.7259
16966SOL    HW252032   2.014   1.866   2.249 -0.1308 -0.5379  0.2271
16967SOL     OW52033   0.554   3.951   1.397 -0.4307 -0.2146 -0.7039
16967SOL    HW152034   0.468   3.994   1.391 -0.3908  0.4279  1.8761
16967SOL    HW252035   0.595   3.967   1.313 -2.9831 -0.9237 -2.2137
16968SOL     OW52036   8.099   1.428   1.596  0.3612 -0.1064  0.2241
16968SOL    HW152037   8.038   1.497   1.623 -0.1582 -0.5577  0.2373
16968SOL    HW252038   8.184   1.471   1.594  0.3673  0.0696  2.1822
16969SOL     OW52039   7.449   9.055   8.670  0.2661  0.2481 -0.2222
16969SOL    HW152040   7.386   8.992   8.634 -1.0914  0.8420  1.0405
16969SOL    HW252041   7.456   9.123   8.604 -1.3508  0.7739  0.1263
16970SOL     OW52042   8.589   2.923   0.982  0.1772  0.3338  0.1439
16970SOL    HW152043   8.584   2.966   1.067 -0.7462  0.9844 -0.2177
16970SOL    HW252044   8.519   2.858   0.984  1.5402 -1.1731  0.6694
16971SOL     OW52045   1.971   6.149   8.321  0.1008  0.3803 -0.4037
16971SOL    HW152046   2.064   6.155   8.344 -0.0510 -0.2150  0.3992
16971SOL    HW252047   1.969   6.095   8.242  0.2526 -2.2016  1.2271
16972SOL     OW52048   5.731   4.713   1.273  0.5657 -0.3709  0.1941
16972SOL    HW152049   5.769   4.683   1.190  0.7070 -0.3121  0.2370
16972SOL    HW252050   5.638   4.726   1.254  0.4599 -1.0519  0.2371
16973SOL     OW52051   2.127   7.144   3.194  0.4452  0.2195 -0.2355
16973SOL    HW152052   2.135   7.197   3.115 -1.0066 -0.0951 -0.6184
16973SOL    HW252053   2.033   7.128   3.203  0.4113  1.3955  2.3031
16974SOL     OW52054   4.922   2.892   6.870 -0.1389  0.7298  0.2529
16974SOL    HW152055   4.987   2.956   6.842  0.0053  0.1596 -0.7832
16974SOL    HW252056   4.970   2.831   6.926  0.3712 -0.0096 -0.9616
16975SOL     OW52057   5.599   2.719   7.681 -0.2326  0.2836  0.3654
16975SOL    HW152058   5.511   2.756   7.683 -0.8481 -1.0295 -0.7607
16975SOL    HW252059   5.597   2.657   7.609  0.8810 -1.5732  1.8504
16976SOL     OW52060   6.089   2.723   0.953  0.2203 -0.0730  0.6431
16976SOL    HW152061   6.069   2.658   1.020  0.5016 -0.8868 -0.0411
16976SOL    HW252062   6.056   2.684   0.872  1.4554  0.0998  0.0352
16977SOL     OW52063   2.200   8.036   2.747  0.2832 -0.5066  0.1733
16977SOL    HW152064   2.235   7.971   2.807  0.1415 -0.3363  0.4436
16977SOL    HW252065   2.107   8.014   2.739  0.2508 -0.3874  0.2059
16978SOL     OW52066   0.329   5.070   6.083  0.1194  0.2653  0.0107
16978SOL    HW152067   0.361   5.102   5.999  1.3455  0.5292  0.5527
16978SOL    HW252068   0.303   5.149   6.130  1.5244  0.3700  0.6907
16979SOL     OW52069   3.334   7.247   6.732 -0.0510 -0.9268  0.6713
16979SOL    HW152070   3.313   7.329   6.688 -0.6086  0.3333  3.0784
16979SOL    HW252071   3.250   7.215   6.765  0.4945 -0.9410  2.1421
16980SOL     OW52072   1.091   5.055   4.814 -0.6073 -0.3094  0.0336
16980SOL    HW152073   1.183   5.080   4.807 -0.4231 -1.0261 -0.1972
16980SOL    HW252074   1.046   5.111   4.750 -0.8998  2.5569  2.5390
16981SOL     OW52075   4.137   5.910   0.041  0.1895  0.6571  0.5085
16981SOL    HW152076   4.151   5.893  -0.052 -1.4430 -0.4946  0.4254
16981SOL    HW252077   4.208   5.864   0.085  1.3767  1.7984 -0.1857
16982SOL     OW52078   2.193   1.890   5.394  0.3668  0.5804 -0.7329
16982SOL    HW152079   2.211   1.882   5.300 -0.5015 -2.8016 -0.7134
16982SOL    HW252080   2.136   1.967   5.400  0.9969  1.3035 -2.8543
16983SOL     OW52081   0.068   7.060   6.884 -0.6838  0.0097 -0.0749
16983SOL    HW152082   0.086   7.108   6.803  2.0350 -0.2490  0.2860
16983SOL    HW252083   0.047   6.971   6.855 -1.1143  0.2531 -0.5316
16984SOL     OW52084   8.369   2.076   7.363 -0.2808  0.5342  0.0474
16984SOL    HW152085   8.309   2.014   7.404  1.3614 -1.5824 -0.5972
16984SOL    HW252086   8.312   2.131   7.308 -1.9011  0.3473  1.4488
16985SOL     OW52087   1.113   7.120   7.296 -0.0779  0.2375 -0.2757
16985SOL    HW152088   1.097   7.121   7.390 -0.4582  3.8378 -0.2527
16985SOL    HW252089   1.207   7.136   7.287 -0.1830  0.7627 -0.4844
16986SOL     OW52090   2.541   5.785   8.929 -0.1657  0.2865  0.2112
16986SOL    HW152091   2.531   5.813   9.020 -1.7451 -0.5161  0.3212
16986SOL    HW252092   2.480   5.839   8.879  1.5799  1.5928 -0.6078
16987SOL     OW52093   9.089   8.723   2.572  0.7015  0.8495 -0.3303
16987SOL    HW152094   9.100   8.702   2.479  0.6504  1.6926 -0.5302
16987SOL    HW252095   9.166   8.775   2.594  1.6278 -0.8004  0.5608
16988SOL     OW52096   6.611   1.173   1.690  0.8325  0.3557 -0.3280
16988SOL    HW152097   6.619   1.260   1.730 -2.3789  0.9930 -0.7842
16988SOL    HW252098   6.618   1.112   1.764 -0.1973  1.2302  0.5224
16989SOL     OW52099   7.680   3.085   1.990  0.1555  0.3692  0.7496
16989SOL    HW152100   7.745   3.144   2.028  0.2671 -0.0842  1.2828
16989SOL    HW252101   7.732   3.014   1.951 -0.0024  0.2126  0.8188
16990SOL     OW52102   5.192   4.126   0.471 -0.1072  0.3153  0.3804
16990SOL    HW152103   5.097   4.126   0.484 -0.3228  1.9180 -0.8774
16990SOL    HW252104   5.204   4.113   0.377  0.8712  1.1622  0.3707
16991SOL     OW52105   3.986   3.205   2.786 -0.4237  0.6746 -0.3059
16991SOL    HW152106   3.944   3.265   2.846 -0.4180 -0.0916  0.4847
16991SOL    HW252107   3.931   3.207   2.707 -1.6220  0.1448  0.4808
16992SOL     OW52108   4.357   7.189   1.517 -0.1343  0.1446 -0.3696
16992SOL    HW152109   4.387   7.200   1.427  0.2254 -0.9735 -0.3978
16992SOL    HW252110   4.367   7.096   1.535  2.3842  0.7146  1.7411
16993SOL     OW52111   5.513   7.327   2.542  0.2145 -0.0319  0.5710
16993SOL    HW152112   5.438   7.355   2.489  2.4074  3.3064 -1.1466
16993SOL    HW252113   5.491   7.355   2.631 -0.0923  2.1639 -0.1448
16994SOL     OW52114   1.432   4.728   0.394 -0.5760 -0.6634  0.2293
16994SOL    HW152115   1.427   4.779   0.475  0.4180 -1.7460  1.0166
16994SOL    HW252116   1.493   4.657   0.415 -0.7141 -1.2697 -1.3154
16995SOL     OW52117   4.065   6.638   5.106 -0.1146  0.0152 -0.0692
16995SOL    HW152118   4.044   6.626   5.013 -0.8580  0.4924  0.0300
16995SOL    HW252119   4.148   6.685   5.107  0.8000 -1.5077 -0.4753
16996SOL     OW52120   7.981   5.364   8.309 -0.7425  0.1277  0.3606
16996SOL    HW152121   8.065   5.407   8.323  0.0057 -0.9660 -0.5750
16996SOL    HW252122   7.986   5.285   8.364 -1.0021 -0.1341  0.0049
16997SOL     OW52123   3.949   8.964   8.067  0.2285  0.4847 -0.0578
16997SOL    HW152124   3.865   8.998   8.037  0.6483 -0.2106 -2.2479
16997SOL    HW252125   4.004   9.043   8.076  0.3197  0.7360 -2.1358
16998SOL     OW52126   8.564   7.770   0.834  0.0852  0.4388  0.2900
16998SOL    HW152127   8.612   7.826   0.894 -1.9235  1.6262  0.9044
16998SOL    HW252128   8.489   7.739   0.885 -0.6531 -0.0462 -1.0404
16999SOL     OW52129   6.692   0.844   2.580 -0.0614  0.3888 -0.3365
16999SOL    HW152130   6.651   0.804   2.504 -0.9377  0.3341  0.1537
16999SOL    HW252131   6.695   0.774   2.645  1.2510  0.2537 -0.5040
17000SOL     OW52132   2.989   8.194   5.626  0.4956 -0.4280  0.1296
17000SOL    HW152133   3.013   8.286   5.615 -0.3860  0.1812  2.6474
17000SOL    HW252134   3.072   8.150   5.644  0.8014  0.0523 -0.0735
17001SOL     OW52135   6.319   1.096   4.184 -0.1767 -0.0457  0.4653
17001SOL    HW152136   6.302   1.004   4.207  1.2416 -0.6738 -0.8256
17001SOL    HW252137   6.387   1.124   4.244 -0.2158 -0.0178  0.4966
17002SOL     OW52138   3.383   3.576   6.707  0.0502  0.3560  0.6011
17002SOL    HW152139   3.375   3.480   6.708  0.2010  0.2015 -2.4387
17002SOL    HW252140   3.451   3.593   6.642  0.5991  2.5422  1.6666
17003SOL     OW52141   6.310   4.294   8.574  0.0099 -0.3475 -0.2129
17003SOL    HW152142   6.368   4.273   8.646 -0.0744 -2.6399 -0.7486
17003SOL    HW252143   6.227   4.318   8.615  0.4374 -0.0037  0.4609
17004SOL     OW52144   8.603   8.690   3.153  0.0651 -0.1466 -0.0437
17004SOL    HW152145   8.666   8.700   3.224  1.6712  1.2048 -1.5587
17004SOL    HW252146   8.525   8.736   3.183  0.8391  0.7029  0.7279
17005SOL     OW52147   0.022   4.947   1.686 -0.7873 -0.6217 -0.6286
17005SOL    HW152148   0.106   4.917   1.651 -0.0900  1.4397 -0.8030
17005SOL    HW252149  -0.043   4.889   1.645  0.3498 -0.7733 -2.2787
17006SOL     OW52150   2.664   5.801   7.583  0.5907 -0.8225 -0.4018
17006SOL    HW152151   2.648   5.851   7.504  0.0633 -0.9765 -0.3951
17006SOL    HW252152   2.676   5.867   7.651 -3.8797 -0.5360  0.4268
17007SOL     OW52153   8.297   2.408   6.223  0.3679 -0.2905  0.1285
17007SOL    HW152154   8.352   2.335   6.251  0.3310 -0.5749 -0.5405
17007SOL    HW252155   8.318   2.421   6.131  0.0728  0.2779  0.1357
17008SOL     OW52156   5.562   4.168   1.223 -0.4827  0.4556  0.1147
17008SOL    HW152157   5.478   4.121   1.224 -0.2549  0.0179 -0.5967
17008SOL    HW252158   5.573   4.196   1.133  0.0651  0.6445  0.2353
17009SOL     OW52159   6.619   2.385   3.183  0.1816 -0.5891  0.0354
17009SOL    HW152160   6.587   2.389   3.273  0.4636  0.3688  0.0993
17009SOL    HW252161   6.714   2.389   3.191  0.2753 -1.9391 -0.2379
17010SOL     OW52162   4.023   4.616   3.386 -0.3137 -0.0752  0.0792
17010SOL    HW152163   4.002   4.700   3.346 -1.1320 -0.2730  0.0826
17010SOL    HW252164   4.014   4.552   3.315 -0.4896 -0.2605  0.2662
17011SOL     OW52165   6.262   4.681   6.992  0.4702  0.0278 -0.1875
17011SOL    HW152166   6.180   4.727   6.971 -0.1575 -0.2857  1.4221
17011SOL    HW252167   6.329   4.750   6.989  0.3232  0.1464 -2.2999
17012SOL     OW52168   5.927   4.002   4.059  0.4840  0.2671 -0.0034
17012SOL    HW152169   5.845   3.972   4.099  1.2904 -0.3167  1.2642
17012SOL    HW252170   5.905   4.013   3.967 -1.1918  0.7409  0.4115
17013SOL     OW52171   3.609   5.356   4.037 -0.5843 -0.4126 -0.1976
17013SOL    HW152172   3.520   5.361   4.072 -0.3182  0.4022  0.4027
17013SOL    HW252173   3.656   5.428   4.080  0.3081 -0.6923 -0.6697
17014SOL     OW52174   0.743   1.132   1.325 -0.0328 -0.5853  0.1878
17014SOL    HW152175   0.838   1.136   1.327  0.0448  0.1971 -1.9975
17014SOL    HW252176   0.722   1.039   1.329  0.7913 -0.7519  0.9076
17015SOL     OW52177   6.953   5.466   0.625 -0.3491  0.5556  0.0117
17015SOL    HW152178   6.999   5.416   0.693  2.2731  1.1351 -1.2421
17015SOL    HW252179   6.951   5.408   0.549 -1.2830  0.7282 -0.1070
17016SOL     OW52180   1.412   0.655   8.666 -0.2771 -0.4830 -0.4638
17016SOL    HW152181   1.431   0.736   8.618 -0.8794 -0.8964 -1.4162
17016SOL    HW252182   1.498   0.623   8.693 -0.1049  1.5177  1.7461
17017SOL     OW52183   2.180   4.040   8.432  0.2835  0.1739 -0.3067
17017SOL    HW152184   2.213   4.013   8.346  4.2618  2.0905  0.4301
17017SOL    HW252185   2.215   4.127   8.446 -0.7867  0.2179  3.0390
17018SOL     OW52186   2.854   3.723   1.288 -0.5528 -0.0191  0.3904
17018SOL    HW152187   2.813   3.794   1.238  0.2177  0.9684  1.1119
17018SOL    HW252188   2.914   3.768   1.348  0.7919 -1.3416  0.1006
17019SOL     OW52189   0.317   4.246   8.721 -0.5781 -0.1999  0.1281
17019SOL    HW152190   0.383   4.301   8.679  0.2754 -1.0892  0.2739
17019SOL    HW252191   0.244   4.305   8.737  0.2201  0.8377  0.0665
17020SOL     OW52192   9.082   3.150   4.802  0.1963 -0.0236 -0.4101
17020SOL    HW152193   9.065   3.064   4.763 -1.2942 -0.1890  0.5461
17020SOL    HW252194   9.096   3.133   4.895 -0.1703  0.7750 -0.1983
17021SOL     OW52195   6.643   2.433   5.093  0.0131  0.0267 -0.3746
17021SOL    HW152196   6.735   2.457   5.082 -0.6445  2.7913 -0.6390
17021SOL    HW252197   6.628   2.442   5.188 -0.4231  1.6910 -0.5615
17022SOL     OW52198   5.723   8.088   0.386 -0.3105 -0.3473 -0.2004
17022SOL    HW152199   5.653   8.141   0.347 -0.2119  0.2115  0.3763
17022SOL    HW252200   5.803   8.133   0.362 -0.1555 -0.8283 -0.6107
17023SOL     OW52201   2.025   3.960   6.372 -0.2734  0.7273  0.2033
17023SOL    HW152202   2.037   3.926   6.460  0.9039  0.4201 -0.0611
17023SOL    HW252203   1.960   4.030   6.382 -0.7028  0.2016  1.1796
17024SOL     OW52204   0.565   2.130   0.988  0.0433  0.4585  0.8009
17024SOL    HW152205   0.519   2.051   1.016 -0.0295  0.1136 -0.2362
17024SOL    HW252206   0.502   2.200   0.997 -0.7373 -0.0112 -0.6317
17025SOL     OW52207   7.282   5.525   1.215  0.0317  0.0848  0.1674
17025SOL    HW152208   7.272   5.433   1.236 -0.6543  0.5831  2.2596
17025SOL    HW252209   7.211   5.544   1.154  0.2991 -0.7885 -0.4294
17026SOL     OW52210   2.137   6.406   4.229 -0.1032 -0.2743  0.0127
17026SOL    HW152211   2.161   6.315   4.212 -0.7938 -0.2183 -1.3514
17026SOL    HW252212   2.126   6.410   4.324 -3.5730 -2.5691 -0.1119
17027SOL     OW52213   1.643   3.478   6.183 -0.4220  0.3047 -0.2383
17027SOL    HW152214   1.624   3.552   6.241  0.9196  0.6220 -0.1724
17027SOL    HW252215   1.624   3.400   6.237  0.4837  0.5969  0.5269
17028SOL     OW52216   2.185   2.143   3.305  0.2258 -1.3142 -0.5227
17028SOL    HW152217   2.103   2.108   3.339  0.1518 -1.4276 -0.8186
17028SOL    HW252218   2.169   2.237   3.295  1.2707 -0.6274  2.8750
17029SOL     OW52219   2.295   4.981   5.913  0.1081  0.4940  0.1383
17029SOL    HW152220   2.241   5.001   5.836  1.7673  2.8372 -0.5031
17029SOL    HW252221   2.263   5.041   5.981 -1.2176 -1.4290  1.3173
17030SOL     OW52222   2.865   3.318   7.491 -0.0757 -0.6649 -0.1194
17030SOL    HW152223   2.808   3.250   7.454  0.1099 -1.3463  0.8004
17030SOL    HW252224   2.951   3.299   7.453  0.1113 -1.3529  0.6128
17031SOL     OW52225   6.131   1.710   3.011  0.0862 -0.1674  0.3418
17031SOL    HW152226   6.059   1.670   3.060  0.0698 -0.0430  0.4216
17031SOL    HW252227   6.208   1.692   3.064  0.0639 -0.0029  0.4335
17032SOL     OW52228   8.187   0.226   4.677 -0.2985 -0.0133  0.2669
17032SOL    HW152229   8.248   0.299   4.675  0.3716 -0.5506  0.6811
17032SOL    HW252230   8.101   0.266   4.675  0.0560  0.7538 -0.6707
17033SOL     OW52231   7.354   8.892   7.520  0.1649 -0.5552  0.2317
17033SOL    HW152232   7.281   8.863   7.575 -0.1176  0.1192  0.2197
17033SOL    HW252233   7.361   8.986   7.536  0.6393 -0.5066 -0.2307
17034SOL     OW52234   8.770   0.325   7.091  0.3044 -1.2844 -0.0688
17034SOL    HW152235   8.770   0.397   7.155 -0.2532 -0.4878 -0.9427
17034SOL    HW252236   8.718   0.256   7.134 -1.4997 -0.1373 -0.2997
17035SOL     OW52237   4.048   0.083   8.499 -0.2041  0.5628  1.0195
17035SOL    HW152238   4.086   0.012   8.449  0.0594  1.9396 -0.8473
17035SOL    HW252239   3.971   0.045   8.541 -1.1796 -0.3712 -1.4915
17036SOL     OW52240   4.970   2.952   4.561  0.2617 -0.2426  0.3224
17036SOL    HW152241   4.981   3.028   4.505  0.1229 -0.0495  0.5531
17036SOL    HW252242   4.952   2.879   4.501 -1.1998  0.2002  0.1724
17037SOL     OW52243   6.553   0.624   8.369  0.2306 -0.1705 -0.8351
17037SOL    HW152244   6.540   0.529   8.368 -1.7469  0.0386 -2.2749
17037SOL    HW252245   6.554   0.647   8.462  1.5426 -1.6565 -0.4397
17038SOL     OW52246   3.836   0.541   7.223 -0.6136  0.2064  0.2194
17038SOL    HW152247   3.745   0.571   7.214 -0.3955  0.8586  0.1279
17038SOL    HW252248   3.830   0.446   7.225 -1.3558  0.2588  0.8128
17039SOL     OW52249   7.389   0.172   8.168 -0.2819 -0.2789 -0.1595
17039SOL    HW152250   7.381   0.224   8.247 -0.3854  0.5148 -0.6837
17039SOL    HW252251   7.481   0.180   8.143 -0.2943 -0.3609 -0.2323
17040SOL     OW52252   6.864   8.716   0.757  0.0570 -0.1558 -0.0176
17040SOL    HW152253   6.905   8.634   0.728  2.0582  0.5874  0.5314
17040SOL    HW252254   6.806   8.689   0.828  0.2983 -1.1574 -0.1749
17041SOL     OW52255   6.085   7.574   2.065  0.1222  0.2521  0.6006
17041SOL    HW152256   6.168   7.598   2.106  0.3323 -0.0568  0.3548
17041SOL    HW252257   6.064   7.488   2.103  1.3868 -1.0603 -1.4779
17042SOL     OW52258   4.286   5.532   4.525  0.5157 -0.4048 -0.5895
17042SOL    HW152259   4.222   5.558   4.458 -0.4165 -0.3153  0.3167
17042SOL    HW252260   4.284   5.603   4.589  0.0037 -1.3581  0.4872
17043SOL     OW52261   4.721   4.544   7.359  0.0491  0.3129 -0.2977
17043SOL    HW152262   4.626   4.548   7.368 -0.0765  2.6970 -1.8896
17043SOL    HW252263   4.735   4.517   7.268  0.8938  0.4204 -0.2051
17044SOL     OW52264   5.172   7.012   8.425 -0.2168  0.6591  0.1119
17044SOL    HW152265   5.118   6.953   8.373  0.0944 -0.2706  0.8252
17044SOL    HW252266   5.259   7.008   8.384  0.8773 -2.4196  2.3470
17045SOL     OW52267   1.885   4.105   6.677  0.0980 -0.5875 -0.2165
17045SOL    HW152268   1.811   4.045   6.688 -0.2025 -0.0395  0.8126
17045SOL    HW252269   1.875   4.169   6.747  0.2404  0.8564 -1.4720
17046SOL     OW52270   5.467   0.428   8.879 -0.1822 -0.1107  0.5372
17046SOL    HW152271   5.463   0.523   8.891 -0.8756 -0.0504 -0.0901
17046SOL    HW252272   5.538   0.415   8.816  0.0946 -0.0306  0.8313
17047SOL     OW52273   4.760   3.349   4.818 -0.3277  0.6724 -0.2543
17047SOL    HW152274   4.719   3.426   4.780 -0.9667  0.4518 -0.0200
17047SOL    HW252275   4.715   3.275   4.778  1.4695  0.3502 -1.8406
17048SOL     OW52276   7.167   0.875   6.837 -0.4387 -0.2677 -0.0878
17048SOL    HW152277   7.145   0.805   6.898  3.1100 -0.4944  1.2110
17048SOL    HW252278   7.131   0.954   6.876 -1.9396 -0.9619 -0.0277
17049SOL     OW52279   1.275   1.317   3.066  0.5219 -0.1702  0.4025
17049SOL    HW152280   1.215   1.389   3.079  0.9515  0.3455 -0.3947
17049SOL    HW252281   1.355   1.343   3.111  1.2396  0.6151 -1.2368
17050SOL     OW52282   6.857   5.120   5.403  0.0224  0.0588 -0.0808
17050SOL    HW152283   6.929   5.066   5.372 -1.1461 -2.1508  0.7858
17050SOL    HW252284   6.857   5.107   5.498 -1.1804  0.3999 -0.0204
17051SOL     OW52285   5.045   6.818   4.867  0.0123 -0.1150  0.0505
17051SOL    HW152286   4.972   6.761   4.892  0.9679 -1.5072 -0.2185
17051SOL    HW252287   5.031   6.834   4.774 -0.8328  1.0123  0.3390
17052SOL     OW52288   7.736   7.926   3.876 -0.7558  0.2284  0.0573
17052SOL    HW152289   7.770   7.999   3.928  0.7358  0.7938 -1.6091
17052SOL    HW252290   7.656   7.961   3.836 -0.2956  0.8305 -0.3657
17053SOL     OW52291   5.610   2.332   5.831 -0.2099 -0.1914 -0.1238
17053SOL    HW152292   5.564   2.286   5.901  2.1396 -0.4629  1.3588
17053SOL    HW252293   5.672   2.389   5.877  1.8115 -0.7781 -1.9451
17054SOL     OW52294   5.102   7.712   3.154  0.3946  0.4737  0.1978
17054SOL    HW152295   5.084   7.748   3.067  1.4676 -1.7483 -1.0214
17054SOL    HW252296   5.152   7.781   3.198  2.3381  0.6237 -2.0149
17055SOL     OW52297   1.560   7.838   5.306  0.5885  0.5055 -0.3586
17055SOL    HW152298   1.548   7.776   5.377  1.9139  1.9100  1.1660
17055SOL    HW252299   1.511   7.916   5.333  2.1474  1.5171 -0.3451
17056SOL     OW52300   6.233   2.960   8.592  0.0550  0.4504 -0.2769
17056SOL    HW152301   6.209   2.971   8.684  0.9181  2.6509 -0.2659
17056SOL    HW252302   6.328   2.952   8.593 -0.0648 -1.9904 -0.8394
17057SOL     OW52303   7.750   4.739   2.005 -0.3445  0.6642 -0.3882
17057SOL    HW152304   7.719   4.828   2.016 -0.3790  0.5905  0.1356
17057SOL    HW252305   7.813   4.726   2.076 -0.5550  0.1775 -0.2812
17058SOL     OW52306   1.426   5.797   4.668  0.3345 -0.2773 -0.3058
17058SOL    HW152307   1.372   5.730   4.625  1.7521 -1.2690 -0.6223
17058SOL    HW252308   1.504   5.749   4.696  0.4239  0.8066  1.4474
17059SOL     OW52309   0.997   5.148   5.482  0.9306 -0.1478 -0.5470
17059SOL    HW152310   0.950   5.186   5.555  1.1921  0.0438 -0.4777
17059SOL    HW252311   1.071   5.102   5.522  1.9257  1.1891 -0.7772
17060SOL     OW52312   5.321   5.789   8.630 -0.0833 -0.6117  0.2634
17060SOL    HW152313   5.352   5.810   8.542  0.5086 -1.1013  0.3455
17060SOL    HW252314   5.397   5.805   8.687 -0.1066 -1.4088  0.5281
17061SOL     OW52315   4.679   4.499   2.162  0.0974 -0.8047  0.0077
17061SOL    HW152316   4.667   4.522   2.070 -0.9456 -1.3504 -0.0054
17061SOL    HW252317   4.624   4.562   2.210 -0.9777 -1.7734  0.1080
17062SOL     OW52318   5.856   0.016   6.974 -0.0998 -0.0450 -0.6389
17062SOL    HW152319   5.807   0.094   7.001  1.2366  0.3525  0.7604
17062SOL    HW252320   5.892  -0.019   7.055 -0.4174 -1.9889 -1.2807
17063SOL     OW52321   0.236   4.374   7.018 -0.3037 -0.0203 -0.5482
17063SOL    HW152322   0.174   4.335   6.957 -1.2409  0.9704 -0.2556
17063SOL    HW252323   0.249   4.463   6.985  1.1919 -0.2849 -0.7581
17064SOL     OW52324   5.571   5.846   7.535  0.2558  0.2532  0.7743
17064SOL    HW152325   5.520   5.927   7.544  0.3674  0.4085  0.0555
17064SOL    HW252326   5.646   5.858   7.594 -0.3386  0.1779  1.5582
17065SOL     OW52327   5.830   1.084   0.711 -0.3105  0.0722  0.4994
17065SOL    HW152328   5.781   1.008   0.743  0.0088  0.1031  1.0783
17065SOL    HW252329   5.837   1.142   0.787 -0.3380  0.5724  0.1265
17066SOL     OW52330   0.771   6.287   3.995 -0.1301 -0.4174  0.1618
17066SOL    HW152331   0.715   6.361   3.974  1.3459 -0.2143 -4.0032
17066SOL    HW252332   0.844   6.325   4.043 -0.2578  0.5398 -0.3829
17067SOL     OW52333   0.380   6.904   5.820  0.6646 -0.1461  0.2802
17067SOL    HW152334   0.394   6.815   5.853 -0.8316 -0.9291 -1.0841
17067SOL    HW252335   0.445   6.915   5.750  2.4336  0.7644  1.9388
17068SOL     OW52336   6.443   8.990   1.391  0.1367  0.6857  0.3338
17068SOL    HW152337   6.417   8.989   1.299  1.5622  0.9725 -0.0972
17068SOL    HW252338   6.380   8.933   1.434  0.0658 -0.2840 -0.9871
17069SOL     OW52339   3.013   2.094   3.007 -0.0993 -0.1385  0.1893
17069SOL    HW152340   2.951   2.023   3.026 -0.2881  0.3379  1.4636
17069SOL    HW252341   3.096   2.064   3.044  1.0348 -1.6670 -3.2696
17070SOL     OW52342   3.447   7.833   7.467 -0.0641  0.0264 -0.2561
17070SOL    HW152343   3.383   7.873   7.409  1.5753  0.5501 -1.7949
17070SOL    HW252344   3.521   7.893   7.467  0.5797 -0.7015  1.2163
17071SOL     OW52345   3.250   5.108   3.109 -0.4843 -0.2567 -0.6473
17071SOL    HW152346   3.332   5.155   3.127  0.2104 -0.6637 -2.5324
17071SOL    HW252347   3.277   5.030   3.060 -1.6897 -2.3297  1.7846
17072SOL     OW52348   7.884   6.209   5.421  0.7231  0.4615 -0.2197
17072SOL    HW152349   7.795   6.188   5.448  1.1927 -0.1172  0.9438
17072SOL    HW252350   7.908   6.138   5.361  0.2563  0.8593 -0.8913
17073SOL     OW52351   0.525   1.895   7.211  0.0755  0.2855  0.0103
17073SOL    HW152352   0.510   1.907   7.305 -1.3854  0.1687 -0.1806
17073SOL    HW252353   0.609   1.938   7.194 -0.0728  1.1027  1.2095
17074SOL     OW52354   4.404   1.954   1.421  0.4942 -0.3900 -0.2458
17074SOL    HW152355   4.481   1.971   1.366  1.3699 -0.5283  0.9102
17074SOL    HW252356   4.340   1.916   1.360  1.7035 -1.2565 -1.0456
17075SOL     OW52357   3.738   7.063   3.176  0.0757 -0.0255  0.0284
17075SOL    HW152358   3.785   6.995   3.224 -1.3082 -0.5432  0.7014
17075SOL    HW252359   3.746   7.142   3.231  3.1532  0.9278 -1.5565
17076SOL     OW52360   4.461   2.493   0.645  0.3687 -0.0560 -0.6883
17076SOL    HW152361   4.502   2.448   0.571  2.0818  0.3628 -0.0448
17076SOL    HW252362   4.495   2.583   0.640  1.0625 -0.1896  0.9690
17077SOL     OW52363   7.418   3.130   8.092 -0.2751 -0.1066  0.4289
17077SOL    HW152364   7.477   3.055   8.080 -0.2194 -0.0294  0.1949
17077SOL    HW252365   7.366   3.131   8.012  0.5024  0.7816 -0.0870
17078SOL     OW52366   6.040   3.141   7.903 -0.2227 -0.4242 -0.5023
17078SOL    HW152367   5.983   3.216   7.919  0.0031 -0.0243 -1.4613
17078SOL    HW252368   6.052   3.140   7.808  1.4068 -0.4545 -0.3310
17079SOL     OW52369   1.119   7.308   0.040 -0.1409 -0.2031  0.4289
17079SOL    HW152370   1.151   7.279  -0.045 -1.5736  0.6198 -0.4282
17079SOL    HW252371   1.185   7.278   0.102 -0.3038 -3.1099 -0.6444
17080SOL     OW52372   6.780   5.356   6.273  0.1579 -1.2081  0.6752
17080SOL    HW152373   6.758   5.300   6.199 -0.9796 -0.6690  0.5753
17080SOL    HW252374   6.700   5.358   6.326 -0.2045  1.1316  0.1392
17081SOL     OW52375   8.076   7.830   0.282 -0.7767 -0.5512  0.1086
17081SOL    HW152376   8.096   7.737   0.269 -1.4534 -1.0280  2.0554
17081SOL    HW252377   8.100   7.872   0.200  0.8797 -2.2306 -0.3329
17082SOL     OW52378   3.123   4.255   6.771 -0.1082  0.5011  0.1938
17082SOL    HW152379   3.066   4.254   6.848  1.2585  2.3539  1.3157
17082SOL    HW252380   3.082   4.194   6.710 -2.4545  0.6208  1.5195
17083SOL     OW52381   1.505   1.092   2.620 -0.1207 -0.8759  0.5518
17083SOL    HW152382   1.445   1.145   2.673 -0.0311  0.7421 -0.8868
17083SOL    HW252383   1.548   1.035   2.684 -2.1708 -1.1494  1.8072
17084SOL     OW52384   0.297   5.198   1.864 -0.0740 -0.8840 -0.0853
17084SOL    HW152385   0.288   5.284   1.822  1.5491 -1.2506 -1.2383
17084SOL    HW252386   0.208   5.176   1.892 -0.7703  0.4969 -1.1053
17085SOL     OW52387   8.110   0.205   3.683  0.0309 -0.2981  0.0136
17085SOL    HW152388   8.115   0.134   3.619  1.1529 -0.3813  0.1834
17085SOL    HW252389   8.063   0.275   3.637 -0.7737 -1.0013 -0.2765
17086SOL     OW52390   5.860   0.315   5.208 -0.6997 -0.4016  0.0907
17086SOL    HW152391   5.818   0.268   5.280 -1.0105 -0.4389 -0.1126
17086SOL    HW252392   5.798   0.385   5.186 -1.2207 -1.1943 -1.0194
17087SOL     OW52393   1.703   0.402   0.815 -0.5989  0.1188 -0.3987
17087SOL    HW152394   1.762   0.327   0.801 -1.3158 -0.3568 -0.9498
17087SOL    HW252395   1.758   0.479   0.800 -0.0632 -0.3123 -0.6748
17088SOL     OW52396   0.314   3.378   6.076 -0.3784 -0.0448 -0.7724
17088SOL    HW152397   0.284   3.288   6.070 -1.5796  0.0937  1.9306
17088SOL    HW252398   0.362   3.383   6.158 -2.6841  2.3252  0.5990
17089SOL     OW52399   6.348   8.630   4.741 -0.7482 -0.7360 -0.3264
17089SOL    HW152400   6.420   8.569   4.757  1.7124  2.2943  1.1039
17089SOL    HW252401   6.278   8.600   4.799  0.7012 -1.6950  1.0095
17090SOL     OW52402   5.081   3.824   0.626 -0.0333 -0.5247  0.0835
17090SOL    HW152403   5.041   3.904   0.590  0.5163 -0.5440 -0.5826
17090SOL    HW252404   5.164   3.853   0.664 -1.4936 -0.1136  3.3200
17091SOL     OW52405   7.188   8.318   4.560  0.0846 -0.6098 -0.4725
17091SOL    HW152406   7.093   8.310   4.554 -0.2150  0.5848  1.6682
17091SOL    HW252407   7.222   8.256   4.495 -2.1370 -1.0377 -1.2892
17092SOL     OW52408   3.060   6.580   0.578 -0.1483  0.4431  0.0523
17092SOL    HW152409   3.066   6.674   0.558  2.1677  0.6507  1.2881
17092SOL    HW252410   3.065   6.537   0.493  1.9807  1.4347 -0.4049
17093SOL     OW52411   2.398   6.428   5.858 -0.2153 -0.3541  0.6480
17093SOL    HW152412   2.455   6.502   5.834 -1.2988 -0.6151 -3.6594
17093SOL    HW252413   2.338   6.464   5.923  1.4786  1.4945  1.2929
17094SOL     OW52414   1.600   0.666   0.648  0.0051 -0.4737  0.3380
17094SOL    HW152415   1.590   0.722   0.571 -0.7868  1.6454  1.8788
17094SOL    HW252416   1.694   0.665   0.666  0.0832 -0.1086 -0.0473
17095SOL     OW52417   7.898   7.265   5.318  0.8188  0.4570 -0.1480
17095SOL    HW152418   7.891   7.360   5.328 -0.8765  0.7210 -2.7422
17095SOL    HW252419   7.958   7.253   5.245 -0.7091 -0.2711 -1.3581
17096SOL     OW52420   8.994   5.528   4.459 -0.0119 -0.1098  0.4841
17096SOL    HW152421   8.985   5.622   4.475  0.7061 -0.1723  1.3243
17096SOL    HW252422   9.083   5.519   4.423  0.3708 -0.5995  1.5347
17097SOL     OW52423   4.234   8.953   6.921  0.3062 -0.0061  0.2269
17097SOL    HW152424   4.304   8.890   6.939  0.3543  0.4271  1.6576
17097SOL    HW252425   4.193   8.968   7.006 -0.0858  1.4519 -0.1981
17098SOL     OW52426   4.318   5.093   3.683 -0.6167 -0.2881  0.7230
17098SOL    HW152427   4.371   5.172   3.669 -1.2178 -0.2289 -1.7554
17098SOL    HW252428   4.374   5.035   3.735  0.7868  0.8386  0.5169
17099SOL     OW52429   8.494   2.008   5.903 -0.1488 -0.2314 -0.5787
17099SOL    HW152430   8.583   1.982   5.924 -0.4922 -1.3193 -0.3853
17099SOL    HW252431   8.493   2.017   5.807  0.4070  0.7779 -0.5005
17100SOL     OW52432   5.985   6.446   8.095  0.2492 -0.5157  0.0883
17100SOL    HW152433   5.931   6.368   8.080  1.2724 -1.3102  0.4288
17100SOL    HW252434   5.966   6.471   8.186 -2.3770  1.4998 -0.8677
17101SOL     OW52435   6.138   2.678   0.450 -0.6995  0.3338 -0.7808
17101SOL    HW152436   6.065   2.707   0.395 -0.5267 -1.2383 -1.9361
17101SOL    HW252437   6.176   2.604   0.402  1.3677  0.7943  0.0051
17102SOL     OW52438   5.559   2.020   5.529  0.2804  0.9016  0.0021
17102SOL    HW152439   5.481   2.001   5.581 -0.0138  1.3058 -0.2820
17102SOL    HW252440   5.585   2.108   5.555 -0.6790  1.6728 -1.4937
17103SOL     OW52441   7.723   4.860   5.484  0.2856  0.9690  0.2333
17103SOL    HW152442   7.710   4.886   5.393 -1.3526  2.3759  0.8220
17103SOL    HW252443   7.635   4.852   5.520  0.9052  0.7818  1.8017
17104SOL     OW52444   5.481   4.940   3.909  0.1982 -0.3082 -0.2770
17104SOL    HW152445   5.431   4.996   3.969  0.7228 -0.9352  0.7613
17104SOL    HW252446   5.572   4.955   3.933  0.3160 -2.7908  1.1462
17105SOL     OW52447   5.266   5.332   4.884  0.1002 -0.0591  0.2744
17105SOL    HW152448   5.256   5.382   4.964 -2.0062 -3.1716  2.1784
17105SOL    HW252449   5.358   5.305   4.883  0.5069  1.2527  0.8155
17106SOL     OW52450   8.725   3.702   2.530  0.0248  0.2831 -0.0022
17106SOL    HW152451   8.674   3.781   2.511  1.6550  1.3853  0.0634
17106SOL    HW252452   8.812   3.720   2.496  0.3368 -1.6760 -0.3595
17107SOL     OW52453   5.542   2.071   6.729  0.2263  0.4164 -0.1432
17107SOL    HW152454   5.586   2.087   6.645 -0.2066  0.0808 -0.4353
17107SOL    HW252455   5.513   1.980   6.724  0.3148  0.3521  0.4289
17108SOL     OW52456   5.082   6.137   2.886  0.0385  0.1917 -0.2006
17108SOL    HW152457   5.056   6.046   2.871  0.9410  0.0646 -1.0811
17108SOL    HW252458   5.174   6.132   2.913 -0.4232  0.7204  1.6170
17109SOL     OW52459   4.827   0.391   0.292  0.0315 -0.0181  0.0756
17109SOL    HW152460   4.905   0.445   0.304  1.6291 -2.0118 -0.7147
17109SOL    HW252461   4.853   0.304   0.323 -2.6000 -0.3086  1.7514
17110SOL     OW52462   6.786   2.905   8.319  0.5419 -0.1765 -0.0204
17110SOL    HW152463   6.712   2.959   8.293 -0.1012  0.1256  2.2221
17110SOL    HW252464   6.828   2.954   8.389  1.9964 -1.0458 -0.2364
17111SOL     OW52465   1.224   6.493   5.378  0.2239  0.4330 -0.3749
17111SOL    HW152466   1.299   6.549   5.360  0.0552  1.3758  1.5015
17111SOL    HW252467   1.149   6.553   5.377 -0.7146 -0.6583 -3.2351
17112SOL     OW52468   1.420   5.016   8.115  0.1186 -0.4038  0.2619
17112SOL    HW152469   1.412   4.997   8.021  1.0547 -1.4582  0.3696
17112SOL    HW252470   1.340   5.064   8.137 -0.0834 -0.0897 -1.0849
17113SOL     OW52471   0.513   7.268   6.556  0.3396  0.0848  0.1410
17113SOL    HW152472   0.507   7.362   6.535  0.0625  0.0786  0.1833
17113SOL    HW252473   0.456   7.226   6.491 -1.2464  0.1474  1.4330
17114SOL     OW52474   7.241   7.390   1.450 -0.4920 -0.0422 -0.4839
17114SOL    HW152475   7.147   7.372   1.447 -0.3915 -0.5237 -0.7537
17114SOL    HW252476   7.282   7.306   1.430  0.0109 -0.0725  0.5906
17115SOL     OW52477   6.214   9.072   6.720  0.1831 -0.1114 -0.3929
17115SOL    HW152478   6.157   8.995   6.712 -1.3605  1.0544 -1.0615
17115SOL    HW252479   6.221   9.085   6.815  1.1679 -1.5449 -0.2348
17116SOL     OW52480   3.278   3.902   2.403 -0.4456 -0.0493 -0.5936
17116SOL    HW152481   3.300   3.844   2.330 -0.8498 -1.2633  0.2340
17116SOL    HW252482   3.232   3.847   2.465  0.5595  0.7752  0.9504
17117SOL     OW52483   3.279   9.114   8.373 -0.4671 -0.0623  0.0721
17117SOL    HW152484   3.195   9.070   8.362 -0.9630  0.5811  1.1297
17117SOL    HW252485   3.257   9.197   8.416  0.5928  0.6005 -0.6084
17118SOL     OW52486   9.000   7.297   8.076  0.5378  0.0446  0.0999
17118SOL    HW152487   9.028   7.247   8.153 -1.5123  0.8055  1.4182
17118SOL    HW252488   8.935   7.359   8.109  1.3054  2.0408 -1.8781
17119SOL     OW52489   5.054   0.280   4.776  0.1636  0.3043  0.7285
17119SOL    HW152490   5.022   0.277   4.686  1.0395 -0.4793  0.4188
17119SOL    HW252491   5.116   0.353   4.778 -0.2135  0.6236  0.8269
17120SOL     OW52492   2.841   7.638   3.943 -0.1774 -0.2963  0.2022
17120SOL    HW152493   2.760   7.659   3.990 -0.1462 -1.6030  0.8796
17120SOL    HW252494   2.905   7.703   3.975 -1.0333  0.9938 -0.6312
17121SOL     OW52495   3.065   8.147   6.226  0.0980  0.3986 -0.2606
17121SOL    HW152496   3.095   8.058   6.245 -1.6362 -0.0649  0.4558
17121SOL    HW252497   3.127   8.203   6.274  0.6267 -0.4460  0.0783
17122SOL     OW52498   6.788   2.810   2.763  0.0551  0.1143 -0.4886
17122SOL    HW152499   6.872   2.806   2.810 -0.7783  0.7795  1.1160
17122SOL    HW252500   6.777   2.721   2.728  0.3346 -0.6654  1.2828
17123SOL     OW52501   0.049   4.862   2.125 -0.2396  0.0677  0.0346
17123SOL    HW152502  -0.018   4.894   2.185  0.1020  0.3844  0.2570
17123SOL    HW252503   0.131   4.868   2.175 -0.3439 -2.8249  0.7137
17124SOL     OW52504   8.807   6.211   8.262 -0.4255  0.1527  0.0840
17124SOL    HW152505   8.897   6.202   8.229 -0.1927  2.4205 -0.0326
17124SOL    HW252506   8.773   6.290   8.220 -1.7552  0.5141  1.7173
17125SOL     OW52507   7.253   7.239   2.536  0.5274 -0.1385 -0.0848
17125SOL    HW152508   7.298   7.159   2.561 -0.6277 -0.5303  0.8349
17125SOL    HW252509   7.184   7.249   2.602 -1.1842  0.0305 -1.8192
17126SOL     OW52510   3.517   5.710   6.784  0.0144 -0.6831  0.6050
17126SOL    HW152511   3.521   5.625   6.741 -1.2006 -1.2966  1.6564
17126SOL    HW252512   3.446   5.756   6.738 -0.0400 -0.6490  0.7221
17127SOL     OW52513   4.918   6.867   2.381 -0.3485 -0.4253  0.1268
17127SOL    HW152514   4.924   6.938   2.445  0.8748 -0.8649  0.5185
17127SOL    HW252515   4.874   6.906   2.305 -2.0260  0.0414  1.3028
17128SOL     OW52516   8.875   4.359   7.604 -0.1199 -0.0411 -0.3320
17128SOL    HW152517   8.783   4.348   7.580 -1.0484  0.5713  2.5011
17128SOL    HW252518   8.888   4.454   7.605  0.1062 -0.0671  0.5601
17129SOL     OW52519   1.736   6.910   6.441  0.0393 -0.1618 -0.2818
17129SOL    HW152520   1.667   6.878   6.382  0.3863  0.7424 -1.2067
17129SOL    HW252521   1.812   6.855   6.422  0.9181  1.6442 -2.5253
17130SOL     OW52522   8.725   8.172   8.889 -0.1581  0.3910 -0.7914
17130SOL    HW152523   8.739   8.082   8.919  4.2127  0.3228 -2.3081
17130SOL    HW252524   8.703   8.221   8.969 -0.8723 -1.6765  0.3592
17131SOL     OW52525   7.706   4.595   2.562  0.1324 -0.0780  0.1790
17131SOL    HW152526   7.722   4.623   2.653  0.2734  0.8370 -0.1101
17131SOL    HW252527   7.611   4.599   2.552  0.1558  0.4105  0.1162
17132SOL     OW52528   6.718   5.092   4.904 -0.1346 -0.0794  0.3894
17132SOL    HW152529   6.704   5.109   4.997 -0.4230 -1.2779  0.5820
17132SOL    HW252530   6.742   4.999   4.900  0.3361  0.0725 -0.6902
17133SOL     OW52531   7.264   4.647   5.415 -0.6580 -0.5135  0.0265
17133SOL    HW152532   7.228   4.728   5.379 -0.5073 -1.5353 -2.6646
17133SOL    HW252533   7.188   4.602   5.453 -1.8540 -1.3315 -3.0122
17134SOL     OW52534   4.128   0.939   1.758  0.1460  0.3555 -0.3127
17134SOL    HW152535   4.075   1.019   1.754  0.2698  0.4056 -1.3361
17134SOL    HW252536   4.189   0.947   1.685  1.1645  0.0018  0.4783
17135SOL     OW52537   6.050   2.323   8.632  0.5192 -0.0288  0.2238
17135SOL    HW152538   6.079   2.235   8.608  0.1293 -0.3259  0.8220
17135SOL    HW252539   6.007   2.356   8.553 -0.4107 -0.8518  0.3625
17136SOL     OW52540   5.397   0.379   4.449 -0.2037 -0.0013 -0.1824
17136SOL    HW152541   5.481   0.418   4.425  0.2798 -1.2413 -0.5655
17136SOL    HW252542   5.413   0.285   4.451 -1.3235 -0.1941  0.8148
17137SOL     OW52543   2.206   1.175   8.027 -0.3130 -0.0439  0.1229
17137SOL    HW152544   2.248   1.170   8.112 -0.9019 -0.6497  0.3864
17137SOL    HW252545   2.182   1.085   8.006 -0.1515  0.0911 -0.6971
17138SOL     OW52546   1.059   2.158   2.557  0.2911 -1.1174 -0.2376
17138SOL    HW152547   1.099   2.231   2.510 -0.5224 -0.4748  0.0527
17138SOL    HW252548   1.121   2.086   2.546  1.4759 -0.1879  0.0944
17139SOL     OW52549   4.678   8.561   4.368 -0.0915 -0.1079 -0.3838
17139SOL    HW152550   4.724   8.638   4.400  1.0222 -0.5771 -0.7943
17139SOL    HW252551   4.709   8.489   4.423 -1.4299 -0.2054  0.2631
17140SOL     OW52552   6.548   6.211   3.835 -0.1084 -0.2516 -0.2004
17140SOL    HW152553   6.580   6.301   3.836  0.5840 -0.4911  0.4285
17140SOL    HW252554   6.524   6.193   3.926 -1.3668 -0.3195 -0.5369
17141SOL     OW52555   3.274   0.288   6.521 -0.0229 -0.2618  0.3267
17141SOL    HW152556   3.187   0.272   6.557 -0.1779  0.2027  0.1730
17141SOL    HW252557   3.259   0.347   6.447  0.6149  1.6155  1.6261
17142SOL     OW52558   2.070   7.883   2.150 -0.1060 -0.0459  0.4084
17142SOL    HW152559   2.007   7.812   2.162  0.9362 -0.9885  0.4494
17142SOL    HW252560   2.126   7.880   2.227  1.3898 -0.6994 -0.6632
17143SOL     OW52561   4.971   3.092   7.190  0.3549 -0.3211 -0.1972
17143SOL    HW152562   5.027   3.164   7.160  1.4630 -0.4909  1.3850
17143SOL    HW252563   5.021   3.013   7.172 -0.5815 -0.6948 -1.3200
17144SOL     OW52564   6.921   0.620   1.690 -0.5507 -0.0028 -0.0091
17144SOL    HW152565   6.958   0.703   1.719 -0.8632  0.3929 -0.7139
17144SOL    HW252566   6.838   0.644   1.649  0.2148 -0.4427 -1.8917
17145SOL     OW52567   1.210   4.060   6.654  0.2731  0.2579  0.1370
17145SOL    HW152568   1.258   3.977   6.662  0.5478  0.5319  1.4458
17145SOL    HW252569   1.278   4.126   6.639  0.2189  0.4984  0.9285
17146SOL     OW52570   6.989   3.454   1.195 -0.1845  0.1896  0.6599
17146SOL    HW152571   7.007   3.539   1.235 -1.8763  1.2091 -0.6073
17146SOL    HW252572   7.013   3.466   1.103 -2.2241 -0.0351  0.0564
17147SOL     OW52573   6.424   1.916   6.245 -0.1066 -0.2300  0.4936
17147SOL    HW152574   6.355   1.917   6.179  0.1343  0.9625  0.2349
17147SOL    HW252575   6.450   2.008   6.254  0.0707 -0.4031  2.0328
17148SOL     OW52576   0.807   6.573   0.459  0.0145 -0.5521  0.2553
17148SOL    HW152577   0.822   6.526   0.541 -2.0580  1.3584  1.8533
17148SOL    HW252578   0.848   6.659   0.473 -2.5505  0.7378  0.4155
17149SOL     OW52579   2.183   2.776   3.888 -0.1248  0.2678  0.3559
17149SOL    HW152580   2.156   2.833   3.816  0.5964  0.0651 -0.0844
17149SOL    HW252581   2.158   2.823   3.967 -0.6877  0.6139 -0.0242
17150SOL     OW52582   8.465   8.880   0.447  0.3791 -0.2483  0.4771
17150SOL    HW152583   8.410   8.867   0.525  0.1885 -0.8451  0.2503
17150SOL    HW252584   8.546   8.833   0.467  0.4797 -0.0821  0.4650
17151SOL     OW52585   8.241   5.909   1.107  0.2089  0.3485 -0.0480
17151SOL    HW152586   8.216   5.916   1.015 -0.3284 -1.5819 -0.0790
17151SOL    HW252587   8.271   5.819   1.118  1.7764  0.9807  1.3278
17152SOL     OW52588   7.273   5.105   3.281  0.1749  0.2907 -0.0741
17152SOL    HW152589   7.349   5.137   3.231  2.2996 -4.7401 -0.7501
17152SOL    HW252590   7.210   5.080   3.214 -0.2000  0.4246  0.2297
17153SOL     OW52591   1.818   2.593   0.265  0.5940  0.1183 -0.2156
17153SOL    HW152592   1.810   2.513   0.213  0.9336 -0.2431  0.2816
17153SOL    HW252593   1.899   2.635   0.233  0.7617 -0.0645 -0.0288
17154SOL     OW52594   4.147   7.011   6.321 -0.0102 -0.2179  0.2831
17154SOL    HW152595   4.108   6.989   6.405  0.7682  0.4104  0.8310
17154SOL    HW252596   4.241   7.021   6.340  0.2825 -0.8082 -0.8096
17155SOL     OW52597   8.628   6.252   3.044  0.1925  0.1352 -0.7027
17155SOL    HW152598   8.557   6.212   2.994 -1.2990 -0.1418  1.4928
17155SOL    HW252599   8.584   6.295   3.118  2.0165  2.9828 -1.0960
17156SOL     OW52600   8.453   7.404   0.196  0.0366  0.8941 -0.4434
17156SOL    HW152601   8.488   7.479   0.148  0.0518 -0.6330 -3.0095
17156SOL    HW252602   8.439   7.337   0.128  0.7969 -1.7213  1.8133
17157SOL     OW52603   1.205   3.000   6.445 -0.2834  0.2375  0.1355
17157SOL    HW152604   1.198   3.094   6.464  0.6002  0.5345 -0.8357
17157SOL    HW252605   1.118   2.974   6.417 -0.5500  0.7543  0.4701
17158SOL     OW52606   7.725   1.048   3.002  0.2972 -0.1314  0.1887
17158SOL    HW152607   7.784   1.007   2.940 -1.8853 -2.7855 -0.3338
17158SOL    HW252608   7.676   0.975   3.041 -2.3882  1.8291  0.8152
17159SOL     OW52609   1.338   5.145   3.059  0.1487  0.3217  0.5510
17159SOL    HW152610   1.378   5.067   3.021  0.0293  0.2417  0.5909
17159SOL    HW252611   1.346   5.132   3.154 -0.3797  0.0963  0.5656
17160SOL     OW52612   7.419   8.684   3.180  0.4325 -0.1446  0.1636
17160SOL    HW152613   7.455   8.768   3.210 -1.3976  0.1741  1.6473
17160SOL    HW252614   7.373   8.706   3.099  2.0148 -0.2387 -0.8124
17161SOL     OW52615   4.620   3.169   8.514 -0.7169 -0.1639 -0.1647
17161SOL    HW152616   4.627   3.094   8.573 -0.5358  0.9181  1.2553
17161SOL    HW252617   4.663   3.141   8.434 -1.1042 -1.7418  0.1382
17162SOL     OW52618   7.799   9.106   7.167 -0.2498 -0.0941 -0.2258
17162SOL    HW152619   7.826   9.034   7.224  2.1494  1.7341  1.1384
17162SOL    HW252620   7.825   9.078   7.080  0.2042 -1.1119  0.2154
17163SOL     OW52621   7.451   0.985   5.864 -0.0983 -0.7935  0.6719
17163SOL    HW152622   7.509   0.942   5.802 -0.5417  0.8136 -0.9426
17163SOL    HW252623   7.377   1.016   5.811  0.6939  2.9146  1.3962
17164SOL     OW52624   1.035   1.462   2.544 -0.0024 -0.3193 -0.2433
17164SOL    HW152625   1.079   1.436   2.463 -0.5100 -1.1804 -0.2555
17164SOL    HW252626   0.967   1.522   2.516  0.0831 -0.2989 -0.4113
17165SOL     OW52627   4.882   7.973   1.902  0.1154  0.1604  0.1097
17165SOL    HW152628   4.856   7.887   1.934  1.2145 -0.7348 -1.2545
17165SOL    HW252629   4.946   7.954   1.833  0.5079  2.0829 -0.1052
17166SOL     OW52630   7.949   6.726   0.892  0.1334  0.4908  0.5020
17166SOL    HW152631   7.886   6.773   0.837 -0.4433 -1.2277 -0.3770
17166SOL    HW252632   7.953   6.776   0.973 -2.6745  0.4557  0.7448
17167SOL     OW52633   0.661   1.318   1.160  0.6063 -0.7042  0.8072
17167SOL    HW152634   0.566   1.323   1.155  0.6180 -1.2300 -0.5803
17167SOL    HW252635   0.679   1.266   1.238 -0.2454 -0.8507  0.9142
17168SOL     OW52636   5.836   0.326   0.086 -0.3358  0.3862  0.3456
17168SOL    HW152637   5.820   0.393   0.019 -1.1114 -0.1356 -0.0060
17168SOL    HW252638   5.757   0.326   0.140 -0.3920 -0.3135  0.2769
17169SOL     OW52639   5.497   9.045   8.937 -0.4750 -0.0631 -0.1633
17169SOL    HW152640   5.437   9.089   8.877 -1.5129  0.0056  0.8851
17169SOL    HW252641   5.525   8.966   8.889 -0.4811  0.4877 -1.1068
17170SOL     OW52642   7.812   0.468   3.764 -0.2725 -0.2020 -0.6632
17170SOL    HW152643   7.854   0.458   3.679  0.0796  0.5160 -0.5827
17170SOL    HW252644   7.881   0.503   3.820 -1.0618  1.3398 -0.6117
17171SOL     OW52645   1.869   3.942   5.159 -0.5182 -0.8682  0.7549
17171SOL    HW152646   1.961   3.944   5.130 -0.5243 -0.1460  0.7589
17171SOL    HW252647   1.868   3.878   5.229 -0.2418 -1.7048  0.0177
17172SOL     OW52648   2.959   4.229   1.615 -0.2547  0.3879 -0.2899
17172SOL    HW152649   3.023   4.173   1.571 -0.8585 -0.2454 -0.3810
17172SOL    HW252650   3.007   4.309   1.637  1.2206 -0.9889  1.8093
17173SOL     OW52651   3.977   7.094   1.520  0.0200 -0.0674  0.5852
17173SOL    HW152652   4.018   7.038   1.586  0.7720  0.6216  0.7007
17173SOL    HW252653   3.899   7.045   1.493 -1.3273  0.4276  3.2828
17174SOL     OW52654   7.762   6.731   3.311  0.0765 -0.8729 -0.6973
17174SOL    HW152655   7.845   6.724   3.263  0.8653  1.0460  0.2776
17174SOL    HW252656   7.706   6.785   3.255 -0.2925 -1.6328 -1.0656
17175SOL     OW52657   7.022   7.454   7.849  0.0195  0.5191  0.1740
17175SOL    HW152658   7.076   7.479   7.774 -1.8416  1.0564 -1.0637
17175SOL    HW252659   7.064   7.376   7.884  0.7172 -0.0040 -1.7100
17176SOL     OW52660   6.054   4.932   5.772  0.3441  0.0319  0.1045
17176SOL    HW152661   6.029   4.992   5.843 -0.2503 -0.0708 -0.0069
17176SOL    HW252662   5.972   4.919   5.723  0.1623 -1.8227  0.8374
17177SOL     OW52663   2.858   1.816   6.215 -0.1814  0.3844 -0.6921
17177SOL    HW152664   2.919   1.842   6.283  0.2214  0.7645 -1.1935
17177SOL    HW252665   2.794   1.760   6.260 -0.5734  1.5369  0.2118
17178SOL     OW52666   4.713   1.033   2.727  0.3797 -0.2070 -0.2227
17178SOL    HW152667   4.732   0.943   2.702 -0.6781 -0.3614 -0.5470
17178SOL    HW252668   4.656   1.065   2.658 -0.7468  0.1022  0.8061
17179SOL     OW52669   4.857   1.196   8.084 -0.0278 -0.2036 -0.1384
17179SOL    HW152670   4.945   1.229   8.067 -0.3617 -0.4684 -2.7771
17179SOL    HW252671   4.803   1.275   8.089  0.2795 -0.0485  1.3507
17180SOL     OW52672   7.364   7.680   8.893 -0.2952 -0.6643  0.3878
17180SOL    HW152673   7.370   7.742   8.966 -0.6395 -1.6285  1.2661
17180SOL    HW252674   7.295   7.714   8.837 -2.3149 -1.5374  2.1914
17181SOL     OW52675   1.483   6.781   0.358 -0.5736  0.0812  0.1941
17181SOL    HW152676   1.538   6.703   0.364  0.8896  1.0683 -0.0776
17181SOL    HW252677   1.466   6.805   0.449  0.3882  0.4178  0.2881
17182SOL     OW52678   7.397   5.487   8.243  0.8573  0.0501  0.0263
17182SOL    HW152679   7.434   5.416   8.190  1.8553 -0.2532  1.0857
17182SOL    HW252680   7.345   5.444   8.310 -2.1823  0.4952 -1.8689
17183SOL     OW52681   8.362   4.822   4.177  0.0754  0.1124 -0.4973
17183SOL    HW152682   8.359   4.806   4.271  0.4452  0.7721 -0.3610
17183SOL    HW252683   8.280   4.786   4.143  0.1760 -0.5983 -0.0027
17184SOL     OW52684   2.839   9.046   0.937  0.4205 -0.3874  0.9153
17184SOL    HW152685   2.810   9.108   0.869  0.0693 -0.1950  1.2406
17184SOL    HW252686   2.843   9.098   1.017  0.8685 -0.6080  1.0414
17185SOL     OW52687   6.138   5.781   6.102 -0.5134 -0.0340 -0.5838
17185SOL    HW152688   6.051   5.742   6.110 -1.1516  1.4546  0.1298
17185SOL    HW252689   6.130   5.867   6.142  1.2732  0.1908 -0.6050
17186SOL     OW52690   7.839   7.278   4.947 -0.2013 -0.1038  0.1455
17186SOL    HW152691   7.912   7.328   4.983  0.0998 -1.1927  1.1024
17186SOL    HW252692   7.773   7.344   4.926  0.4898  0.7603  0.6200
17187SOL     OW52693   6.774   0.049   0.282  0.0049  0.5685  0.0588
17187SOL    HW152694   6.840   0.090   0.227  0.5244 -0.6691 -0.2679
17187SOL    HW252695   6.813   0.047   0.370  0.5385 -0.4187 -0.1887
17188SOL     OW52696   5.427   0.658   1.294  0.6002 -0.6493 -0.2730
17188SOL    HW152697   5.356   0.673   1.232  1.3192 -0.8829 -1.1603
17188SOL    HW252698   5.484   0.594   1.251  1.1968 -0.6886  0.5517
17189SOL     OW52699   5.180   3.281   6.920 -0.5605  0.2535 -0.0120
17189SOL    HW152700   5.206   3.244   6.836 -0.7735  1.3223 -0.5752
17189SOL    HW252701   5.086   3.299   6.911 -1.0060 -1.3273  1.1359
17190SOL     OW52702   4.551   5.509   6.112  0.3186 -0.0622 -0.3309
17190SOL    HW152703   4.557   5.487   6.205 -0.0998  0.5222 -0.1612
17190SOL    HW252704   4.627   5.565   6.097  0.0370  0.3696 -0.1819
17191SOL     OW52705   2.756   0.023   6.341 -0.2088 -0.9394  0.3167
17191SOL    HW152706   2.666   0.030   6.373 -0.6687 -1.9246 -0.7331
17191SOL    HW252707   2.779   0.113   6.317 -0.6497 -0.5629  1.2398
17192SOL     OW52708   8.507   6.273   2.561 -0.0420 -0.0070 -0.4933
17192SOL    HW152709   8.538   6.353   2.602  0.2622  0.5402 -1.7243
17192SOL    HW252710   8.425   6.253   2.604 -0.2950  1.1705 -0.4000
17193SOL     OW52711   3.287   4.887   1.042  0.0240 -0.3839  0.4840
17193SOL    HW152712   3.315   4.904   0.952  0.1989 -1.8080  0.2362
17193SOL    HW252713   3.193   4.872   1.035 -0.4471  2.0027  0.9525
17194SOL     OW52714   8.649   8.350   1.596  0.1103 -0.3654  0.0568
17194SOL    HW152715   8.601   8.286   1.649  0.4323 -1.1936 -0.6333
17194SOL    HW252716   8.731   8.363   1.644 -0.0576 -0.2712  0.3255
17195SOL     OW52717   3.405   2.174   2.572  0.0007  0.5756  0.0463
17195SOL    HW152718   3.459   2.252   2.569  1.5742 -0.4222  1.1101
17195SOL    HW252719   3.348   2.187   2.648  0.3293  0.6452  0.2809
17196SOL     OW52720   7.405   4.357   8.449  0.3696 -0.6637 -0.0178
17196SOL    HW152721   7.326   4.315   8.482 -0.6599 -0.4661 -2.0454
17196SOL    HW252722   7.443   4.293   8.389  1.6977 -0.7017  0.8356
17197SOL     OW52723   2.093   8.310   6.063 -0.0708 -0.1470  0.2106
17197SOL    HW152724   2.189   8.312   6.059 -0.0429 -0.3727  0.6816
17197SOL    HW252725   2.071   8.370   6.135 -0.2490 -0.5869  0.5302
17198SOL     OW52726   4.509   8.551   7.704 -0.3749  0.2780  0.7529
17198SOL    HW152727   4.416   8.566   7.689 -0.3013  1.1976  1.1334
17198SOL    HW252728   4.548   8.639   7.699  0.3819 -0.0266  1.1690
17199SOL     OW52729   5.889   0.875   4.317  0.4065  0.3110  0.0635
17199SOL    HW152730   5.888   0.781   4.300 -0.3367 -0.0517  1.8134
17199SOL    HW252731   5.830   0.886   4.392 -0.6882  2.3653 -1.0145
17200SOL     OW52732   5.519   4.353   4.494  0.1791  0.5212 -0.6498
17200SOL    HW152733   5.538   4.442   4.524  0.3661  0.3681 -0.3117
17200SOL    HW252734   5.511   4.361   4.399 -2.6331  1.4232 -0.4370
17201SOL     OW52735   6.778   3.577   4.600  0.5869  0.2488 -0.0076
17201SOL    HW152736   6.689   3.541   4.596  0.7115 -0.0895  0.1716
17201SOL    HW252737   6.785   3.614   4.688  0.0120  1.9196 -0.6333
17202SOL     OW52738   5.285   6.392   0.487 -0.6301 -0.2881 -0.2177
17202SOL    HW152739   5.353   6.365   0.549 -0.0447  0.4296 -0.5250
17202SOL    HW252740   5.204   6.353   0.521  0.2259 -3.0434 -1.0159
17203SOL     OW52741   1.257   8.315   5.674  0.1585  0.3251  0.1856
17203SOL    HW152742   1.223   8.233   5.709 -0.7443  1.1508  1.3282
17203SOL    HW252743   1.232   8.314   5.582 -3.8627  1.2307  1.0801
17204SOL     OW52744   8.943   7.920   8.646 -0.0105 -0.5793 -0.0385
17204SOL    HW152745   8.921   7.833   8.613 -0.3425 -1.1311  1.5302
17204SOL    HW252746   8.860   7.968   8.645 -0.4880 -1.2832  1.8917
17205SOL     OW52747   5.225   8.384   3.802  0.2144 -0.0662  0.2896
17205SOL    HW152748   5.177   8.309   3.836 -1.0478  0.8803  0.6645
17205SOL    HW252749   5.275   8.349   3.728  0.1318 -1.3871  0.8392
17206SOL     OW52750   2.520   4.464   8.697  0.1159  0.0305  0.2365
17206SOL    HW152751   2.568   4.529   8.748 -1.2644  0.3698  1.1314
17206SOL    HW252752   2.563   4.381   8.719 -1.3519 -0.0485  3.1649
17207SOL     OW52753   5.747   1.289   7.346  0.6765 -0.2457 -0.3093
17207SOL    HW152754   5.688   1.359   7.373  1.2001  0.2973 -0.5765
17207SOL    HW252755   5.691   1.229   7.297 -0.1728 -0.9252  1.3725
17208SOL     OW52756   6.906   1.876   4.273  1.0736  0.5147  0.3789
17208SOL    HW152757   6.926   1.883   4.367  1.4830  0.4757  0.2978
17208SOL    HW252758   6.972   1.816   4.239 -1.5204 -2.8432  0.7831
17209SOL     OW52759   1.593   4.622   1.878  0.2874  0.3466 -0.3409
17209SOL    HW152760   1.536   4.696   1.900  1.0600  0.9973 -0.4535
17209SOL    HW252761   1.634   4.648   1.795 -0.9520 -1.1121 -1.4439
17210SOL     OW52762   5.382   7.294   0.274  0.2078  0.1152 -0.5081
17210SOL    HW152763   5.358   7.377   0.231  0.9413  0.1200 -0.9360
17210SOL    HW252764   5.459   7.265   0.226  0.9825  0.0480  0.7356
17211SOL     OW52765   6.125   3.620   3.684  0.3081  0.0947  0.6241
17211SOL    HW152766   6.140   3.688   3.618  0.7201  0.5750  1.2059
17211SOL    HW252767   6.186   3.550   3.660 -1.1824 -0.7639 -0.8928
17212SOL     OW52768   7.175   2.302   0.449 -0.1386  0.6410 -0.1733
17212SOL    HW152769   7.258   2.254   0.440 -0.5491 -0.1386  0.0530
17212SOL    HW252770   7.135   2.296   0.363 -0.4581  0.0477  0.0085
17213SOL     OW52771   7.995   3.486   0.712  0.1570  0.3336 -0.3485
17213SOL    HW152772   8.036   3.524   0.790  0.2882  0.2462 -0.3735
17213SOL    HW252773   8.067   3.479   0.648 -0.2895  1.9373 -1.0640
17214SOL     OW52774   8.585   8.495   0.181  0.0109  0.5143 -0.0698
17214SOL    HW152775   8.548   8.491   0.092 -0.4791  0.0881  0.1457
17214SOL    HW252776   8.509   8.490   0.239  0.3852 -0.0911  0.3807
17215SOL     OW52777   5.867   2.330   1.625  0.1251  0.3089 -0.8871
17215SOL    HW152778   5.947   2.280   1.642 -0.3006 -0.7602 -1.9086
17215SOL    HW252779   5.796   2.271   1.650 -0.3619  1.1303 -0.2879
17216SOL     OW52780   6.755   2.252   8.166 -0.3533  0.1797 -0.3240
17216SOL    HW152781   6.832   2.195   8.154 -1.1235 -0.7867 -0.8387
17216SOL    HW252782   6.735   2.283   8.078 -0.9453 -0.1013 -0.2915
17217SOL     OW52783   3.826   5.028   1.476  0.4591 -0.3724  0.2819
17217SOL    HW152784   3.744   4.981   1.463  1.6448 -2.3965 -0.3011
17217SOL    HW252785   3.800   5.120   1.487 -1.8958 -1.0510  0.7909
17218SOL     OW52786   9.046   4.772   2.402 -0.0261  0.4779  0.4781
17218SOL    HW152787   9.007   4.796   2.486 -0.6057 -2.3392  1.1095
17218SOL    HW252788   9.124   4.721   2.425  0.0771  0.0627 -0.6877
17219SOL     OW52789   1.700   3.076   5.172  0.0614  0.0509  0.3105
17219SOL    HW152790   1.635   3.010   5.148  2.2984 -2.1783 -0.0565
17219SOL    HW252791   1.650   3.157   5.182 -2.9450 -1.7714  1.3526
17220SOL     OW52792   4.454   6.629   0.904  0.3760  0.6803 -0.5217
17220SOL    HW152793   4.425   6.681   0.979 -1.0564 -0.5325 -0.1950
17220SOL    HW252794   4.521   6.683   0.862  0.7743  1.6555  1.2600
17221SOL     OW52795   5.825   5.698   9.110  0.2862 -0.1269 -0.3634
17221SOL    HW152796   5.751   5.742   9.154  1.2426 -1.1257  2.4869
17221SOL    HW252797   5.902   5.745   9.142  1.0400 -0.8419 -1.1057
17222SOL     OW52798   7.409   3.798   6.303 -0.1984  0.8382 -0.0213
17222SOL    HW152799   7.461   3.731   6.259 -0.2738  1.7421 -1.5393
17222SOL    HW252800   7.460   3.822   6.380  0.1515 -0.4579  0.1708
17223SOL     OW52801   3.773   0.010   8.281  0.1132  0.2757  0.5933
17223SOL    HW152802   3.742   0.022   8.191  2.5178 -0.8912 -0.5138
17223SOL    HW252803   3.767   0.096   8.321  0.4449  1.1996 -1.2402
17224SOL     OW52804   7.816   8.935   5.748 -0.0067  0.4327  0.0113
17224SOL    HW152805   7.895   8.901   5.706  0.1988  1.0647 -0.1187
17224SOL    HW252806   7.835   9.027   5.763 -0.9353  0.7182 -0.5322
17225SOL     OW52807   3.471   1.388   3.286 -0.2316 -0.0245 -0.4109
17225SOL    HW152808   3.533   1.342   3.230 -1.7945 -1.1051 -1.3320
17225SOL    HW252809   3.399   1.413   3.227 -1.9113 -1.1541  1.0557
17226SOL     OW52810   7.163   7.431   3.224  0.4660 -0.4700  0.0292
17226SOL    HW152811   7.149   7.380   3.303 -0.6265  2.0891  1.5862
17226SOL    HW252812   7.251   7.468   3.234  0.5854 -0.6519 -0.2974
17227SOL     OW52813   6.578   3.035   5.865 -0.2851  1.1066  0.0175
17227SOL    HW152814   6.530   2.953   5.854 -0.5572  1.1409  0.9402
17227SOL    HW252815   6.666   3.015   5.831 -0.8902  1.0244 -1.6030
17228SOL     OW52816   6.527   8.456   8.169 -0.3944 -0.0887 -0.5312
17228SOL    HW152817   6.469   8.415   8.104 -0.2490 -1.5494  0.2204
17228SOL    HW252818   6.594   8.391   8.187  1.6663  1.6453 -1.5218
17229SOL     OW52819   2.873   3.691   2.179  0.0469  0.1639 -0.0463
17229SOL    HW152820   2.804   3.630   2.205  1.1722 -1.0809  0.1260
17229SOL    HW252821   2.857   3.706   2.086  1.0624 -2.2663 -0.7037
17230SOL     OW52822   2.760   4.070   2.697 -0.5014  0.0572  0.0547
17230SOL    HW152823   2.752   4.090   2.791  0.8968 -0.2114  0.2575
17230SOL    HW252824   2.766   4.155   2.655  1.8651  0.1973  0.5474
17231SOL     OW52825   8.464   8.777   6.415 -1.2457 -0.0511 -0.1192
17231SOL    HW152826   8.391   8.830   6.447  0.9423  1.5220  2.6915
17231SOL    HW252827   8.445   8.688   6.447 -2.4320  0.0606 -0.4486
17232SOL     OW52828   5.857   1.660   2.028  0.1829 -0.4012 -0.3504
17232SOL    HW152829   5.781   1.616   1.989  1.2935 -0.8529 -2.1068
17232SOL    HW252830   5.930   1.601   2.011  0.9808  0.0766  1.2181
17233SOL     OW52831   3.348   7.637   1.414 -0.0612  0.0461  0.4002
17233SOL    HW152832   3.388   7.723   1.429  0.0129  0.0695  0.0866
17233SOL    HW252833   3.355   7.624   1.320 -0.8149  0.0531  0.3389
17234SOL     OW52834   8.736   3.329   3.305 -0.0264 -0.7404  0.4470
17234SOL    HW152835   8.692   3.402   3.262 -0.0105  0.7453  2.8206
17234SOL    HW252836   8.813   3.312   3.251 -1.1187 -0.4234 -1.2780
17235SOL     OW52837   0.823   6.539   0.054  0.5687 -0.0830 -0.1702
17235SOL    HW152838   0.803   6.611  -0.005  1.5059 -0.1650 -0.6119
17235SOL    HW252839   0.905   6.564   0.096 -0.0403 -0.0645  1.0491
17236SOL     OW52840   8.840   5.645   1.590  0.6141 -0.4687 -0.6093
17236SOL    HW152841   8.902   5.613   1.655  0.1781 -0.9413 -0.4236
17236SOL    HW252842   8.870   5.607   1.507 -0.0886 -1.6375 -0.3423
17237SOL     OW52843   0.067   4.488   5.538 -0.7056  0.3857  0.7633
17237SOL    HW152844  -0.021   4.470   5.505 -0.6819  0.9777  0.3615
17237SOL    HW252845   0.070   4.583   5.549  0.1366  0.4612  0.0281
17238SOL     OW52846   3.392   6.352   4.647  0.1612 -0.5766  0.1116
17238SOL    HW152847   3.335   6.426   4.667  1.5477  0.9186 -1.2264
17238SOL    HW252848   3.331   6.278   4.635 -1.5131  0.9151 -1.1546
17239SOL     OW52849   0.884   8.838   1.901 -0.1106  0.0984 -0.2847
17239SOL    HW152850   0.824   8.809   1.832 -0.3104 -0.8243  0.2532
17239SOL    HW252851   0.830   8.840   1.980  0.3350  0.2512  0.0165
17240SOL     OW52852   1.796   5.362   5.295 -0.4993  0.2401 -0.3466
17240SOL    HW152853   1.806   5.342   5.202  1.0556 -1.2937  0.1028
17240SOL    HW252854   1.718   5.313   5.322  0.1094 -0.8516 -0.4801
17241SOL     OW52855   4.183   5.285   4.572 -0.3667 -0.3905  0.3588
17241SOL    HW152856   4.229   5.369   4.574 -0.8302 -0.1101 -0.4692
17241SOL    HW252857   4.235   5.229   4.629 -0.1337  0.4984  1.0552
17242SOL     OW52858   3.908   6.417   1.231  0.8897 -0.3685 -0.4155
17242SOL    HW152859   3.955   6.352   1.283  2.2205  1.2500  0.5086
17242SOL    HW252860   3.864   6.472   1.296 -1.0157 -0.8496 -1.2112
17243SOL     OW52861   6.779   3.708   1.341  0.6019  0.2262 -0.5776
17243SOL    HW152862   6.775   3.799   1.314  2.5005 -0.2810 -2.9752
17243SOL    HW252863   6.696   3.670   1.314  0.6908  0.7813 -1.6716
17244SOL     OW52864   4.765   6.681   2.964 -0.1958 -0.1734 -0.1429
17244SOL    HW152865   4.843   6.709   2.916  0.4655 -0.4725  0.7417
17244SOL    HW252866   4.756   6.744   3.034 -0.4917 -0.3996  0.0247
17245SOL     OW52867   2.609   1.120   1.014  0.0865 -0.3073  0.5405
17245SOL    HW152868   2.669   1.195   1.014  0.6926 -0.7774  1.2426
17245SOL    HW252869   2.525   1.156   1.042  0.3131  0.1504  0.6384
17246SOL     OW52870   5.935   3.019   0.030  0.4330 -0.1933  0.1150
17246SOL    HW152871   5.981   2.935   0.027 -0.5553 -0.7343 -0.2614
17246SOL    HW252872   5.843   2.996   0.038  0.0827  0.8356 -0.6848
17247SOL     OW52873   0.738   8.182   5.860  0.8247 -0.6805  0.3452
17247SOL    HW152874   0.774   8.240   5.927  1.7111 -2.4081  1.4443
17247SOL    HW252875   0.815   8.138   5.823  0.2492 -0.5428 -1.0930
17248SOL     OW52876   6.458   0.025   4.508 -0.2862 -0.0854  0.6690
17248SOL    HW152877   6.367  -0.004   4.518 -0.6065  0.6920  0.1422
17248SOL    HW252878   6.510  -0.048   4.542 -1.0062 -1.6581 -1.3545
17249SOL     OW52879   4.726   2.353   3.714 -0.5654 -0.0194 -0.2295
17249SOL    HW152880   4.675   2.284   3.672 -0.1372 -0.7056  0.3486
17249SOL    HW252881   4.662   2.420   3.736 -1.5444 -1.4994  1.8223
17250SOL     OW52882   5.041   6.792   5.223  0.0232 -0.6163 -0.2304
17250SOL    HW152883   5.041   6.887   5.209  0.6160 -0.3145  1.5608
17250SOL    HW252884   5.133   6.770   5.235  0.1035 -1.7685 -2.4540
17251SOL     OW52885   6.049   7.366   3.653 -0.7673 -0.7358  0.1363
17251SOL    HW152886   5.981   7.427   3.624 -0.1351  1.1159  2.2859
17251SOL    HW252887   6.007   7.315   3.723 -0.3409 -0.4390  0.6170
17252SOL     OW52888   5.278   8.583   3.539  0.5713 -0.2256 -0.3395
17252SOL    HW152889   5.336   8.575   3.464  0.7772  0.5916 -0.2708
17252SOL    HW252890   5.337   8.597   3.613  0.2615  1.4043 -0.3803
17253SOL     OW52891   6.438   0.268   0.252  0.2568  0.2423 -0.3571
17253SOL    HW152892   6.435   0.234   0.341 -0.4054  1.6658  0.1841
17253SOL    HW252893   6.347   0.289   0.231  0.6349  1.6107 -0.6898
17254SOL     OW52894   4.248   3.343   3.141  0.1557 -0.1395  0.5497
17254SOL    HW152895   4.226   3.257   3.106 -0.6683  0.1393  0.3498
17254SOL    HW252896   4.194   3.404   3.090  1.1122  0.5460  0.3350
17255SOL     OW52897   2.932   5.965   3.485  1.1288  0.2526  0.0246
17255SOL    HW152898   2.968   5.956   3.397 -1.8895 -2.0235 -1.1524
17255SOL    HW252899   2.850   6.012   3.472  0.2345 -0.8542  1.4827
17256SOL     OW52900   5.908   7.314   5.113  0.3805  0.1511 -0.2128
17256SOL    HW152901   5.837   7.378   5.115  1.9012  1.9123  1.9136
17256SOL    HW252902   5.988   7.366   5.113  1.6978 -1.7581 -0.3083
17257SOL     OW52903   8.592   2.950   0.323  0.2714  0.4452  0.3801
17257SOL    HW152904   8.511   2.900   0.320  0.9898 -0.7096 -0.9533
17257SOL    HW252905   8.572   3.032   0.277  0.1026 -0.2608 -0.8515
17258SOL     OW52906   2.740   6.408   4.253  0.1656 -0.7603  0.1617
17258SOL    HW152907   2.802   6.352   4.207 -1.2514 -1.9616 -0.3376
17258SOL    HW252908   2.737   6.373   4.342  2.5486  1.2755  1.1974
17259SOL     OW52909   7.804   5.781   5.759  0.7480 -0.3216 -0.4565
17259SOL    HW152910   7.836   5.694   5.735  0.3395 -0.6172  0.0607
17259SOL    HW252911   7.715   5.784   5.726  1.8267  1.2483 -3.7621
17260SOL     OW52912   9.075   5.333   8.775 -0.4377 -0.0677 -0.2064
17260SOL    HW152913   9.101   5.322   8.684 -0.1433  1.9862 -0.4224
17260SOL    HW252914   8.990   5.290   8.782 -0.9723  0.6806 -1.7542
17261SOL     OW52915   1.431   3.176   1.071  0.2424 -0.0693 -0.2486
17261SOL    HW152916   1.454   3.214   0.986  0.9271 -1.0696 -0.5282
17261SOL    HW252917   1.352   3.125   1.053 -1.3684  2.0606  0.3687
17262SOL     OW52918   3.814   4.420   5.457  0.4413  0.1079  0.4690
17262SOL    HW152919   3.850   4.344   5.412  1.4896 -0.4745  2.1972
17262SOL    HW252920   3.730   4.436   5.414  2.7492  1.8982 -4.2213
17263SOL     OW52921   7.875   6.471   4.276 -0.0898  0.6547 -0.0002
17263SOL    HW152922   7.813   6.413   4.321  0.8005 -0.5054 -0.2402
17263SOL    HW252923   7.870   6.445   4.184  1.5132 -0.1978  0.1224
17264SOL     OW52924   2.193   5.420   2.625  0.4016 -0.6463  0.5499
17264SOL    HW152925   2.131   5.400   2.555  2.5204 -3.7289 -0.6179
17264SOL    HW252926   2.273   5.445   2.580  0.9704  0.2159  1.9719
17265SOL     OW52927   3.932   5.968   6.831  0.0441  0.6908  0.4927
17265SOL    HW152928   3.983   6.044   6.859 -1.4716  1.6215  0.9009
17265SOL    HW252929   3.841   5.997   6.840 -0.5632 -1.0373  0.2149
17266SOL     OW52930   1.748   6.011   4.112  0.0368  0.0477  0.2422
17266SOL    HW152931   1.687   6.003   4.185 -0.3155  0.7150  0.0251
17266SOL    HW252932   1.692   6.015   4.034  0.3954 -0.2622 -0.0362
17267SOL     OW52933   0.827   1.698   4.904 -0.3303 -0.0736 -0.6039
17267SOL    HW152934   0.878   1.695   4.823  0.5228  1.4354 -0.1621
17267SOL    HW252935   0.890   1.724   4.971 -1.1905 -0.5213  0.4102
17268SOL     OW52936   8.494   3.564   2.537 -0.4449  0.2734 -0.0923
17268SOL    HW152937   8.468   3.642   2.585 -2.4027 -0.3043 -0.1181
17268SOL    HW252938   8.579   3.585   2.501 -0.4041  1.9481  0.8821
17269SOL     OW52939   1.465   1.614   4.608  0.2408 -0.0437 -0.6918
17269SOL    HW152940   1.380   1.605   4.564 -0.0248  0.3271 -0.2580
17269SOL    HW252941   1.463   1.549   4.678  0.4041 -0.1804 -0.8118
17270SOL     OW52942   7.355   8.138   0.437  0.2307 -0.2515  0.3008
17270SOL    HW152943   7.273   8.091   0.453 -0.8520  1.9701  1.9180
17270SOL    HW252944   7.339   8.226   0.472  2.6570  0.8642 -1.1282
17271SOL     OW52945   0.480   2.194   5.310 -0.0052 -0.4219 -0.3223
17271SOL    HW152946   0.534   2.268   5.340 -0.8087 -0.2789  0.8265
17271SOL    HW252947   0.404   2.195   5.368 -0.1566 -2.0034 -0.4637
17272SOL     OW52948   6.484   1.850   2.252  0.5936  0.0620  0.1035
17272SOL    HW152949   6.518   1.904   2.324 -0.6174  1.0025  0.0129
17272SOL    HW252950   6.393   1.834   2.277  0.4393 -0.4303 -0.7637
17273SOL     OW52951   1.272   0.395   4.361  1.1202  0.2104  0.2713
17273SOL    HW152952   1.363   0.403   4.333  1.4794  1.6686  1.7116
17273SOL    HW252953   1.258   0.471   4.418 -1.7761  1.5243 -1.9359
17274SOL     OW52954   7.254   4.938   6.760 -0.6865  0.3931 -0.1364
17274SOL    HW152955   7.261   4.938   6.855  0.1983  0.8151 -0.1922
17274SOL    HW252956   7.218   4.852   6.738  1.8054 -0.8893  0.3968
17275SOL     OW52957   6.038   8.979   7.246  0.1345  0.6293  0.0884
17275SOL    HW152958   6.042   9.072   7.267 -0.3866  0.5288  0.6217
17275SOL    HW252959   5.967   8.944   7.299 -0.5497  0.1819 -1.0833
17276SOL     OW52960   5.161   2.960   0.352 -0.0898  0.0540  0.3456
17276SOL    HW152961   5.213   2.880   0.353  0.0663  0.1570  0.4490
17276SOL    HW252962   5.220   3.028   0.382  0.2510  0.5180 -1.3019
17277SOL     OW52963   7.254   7.930   7.880 -0.1554  0.2048  0.3013
17277SOL    HW152964   7.216   7.859   7.931 -0.9034 -0.3976 -1.0556
17277SOL    HW252965   7.210   8.009   7.911 -0.6075 -0.1564  0.5729
17278SOL     OW52966   7.637   2.544   1.628  0.7170 -0.3622 -0.7014
17278SOL    HW152967   7.634   2.629   1.670 -1.1235 -0.4775 -0.5459
17278SOL    HW252968   7.710   2.498   1.672 -0.1760  0.0561  1.3229
17279SOL     OW52969   6.850   6.857   3.980  0.2512  0.2120  0.1043
17279SOL    HW152970   6.772   6.801   3.989  1.4532 -1.4243  1.0074
17279SOL    HW252971   6.853   6.907   4.061 -0.1963  0.7568 -0.2094
17280SOL     OW52972   8.730   1.317   7.565 -0.0656 -0.0201 -0.1006
17280SOL    HW152973   8.666   1.373   7.610  0.1770 -1.2740  1.9750
17280SOL    HW252974   8.700   1.314   7.474 -1.0301  2.0709  0.0931
17281SOL     OW52975   8.098   1.119   4.027 -0.3483  0.1659 -0.1819
17281SOL    HW152976   8.093   1.180   4.101 -2.7626 -1.8028  1.3954
17281SOL    HW252977   8.029   1.055   4.043 -1.8526  0.2840 -4.7793
17282SOL     OW52978   5.639   8.100   4.875 -0.3499  0.2879 -0.9741
17282SOL    HW152979   5.626   8.064   4.788 -2.3572  1.0912 -1.0703
17282SOL    HW252980   5.646   8.195   4.861 -0.1793  0.3792 -0.3022
17283SOL     OW52981   5.626   0.441   2.866  0.3758  0.6414 -0.3675
17283SOL    HW152982   5.610   0.412   2.956  0.2245  1.8190  0.0018
17283SOL    HW252983   5.704   0.495   2.871  0.0454  1.1839 -0.8406
17284SOL     OW52984   5.349   7.116   4.914 -0.2738 -0.0552 -0.9295
17284SOL    HW152985   5.394   7.157   4.840  0.1854 -0.1699 -0.7229
17284SOL    HW252986   5.413   7.120   4.985 -0.7606  0.1847 -0.4963
17285SOL     OW52987   4.420   3.403   5.430  0.1628 -0.3631  0.2126
17285SOL    HW152988   4.442   3.496   5.419 -0.3942  0.0590  2.2273
17285SOL    HW252989   4.501   3.363   5.463  0.0224 -0.3279  0.5964
17286SOL     OW52990   1.170   4.996   7.152 -0.9112  0.1184 -0.2271
17286SOL    HW152991   1.138   4.994   7.061 -1.4057  0.3733 -0.0646
17286SOL    HW252992   1.090   5.005   7.205 -0.5662  0.7948  0.1899
17287SOL     OW52993   2.077   2.122   7.729  0.9030  0.3324  0.4812
17287SOL    HW152994   2.082   2.179   7.806  1.0533  0.0702  0.6668
17287SOL    HW252995   2.028   2.045   7.759 -2.0248  1.6473 -0.5756
17288SOL     OW52996   3.920   6.380   5.662 -0.0213 -0.1002  0.1189
17288SOL    HW152997   3.932   6.418   5.749  0.2591 -1.3566  0.6615
17288SOL    HW252998   3.850   6.432   5.622 -0.1140  0.5317  1.0715
17289SOL     OW52999   6.636   1.479   8.135 -0.3889 -0.5574  0.5493
17289SOL    HW153000   6.721   1.436   8.133  1.0148  1.9942 -0.7998
17289SOL    HW253001   6.637   1.533   8.214 -1.2896 -1.4100  1.1673
17290SOL     OW53002   1.531   2.922   2.166  0.0620  0.2106 -0.0961
17290SOL    HW153003   1.590   2.865   2.116  0.3277  0.1738  0.2555
17290SOL    HW253004   1.589   2.973   2.223 -0.1636  0.9215 -0.4958
17291SOL     OW53005   3.728   3.134   1.796 -0.7550  0.2470 -0.1173
17291SOL    HW153006   3.766   3.206   1.845 -1.3875 -0.0537  0.8503
17291SOL    HW253007   3.690   3.175   1.718 -0.9528  0.9297  0.3331
17292SOL     OW53008   7.686   1.041   6.445  0.0905  0.6658  0.1086
17292SOL    HW153009   7.744   0.985   6.394 -0.5713  0.9286 -0.9587
17292SOL    HW253010   7.705   1.130   6.413 -3.4252  0.5032 -2.9879
17293SOL     OW53011   6.402   5.060   5.514  0.2217  0.1779  0.3161
17293SOL    HW153012   6.342   5.102   5.452  0.5294 -0.9310 -0.7660
17293SOL    HW253013   6.470   5.126   5.530  0.8969  0.0291 -1.6454
17294SOL     OW53014   6.114   3.833   6.413  0.2532  0.2488  0.4249
17294SOL    HW153015   6.159   3.917   6.418 -2.4030  1.7150  1.3280
17294SOL    HW253016   6.089   3.813   6.503 -0.2979 -0.8587  0.0487
17295SOL     OW53017   4.950   0.587   8.151  0.1577  1.0163  0.1221
17295SOL    HW153018   4.914   0.651   8.214  0.8956  1.4106  0.1469
17295SOL    HW253019   5.035   0.562   8.188 -0.4522 -0.6013  0.5325
17296SOL     OW53020   0.372   5.415   0.235  0.0153  0.2727  0.1984
17296SOL    HW153021   0.372   5.509   0.255  0.2002  0.3343 -0.0769
17296SOL    HW253022   0.349   5.373   0.317 -0.4570  0.5804  0.2321
17297SOL     OW53023   1.054   1.152   3.123  0.1140  0.1405 -0.5578
17297SOL    HW153024   1.122   1.214   3.145 -0.5614  0.2226  1.4683
17297SOL    HW253025   1.099   1.082   3.075  1.1101  1.4591 -1.6167
17298SOL     OW53026   3.547   2.090   3.290  0.0639 -0.1967 -0.4563
17298SOL    HW153027   3.603   2.167   3.294  0.7769 -0.7510  0.8865
17298SOL    HW253028   3.595   2.022   3.337 -1.5201 -0.8379  0.3410
17299SOL     OW53029   7.949   2.630   0.855  0.4954  0.9881  0.4440
17299SOL    HW153030   8.023   2.652   0.798 -0.1085  1.1969 -0.2737
17299SOL    HW253031   7.944   2.705   0.915  0.5278  1.2387  0.1415
17300SOL     OW53032   2.495   2.081   5.659  0.9734  0.2493 -0.3704
17300SOL    HW153033   2.557   2.123   5.718  1.9163 -0.2635 -0.9740
17300SOL    HW253034   2.523   1.990   5.655  1.1390  0.3395 -1.8620
17301SOL     OW53035   2.655   8.594   8.239  0.1480  0.0508  0.1408
17301SOL    HW153036   2.592   8.665   8.220 -0.1809 -0.5280 -1.0219
17301SOL    HW253037   2.735   8.622   8.195  0.3834  0.2781  0.7149
17302SOL     OW53038   3.135   6.574   0.114 -0.6459  0.0642  0.1482
17302SOL    HW153039   3.204   6.560   0.049 -1.8694 -0.3408 -1.1115
17302SOL    HW253040   3.182   6.591   0.195  0.9391  0.9021 -0.8975
17303SOL     OW53041   0.643   6.898   2.946  0.4014  0.0809 -0.0959
17303SOL    HW153042   0.701   6.895   2.870 -0.2447 -1.3310 -0.5559
17303SOL    HW253043   0.603   6.985   2.943  1.2583  0.4606 -0.6983
17304SOL     OW53044   0.846   8.710   0.409 -0.0464  0.1341 -0.1816
17304SOL    HW153045   0.780   8.779   0.398 -1.6780 -1.3596 -0.0871
17304SOL    HW253046   0.898   8.739   0.483 -1.1920  0.9158  0.3503
17305SOL     OW53047   3.827   5.768   3.240 -0.5098  0.4543 -0.3596
17305SOL    HW153048   3.863   5.746   3.154  0.0652  0.1711 -0.0535
17305SOL    HW253049   3.872   5.709   3.300 -1.9268 -0.3459 -0.0243
17306SOL     OW53050   1.386   8.331   6.770  0.2926  0.1292  0.0949
17306SOL    HW153051   1.461   8.316   6.713 -0.0247 -1.0626 -0.0284
17306SOL    HW253052   1.401   8.276   6.846 -1.2077 -1.4499 -0.6632
17307SOL     OW53053   4.869   3.692   7.030  0.0156  1.1050  0.1480
17307SOL    HW153054   4.836   3.780   7.047 -0.8819  0.8076  0.0343
17307SOL    HW253055   4.799   3.634   7.062  0.0219  0.4652 -0.9372
17308SOL     OW53056   2.814   5.821   6.528  0.1604  0.3758  0.2025
17308SOL    HW153057   2.791   5.914   6.531 -1.4551 -0.0137  1.2078
17308SOL    HW253058   2.880   5.810   6.596 -0.7003  0.5347  1.0759
17309SOL     OW53059   3.823   7.020   5.406 -0.4739 -0.2077  0.1918
17309SOL    HW153060   3.865   6.960   5.345  0.6910  1.2482 -0.5134
17309SOL    HW253061   3.889   7.035   5.475  0.3987  2.2940 -1.0596
17310SOL     OW53062   8.971   0.060   4.527  0.1192  0.3795 -0.4632
17310SOL    HW153063   8.909   0.132   4.541 -3.3902 -2.2754 -0.7400
17310SOL    HW253064   9.035   0.069   4.597 -1.4650  2.4882  0.8416
17311SOL     OW53065   4.583   2.054   5.544 -0.0569  0.2489 -0.0666
17311SOL    HW153066   4.639   2.075   5.469 -0.1139 -1.7335 -0.7177
17311SOL    HW253067   4.632   1.989   5.594 -0.6017  0.5571  0.9083
17312SOL     OW53068   4.731   3.695   0.532  0.7887  0.5714  0.1693
17312SOL    HW153069   4.689   3.775   0.564 -0.7929 -0.1438 -0.0417
17312SOL    HW253070   4.798   3.726   0.471 -0.9759  1.7267 -1.2962
17313SOL     OW53071   7.932   6.622   2.471  0.4217  0.1949 -0.6469
17313SOL    HW153072   7.941   6.530   2.494 -0.5950  0.4386  0.8384
17313SOL    HW253073   7.838   6.637   2.464  0.5639  1.1701 -0.7071
17314SOL     OW53074   6.273   3.682   7.925 -0.6450 -0.1988  0.4466
17314SOL    HW153075   6.209   3.741   7.885  0.4871  0.2295 -0.8090
17314SOL    HW253076   6.344   3.677   7.861  0.8129 -0.2708  2.0016
17315SOL     OW53077   6.669   3.638   0.412 -0.2843 -0.1635  0.1188
17315SOL    HW153078   6.662   3.673   0.323 -1.7030 -0.9501 -0.1143
17315SOL    HW253079   6.706   3.550   0.399 -0.9547 -0.4674  0.2530
17316SOL     OW53080   1.306   6.499   5.740  0.2720  0.4161  0.0646
17316SOL    HW153081   1.333   6.590   5.744  1.9397  0.0636 -1.7914
17316SOL    HW253082   1.251   6.493   5.662 -0.9911  0.0768  0.9470
17317SOL     OW53083   2.310   2.277   2.622  0.0076  0.1956  0.2835
17317SOL    HW153084   2.371   2.204   2.626  1.2230  1.1811  0.2121
17317SOL    HW253085   2.225   2.236   2.604  0.9015 -1.0787 -1.2424
17318SOL     OW53086   1.989   5.679   4.865  0.0261  0.2730 -0.1293
17318SOL    HW153087   1.998   5.637   4.951 -0.6478 -1.0301 -0.6675
17318SOL    HW253088   2.016   5.612   4.803  1.7685  1.6203 -0.9217
17319SOL     OW53089   6.533   4.773   2.241  0.6668 -0.2316 -0.4627
17319SOL    HW153090   6.579   4.689   2.247 -0.3100 -1.0266 -3.0275
17319SOL    HW253091   6.587   4.833   2.293  3.0891 -1.7487 -1.0513
17320SOL     OW53092   8.905   3.141   6.905 -0.2541 -0.0012 -0.1869
17320SOL    HW153093   8.925   3.183   6.821  1.4985  0.7489  0.5489
17320SOL    HW253094   8.966   3.068   6.911 -1.8617 -1.4196 -0.5090
17321SOL     OW53095   5.121   8.001   4.322  0.5351  0.2177  0.1516
17321SOL    HW153096   5.214   8.008   4.301  0.4431  4.1714  0.2019
17321SOL    HW253097   5.078   7.988   4.238  1.0512  0.0696 -0.0898
17322SOL     OW53098   2.918   3.219   0.617 -0.3706 -0.0909 -0.3857
17322SOL    HW153099   2.839   3.271   0.606 -0.6383 -0.3199  0.3599
17322SOL    HW253100   2.982   3.258   0.557 -1.3041 -0.4557 -1.6701
17323SOL     OW53101   2.133   8.187   1.494  0.3092 -0.9587 -0.3115
17323SOL    HW153102   2.136   8.095   1.468  0.0176 -1.2099  0.5036
17323SOL    HW253103   2.199   8.194   1.563 -1.0743 -1.0705  1.1031
17324SOL     OW53104   5.598   6.224   2.394  0.1370  0.1138 -0.3892
17324SOL    HW153105   5.685   6.184   2.396 -0.1746 -0.5240  1.1659
17324SOL    HW253106   5.540   6.157   2.428 -0.6415  1.2816  0.6701
17325SOL     OW53107   0.134   0.238   7.004 -0.3969  0.1770  0.5846
17325SOL    HW153108   0.104   0.324   7.031 -2.0954 -0.6961  1.6997
17325SOL    HW253109   0.221   0.229   7.043  0.4036  1.8739 -0.7012
17326SOL     OW53110   7.347   2.316   4.169 -0.4406 -0.0547 -0.2552
17326SOL    HW153111   7.396   2.245   4.127 -1.0031 -1.0683  0.7244
17326SOL    HW253112   7.262   2.316   4.124 -0.2556  0.3515 -0.6061
17327SOL     OW53113   3.528   4.952   4.739  0.4585 -0.0620  0.6544
17327SOL    HW153114   3.570   5.007   4.805  1.4631 -2.2253  1.9291
17327SOL    HW253115   3.597   4.893   4.710 -0.8921 -1.5629  0.3633
17328SOL     OW53116   4.695   1.190   5.764  0.0888 -0.5186 -0.2710
17328SOL    HW153117   4.690   1.220   5.674 -0.0867  0.0101 -0.0889
17328SOL    HW253118   4.711   1.269   5.815 -0.9263 -0.6363  0.2735
17329SOL     OW53119   5.625   6.654   4.229 -0.1807 -0.1049  0.8558
17329SOL    HW153120   5.562   6.673   4.160  0.7927  0.8466  0.1791
17329SOL    HW253121   5.708   6.642   4.182  0.6294  1.2075  1.8789
17330SOL     OW53122   1.212   1.993   5.405  0.1102  0.2685 -0.1381
17330SOL    HW153123   1.220   1.914   5.351 -0.3466  0.7928 -0.9928
17330SOL    HW253124   1.137   1.975   5.461  1.5641 -0.9477  1.5230
17331SOL     OW53125   3.218   7.143   7.446  0.0022  0.8299 -0.1436
17331SOL    HW153126   3.227   7.131   7.351 -2.7886 -0.8002 -0.3037
17331SOL    HW253127   3.146   7.204   7.456  1.3712  2.3347  0.9897
17332SOL     OW53128   7.190   0.500   3.867  0.4980  0.0326 -0.1651
17332SOL    HW153129   7.108   0.545   3.845  1.5086  1.6727 -0.7617
17332SOL    HW253130   7.256   0.545   3.815  2.0266 -0.1531  1.5358
17333SOL     OW53131   5.715   1.332   1.171 -0.3486 -0.6162  0.5716
17333SOL    HW153132   5.676   1.300   1.089 -1.9507  0.7549  0.7570
17333SOL    HW253133   5.805   1.299   1.168 -0.9199 -2.2320 -0.8139
17334SOL     OW53134   5.899   7.333   0.574 -0.0777 -0.1499 -0.6020
17334SOL    HW153135   5.912   7.411   0.520  2.1609  0.3637  0.5172
17334SOL    HW253136   5.813   7.346   0.615 -1.0855  0.2147 -2.7268
17335SOL     OW53137   5.983   4.499   2.685 -0.8197  0.7799  0.2211
17335SOL    HW153138   6.030   4.419   2.660 -1.7938  0.0841  0.5538
17335SOL    HW253139   5.901   4.467   2.724 -1.4225  1.9478 -0.0461
17336SOL     OW53140   1.697   2.410   5.361 -0.4897  0.3472 -0.3505
17336SOL    HW153141   1.729   2.484   5.413  0.2564 -2.0778  2.9901
17336SOL    HW253142   1.602   2.420   5.361 -0.4094  1.1953  0.2673
17337SOL     OW53143   0.759   1.205   4.143 -0.5559 -0.0203 -0.0122
17337SOL    HW153144   0.741   1.291   4.105  0.1138  0.7669  1.3737
17337SOL    HW253145   0.836   1.174   4.095  0.1028  0.8253  0.4718
17338SOL     OW53146   8.975   7.350   4.509 -0.0226  0.3558  1.0072
17338SOL    HW153147   8.941   7.261   4.500  0.3549  0.1934  1.1817
17338SOL    HW253148   9.070   7.340   4.512  0.2459  0.9951 -1.9225
17339SOL     OW53149   7.503   3.279   8.321  0.0258  0.1306 -0.7343
17339SOL    HW153150   7.489   3.244   8.233  1.6190 -0.6458 -0.7086
17339SOL    HW253151   7.564   3.351   8.308  0.5952 -0.2557 -0.2195
17340SOL     OW53152   0.691   8.321   0.291 -0.5254 -0.0791 -0.0127
17340SOL    HW153153   0.734   8.280   0.216 -1.1293  2.4514 -1.8855
17340SOL    HW253154   0.712   8.264   0.365  0.4108 -2.5079 -2.0070
17341SOL     OW53155   0.900   1.078   0.552  0.1053 -0.0363 -0.3411
17341SOL    HW153156   0.861   1.060   0.637  0.7205 -1.3776 -0.3208
17341SOL    HW253157   0.908   1.173   0.549  4.0070  0.0129  2.9673
17342SOL     OW53158   6.742   5.359   5.379  0.0524  0.0025 -0.3820
17342SOL    HW153159   6.824   5.313   5.396 -1.2330 -3.1037 -1.8021
17342SOL    HW253160   6.737   5.365   5.284 -0.3579  2.2459 -0.2641
17343SOL     OW53161   2.436   2.261   8.116 -0.4196  0.3556 -0.0355
17343SOL    HW153162   2.365   2.201   8.137 -1.0000  1.3997  1.1445
17343SOL    HW253163   2.394   2.336   8.075  0.0656  0.7190  0.1166
17344SOL     OW53164   0.640   3.433   5.878 -0.8090 -0.2183  0.0877
17344SOL    HW153165   0.557   3.478   5.899 -0.0750  0.9853  0.5300
17344SOL    HW253166   0.619   3.380   5.801 -1.7255  0.9145 -0.4931
17345SOL     OW53167   1.290   5.502   6.399  0.5565 -0.2816 -0.3224
17345SOL    HW153168   1.220   5.438   6.410  1.5768 -1.5702 -1.0272
17345SOL    HW253169   1.355   5.476   6.465  1.3094 -0.4419 -1.1224
17346SOL     OW53170   0.148   3.420   4.922  0.0508  0.0515  0.0892
17346SOL    HW153171   0.176   3.376   4.842  0.4223  0.6104 -0.0967
17346SOL    HW253172   0.172   3.360   4.993  0.7055  0.0243 -0.1505
17347SOL     OW53173   3.941   6.949   6.174 -0.1899 -0.3685 -0.2543
17347SOL    HW153174   3.872   7.008   6.205  1.1104  1.1378 -0.0674
17347SOL    HW253175   4.017   6.971   6.229  0.7275 -1.2742 -1.1176
17348SOL     OW53176   2.289   8.124   7.591 -0.3051  0.2154  0.2677
17348SOL    HW153177   2.221   8.056   7.585 -0.6444  0.5850 -0.2645
17348SOL    HW253178   2.280   8.159   7.679 -0.9788  0.4265  0.1212
17349SOL     OW53179   5.757   4.081   3.289  0.1594  0.2206  0.2474
17349SOL    HW153180   5.740   4.097   3.197  1.4224 -0.2609 -0.0906
17349SOL    HW253181   5.802   4.160   3.319  0.6793 -0.0462  0.1811
17350SOL     OW53182   2.283   4.530   7.486  0.0100  0.2128  0.2511
17350SOL    HW153183   2.219   4.508   7.418  0.0780 -0.5900  0.4328
17350SOL    HW253184   2.320   4.614   7.458  0.1150 -0.1529 -0.7570
17351SOL     OW53185   6.800   1.367   3.143  0.1258  0.2797  0.1887
17351SOL    HW153186   6.710   1.364   3.177 -0.0332 -0.2082 -0.2534
17351SOL    HW253187   6.822   1.275   3.128  1.3098  0.2509  1.8432
17352SOL     OW53188   6.096   1.160   5.629 -0.0963 -0.5774  0.1943
17352SOL    HW153189   6.046   1.159   5.711 -0.5304  2.8969  0.1405
17352SOL    HW253190   6.187   1.150   5.657 -0.1417  1.4476  1.3149
17353SOL     OW53191   1.787   7.125   2.251 -0.1964 -0.1223 -0.1458
17353SOL    HW153192   1.704   7.112   2.296 -0.5096 -3.3144 -1.3615
17353SOL    HW253193   1.853   7.123   2.320 -1.0145  1.2397  0.7108
17354SOL     OW53194   1.775   9.052   3.618 -0.3194  0.1271 -0.2905
17354SOL    HW153195   1.684   9.042   3.648 -0.2809 -0.9352 -0.5049
17354SOL    HW253196   1.776   9.012   3.532  0.4217 -0.1097 -0.1727
17355SOL     OW53197   6.265   6.399   5.801 -0.1049 -0.2142  0.4518
17355SOL    HW153198   6.219   6.436   5.726 -1.8384  0.7266  1.8928
17355SOL    HW253199   6.272   6.306   5.781 -2.1743 -0.2970 -0.0967
17356SOL     OW53200   2.095   4.762   5.661  0.1020 -0.3072  0.0997
17356SOL    HW153201   2.091   4.834   5.597 -0.7618 -0.6070 -0.1891
17356SOL    HW253202   2.080   4.683   5.610  0.6188 -0.6618  0.4865
17357SOL     OW53203   1.723   4.477   4.272  0.1294 -0.4179 -0.4129
17357SOL    HW153204   1.719   4.406   4.208  0.1755 -0.5628 -0.2573
17357SOL    HW253205   1.666   4.448   4.343 -0.8327  0.2592 -0.8971
17358SOL     OW53206   1.134   3.849   7.953  0.5646 -0.6267 -0.1040
17358SOL    HW153207   1.096   3.863   7.866  1.2576 -0.0250 -0.3192
17358SOL    HW253208   1.188   3.926   7.969 -0.2192 -0.3353  1.2389
17359SOL     OW53209   5.704   8.548   5.875  0.1572  0.2802  0.0658
17359SOL    HW153210   5.620   8.511   5.847  0.4742 -1.0612  0.8155
17359SOL    HW253211   5.703   8.637   5.841 -1.2776  0.0660 -0.5293
17360SOL     OW53212   8.553   6.403   1.131 -0.0075 -0.4189  0.0872
17360SOL    HW153213   8.575   6.495   1.146 -1.0222 -0.2506  0.6919
17360SOL    HW253214   8.536   6.397   1.037 -0.7223  0.2116  0.1629
17361SOL     OW53215   6.403   0.929   8.131 -0.2345 -0.1388  0.8560
17361SOL    HW153216   6.314   0.914   8.164 -1.2094  0.2641 -1.3919
17361SOL    HW253217   6.436   0.841   8.110 -0.5516 -0.2163  0.6647
17362SOL     OW53218   4.208   0.392   4.978  0.4172  0.0875  0.2179
17362SOL    HW153219   4.238   0.356   5.062 -0.2960 -0.2035  0.3622
17362SOL    HW253220   4.124   0.433   4.999  0.7557  0.9707 -0.1453
17363SOL     OW53221   7.294   3.191   0.190 -0.3722 -0.1698 -0.1001
17363SOL    HW153222   7.211   3.201   0.236  0.1834 -1.7781  1.3348
17363SOL    HW253223   7.270   3.189   0.097 -2.1004 -1.8324  0.3241
17364SOL     OW53224   3.122   5.944   6.075 -0.1033  0.0402 -0.2716
17364SOL    HW153225   3.134   5.853   6.046  1.7193  0.2385 -0.2293
17364SOL    HW253226   3.051   5.977   6.019 -1.0972 -1.4996 -0.0060
17365SOL     OW53227   1.484   7.575   0.828 -0.1323  0.5575 -0.3135
17365SOL    HW153228   1.434   7.642   0.781 -0.6179  1.1154  0.9624
17365SOL    HW253229   1.515   7.516   0.759 -4.3637 -1.1259 -1.0912
17366SOL     OW53230   1.772   1.650   6.069 -0.5133 -0.2640 -0.5197
17366SOL    HW153231   1.790   1.607   5.986 -0.7267 -0.9387 -0.2210
17366SOL    HW253232   1.700   1.600   6.107 -0.0043 -0.3489  0.3621
17367SOL     OW53233   1.122   0.892   5.196  0.9980 -0.0022 -0.6605
17367SOL    HW153234   1.069   0.896   5.117  0.4297  0.7829 -0.2541
17367SOL    HW253235   1.212   0.905   5.166  0.6391  2.0482 -1.0310
17368SOL     OW53236   3.598   4.917   3.178 -0.7044  0.2372  1.0860
17368SOL    HW153237   3.503   4.903   3.185 -0.3669 -1.8952  2.1825
17368SOL    HW253238   3.630   4.911   3.268  0.3835  2.0799  0.8745
17369SOL     OW53239   7.018   6.840   2.092  0.2055  0.5222 -0.0217
17369SOL    HW153240   7.055   6.753   2.080  0.7131  0.8137 -0.6434
17369SOL    HW253241   6.924   6.825   2.098  0.3070 -0.0893  0.1218
17370SOL     OW53242   0.112   6.591   7.736  0.5865  0.1305  0.0081
17370SOL    HW153243   0.090   6.593   7.643  1.4636  1.3394 -0.2098
17370SOL    HW253244   0.202   6.556   7.738  0.2038 -0.8541  0.5014
17371SOL     OW53245   1.132   8.342   1.367  0.1984  0.3152  0.0868
17371SOL    HW153246   1.119   8.422   1.418  0.3781  1.0574 -0.9858
17371SOL    HW253247   1.154   8.276   1.432 -0.4199  1.0214  1.0517
17372SOL     OW53248   6.625   4.374   4.607 -0.2329  0.6162 -0.3166
17372SOL    HW153249   6.679   4.330   4.672 -0.9419 -0.3708 -0.3720
17372SOL    HW253250   6.670   4.457   4.591  0.4472  0.4773  0.7403
17373SOL     OW53251   2.893   6.173   1.892 -0.4106 -0.1704  0.4537
17373SOL    HW153252   2.933   6.250   1.853 -2.8031  0.2678 -1.4315
17373SOL    HW253253   2.939   6.099   1.853 -0.1379  0.3152 -0.1567
17374SOL     OW53254   6.936   4.812   6.545  0.5305 -0.1703  0.9874
17374SOL    HW153255   6.991   4.740   6.513  2.0727  0.6821  1.6229
17374SOL    HW253256   6.992   4.889   6.541 -0.9273  0.9345  0.8044
17375SOL     OW53257   2.782   2.347   5.030  0.1276 -0.9930 -0.0934
17375SOL    HW153258   2.701   2.302   5.052  0.4207 -1.5763 -0.2092
17375SOL    HW253259   2.763   2.440   5.046 -0.3238 -1.2038  0.5901
17376SOL     OW53260   7.656   4.344   5.118 -0.4222 -0.0543  0.4074
17376SOL    HW153261   7.699   4.260   5.103  0.4818  0.6053 -1.0138
17376SOL    HW253262   7.622   4.368   5.032  0.1515  1.4443  0.5700
17377SOL     OW53263   4.950   9.060   1.663 -0.2786 -0.5366 -0.0491
17377SOL    HW153264   4.953   9.062   1.758 -0.7963  0.0126 -0.0381
17377SOL    HW253265   4.991   9.142   1.636 -0.3866 -0.5603 -0.2894
17378SOL     OW53266   6.358   8.667   8.553 -0.3053 -0.0049 -0.1082
17378SOL    HW153267   6.361   8.585   8.601 -1.5099  0.9906  1.7726
17378SOL    HW253268   6.342   8.641   8.462  0.6701 -1.8792  0.2173
17379SOL     OW53269   5.115   6.799   7.524  0.8125 -0.1270  0.3637
17379SOL    HW153270   5.069   6.883   7.511  1.0015 -0.1341 -0.4138
17379SOL    HW253271   5.127   6.793   7.619 -0.6374 -0.0377  0.5879
17380SOL     OW53272   0.782   6.730   6.954 -0.8949  0.2657  0.1341
17380SOL    HW153273   0.868   6.720   6.994 -1.9572  0.9113  2.7720
17380SOL    HW253274   0.723   6.743   7.027 -3.6034 -2.1321 -1.4391
17381SOL     OW53275   8.174   7.293   8.379 -0.6317 -0.3774 -0.4238
17381SOL    HW153276   8.253   7.293   8.432 -1.7477  0.2652  1.3222
17381SOL    HW253277   8.180   7.213   8.327  0.7592 -0.7561  0.2717
17382SOL     OW53278   0.077   6.964   6.043 -0.0062 -0.0265  0.1482
17382SOL    HW153279   0.110   6.989   5.957 -0.5848 -1.9589 -0.6806
17382SOL    HW253280   0.129   7.016   6.104 -0.0849  1.9509 -1.3444
17383SOL     OW53281   7.528   4.800   0.108  0.1725  0.5486 -0.3520
17383SOL    HW153282   7.591   4.752   0.054  0.7408  0.5028  0.3486
17383SOL    HW253283   7.444   4.784   0.065  0.6941  1.1298 -1.6637
17384SOL     OW53284   6.941   0.189   4.920 -0.1025  0.0610  0.5723
17384SOL    HW153285   6.980   0.102   4.916 -1.1184 -0.3567 -1.3583
17384SOL    HW253286   6.860   0.177   4.970 -0.3941 -0.1930  0.0532
17385SOL     OW53287   2.192   4.072   0.758 -0.3892  0.0617  0.5467
17385SOL    HW153288   2.130   4.096   0.827  0.8023 -1.0903  2.0993
17385SOL    HW253289   2.255   4.143   0.757 -0.8662  0.4881  0.0323
17386SOL     OW53290   1.126   8.667   2.663 -0.1366  0.5452 -0.6794
17386SOL    HW153291   1.068   8.661   2.739 -0.7111 -0.0146 -1.1571
17386SOL    HW253292   1.214   8.657   2.700 -0.3253  1.3882  0.0445
17387SOL     OW53293   6.729   2.398   7.194 -0.0627  0.0919  0.1249
17387SOL    HW153294   6.745   2.312   7.232 -0.0825 -0.4344 -1.0327
17387SOL    HW253295   6.648   2.387   7.143 -0.5219  1.0154  0.6261
17388SOL     OW53296   7.541   6.099   4.754  0.4910 -0.2810 -0.1701
17388SOL    HW153297   7.533   6.051   4.836  0.6233 -0.8937 -0.5099
17388SOL    HW253298   7.558   6.032   4.688  3.1823  0.4063 -0.2989
17389SOL     OW53299   3.194   4.792   5.791 -0.5213 -0.1674  0.1133
17389SOL    HW153300   3.277   4.786   5.838  0.8207  2.4674 -1.7096
17389SOL    HW253301   3.131   4.821   5.858  0.9256  1.6937  0.7517
17390SOL     OW53302   5.785   8.683   0.179 -0.4067  0.3018  0.6854
17390SOL    HW153303   5.778   8.628   0.257 -1.0854  0.4691  0.7474
17390SOL    HW253304   5.790   8.772   0.213 -2.6169  0.5406  0.5134
17391SOL     OW53305   7.731   7.389   3.522  0.3222 -0.0672 -0.3519
17391SOL    HW153306   7.687   7.369   3.439  0.4056  1.7440 -0.8793
17391SOL    HW253307   7.680   7.462   3.558  3.0726  2.4284 -1.1938
17392SOL     OW53308   4.941   6.775   7.966 -0.0801  0.2684  0.5631
17392SOL    HW153309   4.917   6.839   8.033 -1.2049 -0.5792  1.0120
17392SOL    HW253310   4.892   6.697   7.989  0.7830 -0.5707 -0.3309
17393SOL     OW53311   7.953   3.124   8.871  0.3207 -0.0882 -0.4063
17393SOL    HW153312   7.950   3.121   8.776  0.7492 -0.7750 -0.4042
17393SOL    HW253313   8.031   3.073   8.895  0.1038 -0.1005  0.3137
17394SOL     OW53314   4.431   6.917   7.481  0.3699 -0.4014 -0.0158
17394SOL    HW153315   4.399   6.836   7.441 -1.5134  0.6726 -0.7928
17394SOL    HW253316   4.447   6.975   7.406 -0.8539  0.8266  0.6518
17395SOL     OW53317   1.611   8.645   8.844  0.2321 -0.2722 -0.5672
17395SOL    HW153318   1.626   8.557   8.808  0.0389 -1.8588  2.8678
17395SOL    HW253319   1.697   8.673   8.876 -0.1770 -0.3895  0.6846
17396SOL     OW53320   3.249   4.476   2.551  0.5944  0.3979 -0.3573
17396SOL    HW153321   3.201   4.393   2.559  1.3933  0.0264  1.0742
17396SOL    HW253322   3.308   4.476   2.626 -0.8287  3.2423  0.9258
17397SOL     OW53323   7.852   2.399   8.789  0.2216  0.4363 -0.1652
17397SOL    HW153324   7.871   2.381   8.882 -1.5949  0.8115  0.3038
17397SOL    HW253325   7.936   2.383   8.745  0.7923 -1.0914  1.3428
17398SOL     OW53326   6.904   7.303   5.780 -0.1485  0.3860 -0.1766
17398SOL    HW153327   6.977   7.289   5.840 -0.4174  2.6598  0.7707
17398SOL    HW253328   6.899   7.398   5.769 -1.7196  0.1792 -1.8192
17399SOL     OW53329   7.882   1.577   1.665  0.4561 -0.9752 -0.3028
17399SOL    HW153330   7.788   1.563   1.651  0.3183 -0.6875  0.2847
17399SOL    HW253331   7.897   1.544   1.754  0.4401  1.0987  0.5063
17400SOL     OW53332   7.556   5.587   5.845  0.0992  0.2563  0.2780
17400SOL    HW153333   7.572   5.550   5.932  0.7917 -0.7985 -0.2710
17400SOL    HW253334   7.540   5.679   5.861  1.3985  0.3235  1.4400
17401SOL     OW53335   4.832   5.085   8.427 -0.1704  0.4450 -0.6038
17401SOL    HW153336   4.900   5.032   8.387  0.0909  0.9013 -0.7720
17401SOL    HW253337   4.777   5.022   8.474 -0.3299 -0.0667 -1.4563
17402SOL     OW53338   8.221   7.193   2.505  1.0128  0.4849 -0.0967
17402SOL    HW153339   8.257   7.265   2.454 -1.9824  0.9684 -1.7452
17402SOL    HW253340   8.248   7.114   2.458  0.6909  0.7894 -0.8073
17403SOL     OW53341   0.754   3.044   1.453 -0.1367 -0.1031 -0.0606
17403SOL    HW153342   0.838   3.025   1.495 -0.4174  0.2629  0.6937
17403SOL    HW253343   0.775   3.054   1.360  0.5546 -0.5993  0.0311
17404SOL     OW53344   5.040   2.571   8.125  1.2387 -0.3711  0.8206
17404SOL    HW153345   5.034   2.666   8.123 -0.0799 -0.4047  1.5836
17404SOL    HW253346   4.957   2.543   8.164  0.1391 -1.9735 -2.2968
17405SOL     OW53347   1.360   0.926   6.960 -0.1392  0.2688  0.0286
17405SOL    HW153348   1.433   0.927   6.899 -1.0739  0.9269 -1.1280
17405SOL    HW253349   1.356   1.014   6.996  0.3771 -0.1040  1.0174
17406SOL     OW53350   5.227   6.561   6.150 -0.5378 -0.1378  0.2353
17406SOL    HW153351   5.289   6.590   6.082 -0.4946  0.0168  0.3392
17406SOL    HW253352   5.199   6.642   6.192 -0.4666 -0.2445  0.4865
17407SOL     OW53353   4.577   0.562   6.176 -0.0433  0.2266  0.2250
17407SOL    HW153354   4.640   0.633   6.186 -0.1950  0.2118  1.5384
17407SOL    HW253355   4.509   0.597   6.119 -0.4263  1.3879  1.3340
17408SOL     OW53356   6.515   0.477   3.840 -1.2422 -0.2713  0.2722
17408SOL    HW153357   6.477   0.425   3.910  0.4707 -0.4881  1.0887
17408SOL    HW253358   6.528   0.415   3.768  1.9074 -1.4065  1.6518
17409SOL     OW53359   6.569   8.408   5.079  0.1018  0.0261 -0.0981
17409SOL    HW153360   6.566   8.401   5.175  0.7564  2.7897  0.2011
17409SOL    HW253361   6.506   8.475   5.057 -1.7334 -2.1199 -1.9312
17410SOL     OW53362   4.449   6.306   4.386  0.9472 -0.1707  0.1162
17410SOL    HW153363   4.484   6.347   4.306  0.1604 -0.0472 -0.1775
17410SOL    HW253364   4.448   6.377   4.450  0.5189  0.0267 -0.1022
17411SOL     OW53365   1.689   4.070   5.015 -0.5851 -0.3326  0.6609
17411SOL    HW153366   1.765   4.041   5.065  1.5740 -1.9421 -3.1488
17411SOL    HW253367   1.614   4.037   5.065  1.3035 -1.6180  2.8766
17412SOL     OW53368   5.302   7.459   2.383  0.3844 -0.4526  0.5891
17412SOL    HW153369   5.317   7.454   2.289 -0.0609  0.8383  0.4312
17412SOL    HW253370   5.333   7.546   2.408 -0.2229 -0.4769  1.4969
17413SOL     OW53371   2.953   6.120   0.324 -0.0331 -0.4454  0.3265
17413SOL    HW153372   3.002   6.047   0.286  1.5945  0.1663  1.1713
17413SOL    HW253373   2.954   6.188   0.257  0.7527 -0.2467  0.5289
17414SOL     OW53374   0.947   1.499   0.097 -0.3771 -0.1960 -0.1373
17414SOL    HW153375   0.853   1.505   0.082 -0.5779 -0.5369  0.9171
17414SOL    HW253376   0.980   1.586   0.074 -0.9502 -0.0531 -0.4499
17415SOL     OW53377   3.471   3.867   0.058 -0.0080  0.4771 -0.2625
17415SOL    HW153378   3.409   3.903  -0.006 -2.6929  0.0143  1.8581
17415SOL    HW253379   3.419   3.802   0.107  2.1291  0.1744  1.7766
17416SOL     OW53380   1.932   0.543   5.785  0.3510  0.3661 -0.0389
17416SOL    HW153381   1.983   0.623   5.775 -2.4306  2.6232  2.0070
17416SOL    HW253382   1.934   0.525   5.879 -2.5247  0.6235  0.1533
17417SOL     OW53383   0.429   3.973   5.040  0.0010  0.0928  0.7051
17417SOL    HW153384   0.402   4.065   5.040 -0.1480  0.0637 -0.4526
17417SOL    HW253385   0.370   3.931   5.102 -0.7232  0.5628  0.3465
17418SOL     OW53386   6.837   3.107   1.776  0.1797  0.1916  0.2332
17418SOL    HW153387   6.780   3.038   1.744 -0.7706  0.7913  0.5891
17418SOL    HW253388   6.857   3.160   1.698 -0.0388  0.1836  0.1724
17419SOL     OW53389   2.319   7.176   4.927 -0.1225 -0.1874 -0.0909
17419SOL    HW153390   2.284   7.097   4.887  1.4388 -1.8429  1.6194
17419SOL    HW253391   2.345   7.149   5.016  1.0866  2.0655  0.3288
17420SOL     OW53392   1.634   0.541   8.734 -0.5996 -0.2117 -0.7309
17420SOL    HW153393   1.696   0.580   8.796  0.0390  0.9796 -2.0675
17420SOL    HW253394   1.620   0.452   8.768  0.2285  0.1813  0.7449
17421SOL     OW53395   5.547   8.090   6.429  0.3416  0.3862  0.1434
17421SOL    HW153396   5.554   7.995   6.416 -0.6398  0.1654  1.0640
17421SOL    HW253397   5.566   8.127   6.343 -1.0295 -0.7437 -0.6990
17422SOL     OW53398   0.991   4.100   1.787 -0.1864  0.4735  0.3102
17422SOL    HW153399   0.914   4.087   1.844 -0.5874 -0.8546 -0.4834
17422SOL    HW253400   0.977   4.185   1.747 -0.4804  0.9148  1.3057
17423SOL     OW53401   8.432   7.466   5.750  0.1805 -0.0833 -0.1508
17423SOL    HW153402   8.403   7.556   5.735 -0.2448 -0.2832 -0.5703
17423SOL    HW253403   8.507   7.474   5.808 -0.2949  0.4996  0.3951
17424SOL     OW53404   8.886   8.832   1.586  0.3279  0.0209  0.0982
17424SOL    HW153405   8.831   8.910   1.595  0.7919  0.3162  0.4125
17424SOL    HW253406   8.899   8.824   1.492  1.9910  1.5552  0.1430
17425SOL     OW53407   6.976   6.564   0.513  0.2339 -0.5617  0.0979
17425SOL    HW153408   7.017   6.478   0.522  0.6373 -0.4474 -0.5422
17425SOL    HW253409   7.050   6.625   0.514 -0.0324 -0.2415  0.2959
17426SOL     OW53410   8.537   2.465   3.300 -0.1550  0.4691  0.5399
17426SOL    HW153411   8.572   2.491   3.215 -2.6380  1.1481 -0.3284
17426SOL    HW253412   8.610   2.417   3.341  0.8169 -0.7901 -2.3530
17427SOL     OW53413   3.359   5.263   0.518  0.0805 -0.5883 -0.1661
17427SOL    HW153414   3.409   5.204   0.461 -0.1730 -0.1539 -0.8406
17427SOL    HW253415   3.269   5.232   0.512  0.0266 -0.4380 -0.1304
17428SOL     OW53416   5.641   4.038   5.906  0.2921  0.0238 -0.2315
17428SOL    HW153417   5.614   4.058   5.996 -1.9404 -0.6605 -0.7018
17428SOL    HW253418   5.710   4.102   5.887  1.4767 -0.4124  2.2608
17429SOL     OW53419   3.610   4.578   3.344  0.0355  0.3021 -0.1664
17429SOL    HW153420   3.543   4.622   3.292  1.2311  0.7853 -1.3452
17429SOL    HW253421   3.629   4.498   3.295 -0.2365 -0.2517  0.5988
17430SOL     OW53422   2.083   3.690   3.854  0.3876  0.8377  0.4405
17430SOL    HW153423   2.041   3.774   3.868  0.5613  1.1708 -0.9610
17430SOL    HW253424   2.013   3.626   3.866 -0.2527  1.3140 -0.6219
17431SOL     OW53425   7.626   1.125   3.798  0.7045 -0.3792  0.7695
17431SOL    HW153426   7.576   1.207   3.799 -1.0833 -1.4053  0.0699
17431SOL    HW253427   7.717   1.152   3.814  0.2321  1.7750  0.1483
17432SOL     OW53428   6.299   0.575   1.290 -0.1046  0.0225  0.2479
17432SOL    HW153429   6.386   0.568   1.250  0.0621 -0.8056  0.7192
17432SOL    HW253430   6.268   0.662   1.266  0.7749  0.2532 -0.0894
17433SOL     OW53431   8.586   4.345   6.628 -0.4805  0.4059  0.4663
17433SOL    HW153432   8.600   4.257   6.665  0.0540  0.5742  0.6771
17433SOL    HW253433   8.580   4.402   6.705 -1.0580  0.5207  0.3354
17434SOL     OW53434   3.355   3.066   0.824  0.6059  0.1214  0.0992
17434SOL    HW153435   3.425   3.015   0.784 -1.1676 -0.0762 -3.0332
17434SOL    HW253436   3.277   3.012   0.813 -0.5387  1.5282  0.9606
17435SOL     OW53437   4.709   2.036   6.326  0.4239 -0.2659 -0.1180
17435SOL    HW153438   4.637   1.982   6.295  0.9574 -1.2236  0.2708
17435SOL    HW253439   4.695   2.121   6.284 -1.0612 -0.3497  0.1534
17436SOL     OW53440   6.251   4.342   2.685 -0.4285 -0.1879 -0.0395
17436SOL    HW153441   6.179   4.283   2.662  0.0516 -1.4942  1.6488
17436SOL    HW253442   6.234   4.366   2.776  0.6349  0.4579  0.0055
17437SOL     OW53443   6.933   3.325   4.598  0.6125 -0.1522  0.5742
17437SOL    HW153444   6.846   3.299   4.567  1.3603 -2.3482  0.1375
17437SOL    HW253445   6.979   3.355   4.519  0.2609  1.1573  0.8287
17438SOL     OW53446   3.503   2.930   8.819  0.3581 -0.0889  0.3729
17438SOL    HW153447   3.508   2.991   8.892  0.2734 -0.2386  0.5061
17438SOL    HW253448   3.578   2.952   8.764 -0.4153  0.9954 -0.2664
17439SOL     OW53449   7.262   3.913   0.693 -0.1310 -0.0437 -0.1603
17439SOL    HW153450   7.290   3.824   0.672  0.1363  0.0954 -0.4054
17439SOL    HW253451   7.342   3.958   0.719 -0.2148  0.2055 -0.3268
17440SOL     OW53452   8.324   4.422   5.336  0.4197 -0.7590  0.0569
17440SOL    HW153453   8.359   4.467   5.259  0.6764  2.1241  1.7168
17440SOL    HW253454   8.229   4.431   5.327  0.4736  0.3352  0.4662
17441SOL     OW53455   3.737   3.248   8.092  0.8687 -1.0935 -0.0439
17441SOL    HW153456   3.743   3.310   8.019  1.8657  0.3280  1.1688
17441SOL    HW253457   3.826   3.244   8.127  0.0737 -0.1441  2.3166
17442SOL     OW53458   3.630   3.047   8.226 -0.4438  0.1070  0.1463
17442SOL    HW153459   3.552   3.091   8.260 -1.1475 -0.9264 -0.0883
17442SOL    HW253460   3.679   3.117   8.182 -1.6497  0.6185 -0.4350
17443SOL     OW53461   6.297   3.747   5.895 -0.2632 -0.2419  0.2365
17443SOL    HW153462   6.244   3.690   5.839  3.0649 -3.3044 -0.1525
17443SOL    HW253463   6.323   3.691   5.968  2.5228  0.9854  0.2984
17444SOL     OW53464   8.272   4.199   1.429 -0.4005 -0.2758 -0.1894
17444SOL    HW153465   8.247   4.189   1.521 -0.4979 -0.0732 -0.1934
17444SOL    HW253466   8.275   4.110   1.395  0.0392 -0.3837  0.1199
17445SOL     OW53467   2.972   5.837   2.721  0.0918  0.2029 -0.3296
17445SOL    HW153468   2.995   5.777   2.791 -0.1396 -0.5046 -0.8451
17445SOL    HW253469   2.963   5.922   2.764  0.1177 -0.1848  0.4592
17446SOL     OW53470   3.956   7.357   0.009  0.8700 -0.3089  0.0952
17446SOL    HW153471   3.949   7.266  -0.022  1.0363 -0.3882  0.2879
17446SOL    HW253472   4.032   7.356   0.067  0.8559 -0.0502  0.1173
17447SOL     OW53473   0.822   0.374   5.925 -0.0443 -0.1814  0.0630
17447SOL    HW153474   0.862   0.445   5.876 -0.1252  0.7915  1.3704
17447SOL    HW253475   0.892   0.342   5.982 -0.2045 -0.6849 -0.0169
17448SOL     OW53476   7.014   2.819   3.031  0.2610 -0.2352 -0.0582
17448SOL    HW153477   6.980   2.900   3.069  0.1111 -0.0423 -0.5986
17448SOL    HW253478   6.993   2.751   3.095  1.8979  0.3993  1.2277
17449SOL     OW53479   8.678   6.047   2.457 -0.2133 -0.0430  0.6020
17449SOL    HW153480   8.678   5.992   2.535  1.7411  0.4878  1.0393
17449SOL    HW253481   8.608   6.110   2.472 -1.0313 -1.0439  1.0945
17450SOL     OW53482   2.189   4.232   6.347  0.4914 -0.3950  0.6258
17450SOL    HW153483   2.271   4.187   6.366  0.4675 -0.8009 -0.1892
17450SOL    HW253484   2.122   4.164   6.359  0.2721 -0.0965  1.1742
17451SOL     OW53485   9.112   0.795   0.450  0.5706 -0.8431 -0.0458
17451SOL    HW153486   9.041   0.763   0.505 -0.1324 -1.1592 -1.0995
17451SOL    HW253487   9.189   0.795   0.507 -0.5174  0.8078  1.5269
17452SOL     OW53488   1.982   6.596   3.872  0.1445 -0.4646  0.4238
17452SOL    HW153489   1.924   6.587   3.797 -3.3607  0.1964  2.7995
17452SOL    HW253490   1.985   6.690   3.889  1.6137 -0.5279  0.6597
17453SOL     OW53491   4.429   3.253   4.423  0.7242 -0.5267  0.2036
17453SOL    HW153492   4.396   3.183   4.367 -0.6309  0.0480  0.2420
17453SOL    HW253493   4.397   3.231   4.510 -0.9546  0.8613 -0.0271
17454SOL     OW53494   6.126   7.580   8.927  0.6565  0.1453 -0.0344
17454SOL    HW153495   6.161   7.586   8.838  0.0414  0.9157 -0.2319
17454SOL    HW253496   6.151   7.492   8.957 -1.3276 -1.1615 -1.9098
17455SOL     OW53497   2.681   0.430   1.763 -0.2892 -0.0090  0.0552
17455SOL    HW153498   2.651   0.366   1.699 -0.0712  1.2262 -1.3207
17455SOL    HW253499   2.613   0.498   1.763  1.5535  1.9443 -1.8030
17456SOL     OW53500   5.106   4.056   0.883 -0.1017  0.4513  0.2491
17456SOL    HW153501   5.126   4.020   0.970  0.7007  0.6254  0.1490
17456SOL    HW253502   5.012   4.070   0.884 -0.0108  1.1295  1.3539
17457SOL     OW53503   5.315   1.452   4.323  0.0536  0.5323 -0.1621
17457SOL    HW153504   5.284   1.383   4.265 -0.0629  0.6678 -0.2599
17457SOL    HW253505   5.304   1.533   4.274 -0.8417  0.7386  0.3622
17458SOL     OW53506   8.937   5.875   8.190  0.0541  0.0175 -0.0028
17458SOL    HW153507   8.871   5.881   8.259 -0.4711 -0.8980 -0.4117
17458SOL    HW253508   8.926   5.787   8.154 -0.2019  0.7322 -1.7767
17459SOL     OW53509   0.768   1.576   0.421 -0.4967  0.0656  0.8951
17459SOL    HW153510   0.752   1.665   0.452  0.4680  1.1512 -1.4725
17459SOL    HW253511   0.717   1.568   0.341  2.1682 -0.1540 -0.9202
17460SOL     OW53512   3.032   0.714   2.563  0.0268 -0.0054 -0.6836
17460SOL    HW153513   3.068   0.737   2.478  0.3510 -0.8246 -0.7787
17460SOL    HW253514   3.095   0.651   2.600  0.6935  1.4574  0.8195
17461SOL     OW53515   7.800   5.893   8.765  0.5233  0.5067 -0.3223
17461SOL    HW153516   7.728   5.898   8.702  0.9075 -1.4837 -1.0186
17461SOL    HW253517   7.769   5.830   8.831  1.8045 -0.8549 -0.9666
17462SOL     OW53518   2.703   4.261   7.204 -0.2965  0.1954  0.1804
17462SOL    HW153519   2.624   4.234   7.251  0.6836 -1.4860  0.9691
17462SOL    HW253520   2.691   4.355   7.188 -2.0118  0.1727  1.1023
17463SOL     OW53521   1.821   5.171   4.315 -0.1468  0.1607  0.2546
17463SOL    HW153522   1.888   5.105   4.335 -0.2918 -0.2532 -0.6108
17463SOL    HW253523   1.739   5.132   4.344 -0.3939 -0.5527 -1.3491
17464SOL     OW53524   0.366   8.867   6.219  0.5435  0.7451 -0.1741
17464SOL    HW153525   0.319   8.818   6.286  1.8678  0.4475  0.5764
17464SOL    HW253526   0.334   8.832   6.136 -0.1080  0.1443  0.3190
17465SOL     OW53527   6.078   1.723   1.585 -0.0722  0.5566 -0.2118
17465SOL    HW153528   6.066   1.787   1.514 -0.9744 -0.5730 -1.0978
17465SOL    HW253529   6.157   1.675   1.560 -0.4243  0.1182 -0.4749
17466SOL     OW53530   3.894   0.576   5.829 -0.5077 -0.1962 -0.0682
17466SOL    HW153531   3.848   0.545   5.907 -0.5732  2.4641  1.0272
17466SOL    HW253532   3.828   0.623   5.779  0.0905  0.1366 -0.5607
17467SOL     OW53533   3.139   5.253   0.211  0.3216 -0.1728 -0.4125
17467SOL    HW153534   3.200   5.185   0.185  1.0098 -0.3129  1.4034
17467SOL    HW253535   3.061   5.206   0.242  1.1407 -0.2598  1.7050
17468SOL     OW53536   1.443   4.259   9.037 -0.1062 -0.7123  0.5347
17468SOL    HW153537   1.399   4.218   8.962  0.6876 -0.4366 -0.0912
17468SOL    HW253538   1.382   4.248   9.109 -0.3901 -2.0369  0.1230
17469SOL     OW53539   1.092   1.016   5.433 -0.0961  0.3087  0.0057
17469SOL    HW153540   1.096   0.980   5.344  1.0252  2.2947 -0.8121
17469SOL    HW253541   0.999   1.033   5.448 -0.5223 -1.7389 -0.0204
17470SOL     OW53542   3.604   8.070   6.016  0.2840  0.2638 -0.2321
17470SOL    HW153543   3.619   8.147   6.071 -0.9101  0.1169  0.3386
17470SOL    HW253544   3.646   7.998   6.063  1.2075  0.5240 -0.6524
17471SOL     OW53545   0.231   3.663   6.345  0.6174  0.2353 -0.0731
17471SOL    HW153546   0.299   3.681   6.281  0.3317  0.1636 -0.3996
17471SOL    HW253547   0.243   3.730   6.413  1.6297 -0.3802  0.3702
17472SOL     OW53548   1.737   7.957   6.537  0.0998  0.0399  0.3026
17472SOL    HW153549   1.702   7.959   6.448  0.3151 -0.1370  0.2135
17472SOL    HW253550   1.714   8.042   6.574  0.6144  0.3797 -0.1553
17473SOL     OW53551   5.683   0.378   6.680 -0.5436  0.1092 -0.4347
17473SOL    HW153552   5.600   0.424   6.694 -0.3891  0.6874 -1.3746
17473SOL    HW253553   5.657   0.289   6.657 -0.8887  0.1370 -0.1615
17474SOL     OW53554   4.711   8.245   8.581 -0.0077  0.1227  0.1335
17474SOL    HW153555   4.731   8.338   8.583  0.4419  0.0413 -0.1632
17474SOL    HW253556   4.762   8.212   8.507 -1.3129 -0.1013 -0.6991
17475SOL     OW53557   6.427   7.328   3.752 -0.1820  0.0798  0.1469
17475SOL    HW153558   6.444   7.240   3.785  1.4389 -0.0126 -0.8374
17475SOL    HW253559   6.388   7.313   3.666  0.3134  0.3060 -0.1217
17476SOL     OW53560   0.592   1.676   9.001  0.0310 -0.1133  0.4535
17476SOL    HW153561   0.520   1.656   9.061 -0.4607  4.1870  1.6087
17476SOL    HW253562   0.557   1.655   8.914 -1.2530 -1.3720  1.2221
17477SOL     OW53563   8.804   2.095   1.918  0.0237 -0.3733  0.3675
17477SOL    HW153564   8.743   2.052   1.979  0.6752 -1.6526  0.1473
17477SOL    HW253565   8.890   2.060   1.942  0.4100 -0.1528 -0.6658
17478SOL     OW53566   2.450   0.238   5.326 -0.0436 -0.1717 -0.0493
17478SOL    HW153567   2.516   0.262   5.391 -0.8537  0.7249  0.4720
17478SOL    HW253568   2.367   0.268   5.364 -0.8347 -1.8284 -0.4040
17479SOL     OW53569   8.473   4.016   1.031 -0.5011 -0.7857  0.2624
17479SOL    HW153570   8.487   4.111   1.025 -0.6748 -0.6160  2.0670
17479SOL    HW253571   8.411   4.006   1.103  0.7228 -2.3626  1.1550
17480SOL     OW53572   6.702   1.573   8.977 -0.4757  0.1056 -0.1655
17480SOL    HW153573   6.782   1.523   8.989 -1.3496 -1.2441  0.3195
17480SOL    HW253574   6.636   1.525   9.027 -1.5534  1.2656 -0.4147
17481SOL     OW53575   0.330   7.549   1.672  0.3707  0.5679  0.5377
17481SOL    HW153576   0.410   7.549   1.724  1.2497  1.1199 -0.7469
17481SOL    HW253577   0.346   7.614   1.604 -0.4634 -0.5590 -0.7941
17482SOL     OW53578   0.568   3.815   7.481  0.1503  0.1372  0.4663
17482SOL    HW153579   0.530   3.898   7.509  0.0655  0.0191  0.6986
17482SOL    HW253580   0.502   3.750   7.503  1.0562 -0.2613  2.1797
17483SOL     OW53581   6.368   3.195   7.424 -0.0324 -0.5784  0.0582
17483SOL    HW153582   6.376   3.164   7.334  1.1685  1.0858 -0.4393
17483SOL    HW253583   6.273   3.206   7.437 -0.2771 -1.6168 -0.6847
17484SOL     OW53584   8.908   3.783   3.952  0.6007  0.3750  0.1519
17484SOL    HW153585   8.918   3.857   4.012 -0.6258  0.2185  0.5825
17484SOL    HW253586   8.816   3.786   3.927  0.8288 -0.2691 -0.8139
17485SOL     OW53587   3.542   4.941   5.923 -0.2444 -0.3160 -0.5481
17485SOL    HW153588   3.514   4.997   5.996 -0.1468 -0.5114 -0.3623
17485SOL    HW253589   3.572   5.003   5.856  0.8424 -0.1713  0.0539
17486SOL     OW53590   5.810   2.490   5.990  0.3458 -0.0591 -0.5528
17486SOL    HW153591   5.865   2.452   6.059 -1.7755 -0.3295  1.0931
17486SOL    HW253592   5.859   2.565   5.959  2.0277 -0.7793  0.2228
17487SOL     OW53593   2.712   7.263   1.548 -0.0856 -0.0139 -0.0617
17487SOL    HW153594   2.720   7.253   1.643  0.8576  1.8316  0.1060
17487SOL    HW253595   2.727   7.175   1.513  0.4996 -0.5489  1.4555
17488SOL     OW53596   0.040   5.211   5.519  0.1169  0.2640  0.0034
17488SOL    HW153597   0.034   5.307   5.515 -1.6699  0.1637 -0.9057
17488SOL    HW253598   0.083   5.194   5.602  0.7346  1.8592  0.0615
17489SOL     OW53599   5.684   7.023   1.366 -0.0244  0.3746  0.3758
17489SOL    HW153600   5.671   7.118   1.375  1.0878  0.5167  0.6155
17489SOL    HW253601   5.600   6.991   1.332 -0.5795  1.3724  0.7450
17490SOL     OW53602   5.451   2.651   4.539 -0.0275  0.6980  0.3838
17490SOL    HW153603   5.405   2.616   4.616  1.9975 -0.7212  1.0168
17490SOL    HW253604   5.536   2.607   4.539  0.0489  0.6192 -2.7136
17491SOL     OW53605   1.794   2.677   5.454 -0.1182  0.0374  0.4766
17491SOL    HW153606   1.752   2.710   5.374  0.1181 -0.1446  0.2765
17491SOL    HW253607   1.859   2.743   5.477  0.3471 -0.2766  0.0822
17492SOL     OW53608   3.975   5.624   4.037  0.0533  0.3333  0.2040
17492SOL    HW153609   4.014   5.683   3.972 -3.5773 -0.2039 -2.8093
17492SOL    HW253610   4.018   5.539   4.021  0.4896  0.6178 -0.1734
17493SOL     OW53611   6.046   2.200   4.087  0.5012  0.2458  0.0886
17493SOL    HW153612   6.116   2.233   4.032  1.1233  0.9469  1.2605
17493SOL    HW253613   5.965   2.230   4.045  0.9956  1.6580  0.1167
17494SOL     OW53614   0.080   1.819   1.669  0.1073 -0.0151 -0.0244
17494SOL    HW153615   0.080   1.778   1.583  1.6374 -0.1688  0.0195
17494SOL    HW253616   0.081   1.913   1.652  1.2110 -0.0474 -0.2074
17495SOL     OW53617   0.805   1.964   2.693  0.0905 -0.0628 -0.0390
17495SOL    HW153618   0.767   1.996   2.611 -0.8802  1.0669  0.8203
17495SOL    HW253619   0.887   2.013   2.701  0.7355 -0.9580 -0.8351
17496SOL     OW53620   7.485   6.418   2.560  0.1677 -0.5376  0.5204
17496SOL    HW153621   7.526   6.444   2.643 -1.5679  0.3818  1.1560
17496SOL    HW253622   7.391   6.420   2.579 -0.3736  1.1318 -1.8574
17497SOL     OW53623   8.698   3.092   8.773  0.3725 -0.2405  0.0742
17497SOL    HW153624   8.727   3.012   8.728 -1.0407 -1.7703  1.7289
17497SOL    HW253625   8.657   3.145   8.704  2.9639 -0.0097 -1.4271
17498SOL     OW53626   0.827   8.275   2.536  0.6182  0.1985  0.3846
17498SOL    HW153627   0.803   8.367   2.525  1.8739  0.6917  1.5152
17498SOL    HW253628   0.899   8.261   2.474 -0.6045 -0.5016 -0.9512
17499SOL     OW53629   5.100   8.177   3.920  0.5952 -0.1191  0.1350
17499SOL    HW153630   5.057   8.109   3.870 -0.0002  0.0517  0.4101
17499SOL    HW253631   5.029   8.223   3.965  1.1764 -1.0380  2.0957
17500SOL     OW53632   7.125   5.643   5.745  0.3870  0.6573 -0.0519
17500SOL    HW153633   7.214   5.614   5.765 -0.3048 -0.0285  2.5024
17500SOL    HW253634   7.123   5.735   5.773  0.1590  0.5166  0.3979
17501SOL     OW53635   4.138   1.907   3.115 -0.0485  0.5784 -0.2188
17501SOL    HW153636   4.186   1.832   3.079 -0.4090  0.5413 -0.6400
17501SOL    HW253637   4.049   1.897   3.079 -0.4641  0.4649  0.7904
17502SOL     OW53638   8.605   1.479   1.634  0.6017  0.3596  0.2028
17502SOL    HW153639   8.686   1.515   1.669  0.6429  0.9662 -0.4688
17502SOL    HW253640   8.587   1.533   1.557 -0.4969  0.3017  0.4040
17503SOL     OW53641   0.499   5.177   4.669 -0.2285 -0.1796 -0.2436
17503SOL    HW153642   0.505   5.252   4.609  0.0276 -1.1674 -1.4730
17503SOL    HW253643   0.513   5.216   4.756 -1.2197  1.3781 -0.7296
17504SOL     OW53644   5.435   9.020   4.677  0.3249  0.7145 -0.2970
17504SOL    HW153645   5.401   9.107   4.700 -1.2715  0.2234 -0.6215
17504SOL    HW253646   5.371   8.986   4.615  0.1842 -1.2313  0.8333
17505SOL     OW53647   1.201   2.839   6.695  0.3402  0.0618 -0.4034
17505SOL    HW153648   1.209   2.925   6.735 -0.1764  0.3915 -1.0079
17505SOL    HW253649   1.189   2.856   6.602 -1.1044 -0.6107 -0.3654
17506SOL     OW53650   5.643   7.397   0.694 -0.0545  0.1982 -0.2863
17506SOL    HW153651   5.579   7.454   0.736  1.0075  2.0916 -1.1078
17506SOL    HW253652   5.594   7.318   0.672 -1.9317  1.3027 -0.2856
17507SOL     OW53653   7.112   3.195   3.993  0.3050  0.0487  0.3715
17507SOL    HW153654   7.066   3.238   4.066 -0.0397  0.3951 -0.0414
17507SOL    HW253655   7.177   3.259   3.965  1.5097 -0.6897  1.3701
17508SOL     OW53656   8.976   0.143   4.127  0.8208  0.1338 -0.1280
17508SOL    HW153657   8.998   0.211   4.063  0.4247 -0.4682 -0.9243
17508SOL    HW253658   8.893   0.107   4.096 -0.4420  1.1838  1.8692
17509SOL     OW53659   4.214   0.313   6.020  0.0636 -0.4355  0.2895
17509SOL    HW153660   4.273   0.331   6.094 -1.6237 -1.6941  2.0590
17509SOL    HW253661   4.192   0.220   6.029  0.0034 -0.6899 -1.9914
17510SOL     OW53662   0.471   3.375   7.803  0.1522 -0.0923  0.7423
17510SOL    HW153663   0.460   3.280   7.795 -0.8033 -0.0064  0.9347
17510SOL    HW253664   0.390   3.412   7.766  0.0659  0.6103  1.5961
17511SOL     OW53665   5.795   4.700   8.281  0.4423  0.2138  0.0633
17511SOL    HW153666   5.809   4.611   8.315 -0.3878  0.2110  0.4288
17511SOL    HW253667   5.714   4.729   8.324 -0.9568  0.0218 -2.2647
17512SOL     OW53668   1.301   3.962   4.235 -0.1386  0.2959  0.1258
17512SOL    HW153669   1.232   3.959   4.301  0.0505 -0.4074  0.3021
17512SOL    HW253670   1.268   3.910   4.162  0.4414 -0.5752  0.4615
17513SOL     OW53671   1.954   0.992   1.659 -0.5865 -0.0612  0.1932
17513SOL    HW153672   1.862   0.972   1.673 -0.9562 -0.0416 -1.9512
17513SOL    HW253673   1.955   1.054   1.586  1.1247  0.0551  0.2600
17514SOL     OW53674   4.052   2.638   6.728 -0.4466 -0.0654  0.7643
17514SOL    HW153675   4.101   2.680   6.798 -2.1836  1.2434  1.2892
17514SOL    HW253676   3.984   2.589   6.773 -0.6342 -0.4840  0.0346
17515SOL     OW53677   8.570   4.537   6.831 -0.1302  0.0188 -0.4300
17515SOL    HW153678   8.601   4.619   6.794 -1.5656  0.8430  0.1346
17515SOL    HW253679   8.479   4.553   6.854 -0.4859 -1.7799 -0.4289
17516SOL     OW53680   8.614   4.080   2.054 -0.2124 -0.2880  0.1458
17516SOL    HW153681   8.693   4.049   2.010 -0.3205 -0.1045 -0.1774
17516SOL    HW253682   8.564   4.000   2.072 -0.1072 -0.3743  0.0578
17517SOL     OW53683   6.439   8.774   6.817  0.1943  0.1800 -0.3112
17517SOL    HW153684   6.453   8.815   6.903 -0.6955 -1.6577  0.7714
17517SOL    HW253685   6.445   8.680   6.834  1.7403 -0.2257 -2.6249
17518SOL     OW53686   7.338   0.545   3.418 -0.3967 -0.1554 -0.2448
17518SOL    HW153687   7.402   0.590   3.474  0.6283 -2.3016  0.4178
17518SOL    HW253688   7.261   0.536   3.474  0.1318 -1.0262  0.3836
17519SOL     OW53689   7.087   8.241   3.268 -0.1044  0.3029 -0.7127
17519SOL    HW153690   7.117   8.160   3.310 -0.6135  0.1458 -0.6402
17519SOL    HW253691   6.995   8.224   3.245 -0.4910  1.1586  0.0950
17520SOL     OW53692   3.005   1.730   7.867  0.0169 -0.0165 -0.5900
17520SOL    HW153693   3.035   1.810   7.825 -0.2498 -1.1162 -3.0363
17520SOL    HW253694   2.952   1.686   7.801 -1.9719 -1.0452  1.5367
17521SOL     OW53695   6.152   9.015   8.415 -0.0168 -0.2238 -0.3592
17521SOL    HW153696   6.155   9.096   8.364  0.3191 -0.3784 -0.5920
17521SOL    HW253697   6.132   8.947   8.350  0.5108 -0.4349 -0.3122
17522SOL     OW53698   2.805   5.703   1.892  0.4568 -0.3221 -0.4141
17522SOL    HW153699   2.738   5.644   1.927 -0.6329  0.8845 -0.4044
17522SOL    HW253700   2.804   5.687   1.798 -0.1201 -0.0393 -0.4585
17523SOL     OW53701   4.890   1.989   4.675 -0.1132 -0.1629  0.7675
17523SOL    HW153702   4.917   2.035   4.755  1.7812 -1.3831  0.9066
17523SOL    HW253703   4.953   2.018   4.609 -1.8316  1.0521 -0.4095
17524SOL     OW53704   1.059   6.021   8.121  0.0934  0.5408  0.1302
17524SOL    HW153705   1.090   6.014   8.031  0.2710  1.8477  0.0731
17524SOL    HW253706   0.983   6.079   8.116  0.6648  1.3833  0.9388
17525SOL     OW53707   4.169   4.683   7.701 -0.4540 -0.8296 -0.3717
17525SOL    HW153708   4.148   4.676   7.608 -0.3279 -0.6475 -0.4148
17525SOL    HW253709   4.205   4.771   7.711  0.0437 -1.0441 -0.2525
17526SOL     OW53710   7.111   3.981   5.050  0.1436 -0.4936 -0.4074
17526SOL    HW153711   7.125   3.886   5.042  1.1181 -0.4026  0.0740
17526SOL    HW253712   7.194   4.019   5.022  0.0718  0.1826  0.2750
17527SOL     OW53713   1.809   6.845   2.130 -0.7939  0.3065 -0.6874
17527SOL    HW153714   1.805   6.771   2.190  1.8188  0.2948 -0.4507
17527SOL    HW253715   1.759   6.914   2.174  0.0913 -0.0680  0.9696
17528SOL     OW53716   6.428   5.503   5.249  0.1553  0.2698 -0.3693
17528SOL    HW153717   6.509   5.455   5.232 -1.1852 -2.7988  1.0401
17528SOL    HW253718   6.385   5.507   5.163  1.5101  1.4826 -1.0295
17529SOL     OW53719   8.874   3.150   4.421  0.2096  0.1190  0.1623
17529SOL    HW153720   8.797   3.199   4.453  0.2595  0.7881 -0.7048
17529SOL    HW253721   8.841   3.099   4.348  0.5787  0.3758 -0.1865
17530SOL     OW53722   6.062   4.089   2.232  0.2981 -0.7919  0.3345
17530SOL    HW153723   6.029   4.008   2.193 -1.7054 -0.0680  0.4039
17530SOL    HW253724   6.124   4.060   2.299 -0.0289 -2.2345  0.0396
17531SOL     OW53725   1.701   0.213   9.078  0.2973 -0.0267  0.4401
17531SOL    HW153726   1.613   0.217   9.116  0.1606  1.3598  0.0149
17531SOL    HW253727   1.752   0.161   9.141 -1.0437 -1.7446  0.1965
17532SOL     OW53728   6.353   4.392   7.438 -0.2831 -0.5697 -0.1122
17532SOL    HW153729   6.296   4.459   7.475 -1.6160 -0.5855 -2.0400
17532SOL    HW253730   6.375   4.424   7.351  0.2404 -1.9629 -0.5182
17533SOL     OW53731   2.828   7.860   4.838 -0.4768  0.7055  0.3164
17533SOL    HW153732   2.798   7.917   4.767 -0.0573 -0.7982 -1.1365
17533SOL    HW253733   2.753   7.854   4.897 -1.0194  1.5898 -0.2541
17534SOL     OW53734   2.115   6.746   0.729  0.1490  0.3401 -0.4041
17534SOL    HW153735   2.075   6.787   0.653  2.2182 -1.5634 -2.6616
17534SOL    HW253736   2.206   6.731   0.704  0.9393 -0.3221  2.4878
17535SOL     OW53737   6.539   5.809   0.622 -0.1038  0.1395 -0.4384
17535SOL    HW153738   6.614   5.868   0.620 -0.1071  0.1441 -0.4268
17535SOL    HW253739   6.577   5.721   0.627 -0.0813  0.2153  1.9711
17536SOL     OW53740   3.017   2.359   2.167 -0.1501 -0.4038  0.1943
17536SOL    HW153741   3.005   2.279   2.218 -0.0527 -0.1194  0.6709
17536SOL    HW253742   3.036   2.427   2.232 -0.6261  0.0906 -0.1697
17537SOL     OW53743   3.646   4.734   5.758 -0.1045  0.1034 -0.8230
17537SOL    HW153744   3.714   4.783   5.711  1.6176  0.4108  1.7750
17537SOL    HW253745   3.601   4.799   5.811 -1.5635 -0.3318 -1.4643
17538SOL     OW53746   3.384   6.292   5.132  0.0717 -0.2791 -0.3130
17538SOL    HW153747   3.322   6.281   5.060  0.8610 -0.2092 -1.0193
17538SOL    HW253748   3.371   6.215   5.187 -1.5727  0.3992  0.2875
17539SOL     OW53749   4.882   4.463   2.943  0.6779 -0.2281  0.0438
17539SOL    HW153750   4.887   4.481   2.850 -1.4431 -0.2285 -0.1279
17539SOL    HW253751   4.896   4.548   2.985 -2.8018  0.7881 -0.5233
17540SOL     OW53752   3.831   4.799   5.573  0.2289 -0.4823 -0.6812
17540SOL    HW153753   3.814   4.818   5.481  0.5271  0.6348 -0.5324
17540SOL    HW253754   3.909   4.745   5.572  0.0469 -0.7439 -1.0995
17541SOL     OW53755   2.617   2.264   2.270 -0.2111 -0.2712  0.5857
17541SOL    HW153756   2.653   2.353   2.271  0.2761 -0.4693  0.4168
17541SOL    HW253757   2.540   2.271   2.214 -0.9261  0.3349  1.5977
17542SOL     OW53758   7.694   6.016   5.492  0.1797 -0.3630 -0.4844
17542SOL    HW153759   7.622   5.983   5.545  0.3526 -0.3630 -0.2490
17542SOL    HW253760   7.675   5.984   5.404 -1.8970  2.3963 -1.1883
17543SOL     OW53761   7.765   4.596   7.355 -0.4121  0.5429  0.2232
17543SOL    HW153762   7.717   4.564   7.431 -0.4299  0.9724  0.3991
17543SOL    HW253763   7.699   4.609   7.287 -0.4912  0.7662  0.3419
17544SOL     OW53764   4.682   3.090   3.872 -0.0269 -0.4895 -0.2516
17544SOL    HW153765   4.678   3.186   3.872 -1.1535 -0.5175 -0.7004
17544SOL    HW253766   4.670   3.066   3.964  1.6004 -0.1845  0.0677
17545SOL     OW53767   6.127   5.668   0.356  0.3366 -0.6141  0.6740
17545SOL    HW153768   6.165   5.744   0.400 -0.9238  0.2603  0.3068
17545SOL    HW253769   6.065   5.632   0.419 -0.6386 -0.0360  0.0757
17546SOL     OW53770   1.048   4.442   3.673 -0.3844 -0.4031 -0.1101
17546SOL    HW153771   1.101   4.462   3.750 -1.0086 -0.6190  0.3767
17546SOL    HW253772   0.977   4.387   3.705 -0.3059 -1.0191 -0.9445
17547SOL     OW53773   7.955   2.540   2.466 -0.3562 -0.9349 -0.1794
17547SOL    HW153774   7.884   2.475   2.466 -0.1015 -1.2566 -1.4590
17547SOL    HW253775   8.022   2.501   2.410 -0.3506  0.5721 -1.2822
17548SOL     OW53776   8.829   3.134   6.050 -0.2988 -0.1314 -0.4588
17548SOL    HW153777   8.893   3.118   5.980  0.6577  0.3408  0.2776
17548SOL    HW253778   8.882   3.163   6.124 -1.3033 -0.5800  0.4533
17549SOL     OW53779   8.161   7.732   5.131  0.0628  0.0103  0.1423
17549SOL    HW153780   8.154   7.768   5.219  0.1408  2.8783 -0.8941
17549SOL    HW253781   8.247   7.762   5.100 -0.2493 -0.3348 -1.1262
17550SOL     OW53782   1.526   5.354   8.211  0.1383 -0.9202  0.3878
17550SOL    HW153783   1.533   5.311   8.296 -0.6120 -2.2352 -0.1958
17550SOL    HW253784   1.482   5.290   8.155 -0.3649  0.3437 -0.7050
17551SOL     OW53785   0.241   8.089   8.763  0.3852  0.1046  0.4066
17551SOL    HW153786   0.314   8.037   8.728  0.4674 -1.9883  3.3096
17551SOL    HW253787   0.177   8.024   8.792 -1.5757  1.8178  0.1721
17552SOL     OW53788   5.304   4.402   5.023  0.1737  0.2425  0.1416
17552SOL    HW153789   5.392   4.416   4.990 -0.7052  2.3832 -1.5392
17552SOL    HW253790   5.282   4.483   5.069 -1.7902  0.9474 -1.8023
17553SOL     OW53791   8.664   5.253   4.163  0.1260 -0.0871  0.0726
17553SOL    HW153792   8.692   5.327   4.218 -1.5557  0.1198  0.7256
17553SOL    HW253793   8.736   5.239   4.102  2.8547 -1.3499  3.2704
17554SOL     OW53794   7.365   4.143   5.001  0.0431  0.5583 -0.2013
17554SOL    HW153795   7.351   4.237   4.996 -3.2504  0.3015  1.3551
17554SOL    HW253796   7.400   4.128   5.089  2.6855  0.4115 -1.1893
17555SOL     OW53797   2.021   5.679   8.035  0.0868 -0.3681 -0.2086
17555SOL    HW153798   2.010   5.679   8.130  0.9976 -1.2255 -0.0893
17555SOL    HW253799   2.111   5.649   8.021 -0.3201 -1.1302 -1.3677
17556SOL     OW53800   7.191   1.653   6.456 -0.3157  0.2304 -0.9053
17556SOL    HW153801   7.171   1.680   6.366 -0.1843 -0.8604 -1.2779
17556SOL    HW253802   7.108   1.618   6.489  0.0102 -0.7909 -1.1426
17557SOL     OW53803   0.633   8.417   1.707  0.1980 -0.0141  0.1361
17557SOL    HW153804   0.582   8.406   1.626  1.8607 -0.1593 -0.9399
17557SOL    HW253805   0.600   8.499   1.745 -0.3735  0.2463 -0.8812
17558SOL     OW53806   6.323   9.039   2.345  0.6075 -0.3336  0.0171
17558SOL    HW153807   6.417   9.033   2.361  0.2912 -2.3619  1.5386
17558SOL    HW253808   6.303   8.960   2.294  0.0631  1.3580 -2.6013
17559SOL     OW53809   0.951   1.192   7.418 -0.0820 -0.1936 -0.5493
17559SOL    HW153810   1.046   1.196   7.410  0.0544  0.4984  1.0686
17559SOL    HW253811   0.933   1.107   7.458 -0.0317  0.2202  0.3664
17560SOL     OW53812   0.382   5.878   6.156  0.0326  0.0048  0.4726
17560SOL    HW153813   0.346   5.847   6.239  0.4428 -1.3548  0.1655
17560SOL    HW253814   0.357   5.970   6.152 -0.4728 -0.0517  1.8407
17561SOL     OW53815   0.899   4.712   1.382 -0.4783  0.1707  0.1378
17561SOL    HW153816   0.857   4.712   1.296  0.5658 -1.0499 -0.4080
17561SOL    HW253817   0.827   4.724   1.444 -1.2247  1.2820 -0.8957
17562SOL     OW53818   0.182   7.095   4.881  0.1555 -0.4216 -0.2229
17562SOL    HW153819   0.164   7.007   4.848  0.1005 -0.2927 -0.5371
17562SOL    HW253820   0.121   7.107   4.954  0.4507 -0.8015  0.0905
17563SOL     OW53821   3.130   6.486   4.630 -0.0045  0.1308 -0.3488
17563SOL    HW153822   3.090   6.521   4.709 -1.5361 -0.5348 -0.7998
17563SOL    HW253823   3.128   6.558   4.567  0.1855  0.3228 -0.1327
17564SOL     OW53824   6.903   7.443   8.476  0.1429 -0.6330 -0.3245
17564SOL    HW153825   6.891   7.355   8.510  0.5313 -1.2832 -1.7958
17564SOL    HW253826   6.880   7.500   8.549 -1.3549 -1.9191  0.2720
17565SOL     OW53827   1.338   4.648   4.366 -0.0507 -0.2900 -0.0614
17565SOL    HW153828   1.372   4.726   4.323  0.5722  0.0021  0.9450
17565SOL    HW253829   1.246   4.669   4.384  0.5292  0.8653  1.6679
17566SOL     OW53830   0.934   8.995   0.034  0.3264 -0.1105  0.0335
17566SOL    HW153831   0.877   9.048   0.091  0.7462  0.2370  0.1402
17566SOL    HW253832   0.889   8.995  -0.050  0.6354  0.9816 -0.1523
17567SOL     OW53833   8.767   4.994   1.819 -0.4419  0.3316 -0.2789
17567SOL    HW153834   8.815   5.076   1.828 -2.2877  1.5913 -1.2435
17567SOL    HW253835   8.832   4.933   1.784  0.8438  1.5146 -0.0825
17568SOL     OW53836   2.395   7.224   1.936  0.0865  0.3314 -0.1358
17568SOL    HW153837   2.393   7.318   1.922 -0.1593  0.3677  0.1460
17568SOL    HW253838   2.476   7.195   1.892  1.1785  0.9301  1.3785
17569SOL     OW53839   1.510   6.309   5.749  0.1878 -0.2680 -0.0122
17569SOL    HW153840   1.460   6.390   5.748  1.3584  0.4803 -0.9493
17569SOL    HW253841   1.457   6.248   5.698  0.4636  0.6819 -1.5013
17570SOL     OW53842   1.433   0.310   8.573 -0.0221 -0.5617  0.0399
17570SOL    HW153843   1.478   0.263   8.644 -1.1694 -0.8104  0.6215
17570SOL    HW253844   1.341   0.305   8.596 -0.2632  1.0779 -0.4371
17571SOL     OW53845   6.463   6.515   8.185 -0.2404  0.5030  0.0787
17571SOL    HW153846   6.414   6.490   8.107 -1.2786 -0.0869  0.8976
17571SOL    HW253847   6.397   6.518   8.255  0.6248  1.2496  0.8890
17572SOL     OW53848   8.774   8.069   4.587 -0.0688  0.2461  0.0025
17572SOL    HW153849   8.737   8.149   4.549 -0.2699 -0.0511 -0.4378
17572SOL    HW253850   8.791   8.013   4.511  0.2943 -0.0352  0.2895
17573SOL     OW53851   0.351   8.331   0.640 -0.2921 -0.5653  0.6170
17573SOL    HW153852   0.387   8.325   0.729 -0.8227 -0.1945  0.8641
17573SOL    HW253853   0.318   8.243   0.622  0.2250 -0.7559  0.6117
17574SOL     OW53854   5.821   8.530   8.352 -0.2525 -0.3141  0.5086
17574SOL    HW153855   5.889   8.574   8.301 -1.7825  0.3421 -1.0325
17574SOL    HW253856   5.745   8.527   8.294 -0.6654 -3.7747  1.0331
17575SOL     OW53857   7.029   6.958   2.741  0.5340 -0.0216  0.1303
17575SOL    HW153858   7.011   6.884   2.684 -0.8358  0.5320 -0.1966
17575SOL    HW253859   6.945   6.978   2.781  1.3317 -0.0140  1.9089
17576SOL     OW53860   8.757   6.934   5.140 -0.3186  0.6583 -0.2707
17576SOL    HW153861   8.676   6.888   5.117  0.2970 -0.3080 -0.5690
17576SOL    HW253862   8.759   7.010   5.082 -0.0337 -0.3954 -1.6767
17577SOL     OW53863   0.011   6.944   7.265 -0.4980  0.8791 -0.2903
17577SOL    HW153864   0.086   6.959   7.208 -1.4669  0.6026 -1.6850
17577SOL    HW253865  -0.036   7.028   7.265 -1.1416  0.5290 -0.8895
17578SOL     OW53866   1.496   7.792   0.160  0.1803 -0.8039 -0.3178
17578SOL    HW153867   1.407   7.757   0.161 -0.0457 -0.2400  0.3687
17578SOL    HW253868   1.526   7.785   0.250  0.4428 -0.0435 -0.3376
17579SOL     OW53869   1.852   7.168   6.787 -0.4702 -0.1712  0.1125
17579SOL    HW153870   1.757   7.162   6.800 -0.2604 -0.9471  1.4402
17579SOL    HW253871   1.882   7.229   6.853 -0.2302  1.5824 -1.5203
17580SOL     OW53872   2.661   4.178   0.446 -0.5020 -0.1014  0.1501
17580SOL    HW153873   2.699   4.145   0.365 -2.8784 -0.7569 -0.7674
17580SOL    HW253874   2.650   4.100   0.501 -0.0159  0.1741  0.6588
17581SOL     OW53875   1.018   4.349   8.822  0.3846 -0.0576  0.2364
17581SOL    HW153876   0.997   4.434   8.859  0.6936 -0.5622  1.6227
17581SOL    HW253877   0.936   4.299   8.828  0.4391 -0.1464  0.2528
17582SOL     OW53878   2.684   3.351   0.690  1.0444  0.3619  0.5439
17582SOL    HW153879   2.656   3.269   0.732  1.5736  0.4255  1.0227
17582SOL    HW253880   2.616   3.414   0.715  0.7294  0.1215  0.3203
17583SOL     OW53881   4.949   1.169   1.232  0.0879  0.6005 -1.0036
17583SOL    HW153882   4.861   1.161   1.270 -0.2897 -0.3401 -2.0116
17583SOL    HW253883   5.007   1.177   1.308 -0.8609  1.3767 -0.3172
17584SOL     OW53884   3.434   3.813   1.179 -0.3586 -0.2284  0.6305
17584SOL    HW153885   3.363   3.809   1.242 -1.7726  0.6295 -0.8243
17584SOL    HW253886   3.477   3.728   1.186 -0.0256  0.0774  3.1694
17585SOL     OW53887   3.379   1.076   3.417 -0.2595 -0.2265  0.4434
17585SOL    HW153888   3.412   1.152   3.465 -1.8054 -1.3289  3.5481
17585SOL    HW253889   3.292   1.103   3.386  0.6385  0.3997 -1.7153
17586SOL     OW53890   2.351   6.669   2.768 -0.4789  0.2784  0.2326
17586SOL    HW153891   2.357   6.656   2.862  0.8819 -0.5890  0.0614
17586SOL    HW253892   2.262   6.700   2.753 -1.5926 -2.0229  1.5352
17587SOL     OW53893   0.475   0.663   1.712  0.0385  0.2239  0.0424
17587SOL    HW153894   0.423   0.642   1.790  1.4567 -0.2529  0.8879
17587SOL    HW253895   0.494   0.756   1.720  0.5517  0.0847  0.5152
17588SOL     OW53896   2.573   4.542   2.529  0.6108  0.1210 -0.2329
17588SOL    HW153897   2.569   4.527   2.434 -1.3163 -2.0393  0.0858
17588SOL    HW253898   2.651   4.493   2.557  0.4916 -0.2724 -0.5658
17589SOL     OW53899   3.742   6.372   3.408  0.3928  0.1620  0.0268
17589SOL    HW153900   3.821   6.340   3.365  1.6234 -1.1531  3.0049
17589SOL    HW253901   3.741   6.466   3.391  1.4599 -0.1144 -1.7342
17590SOL     OW53902   5.637   6.769   0.704 -0.0940  0.1648 -0.3777
17590SOL    HW153903   5.655   6.702   0.638  1.3527 -0.9658  1.0675
17590SOL    HW253904   5.689   6.844   0.678  0.3734 -0.2315 -0.5871
17591SOL     OW53905   4.329   4.839   3.224 -0.0230  0.2223 -0.4812
17591SOL    HW153906   4.273   4.915   3.206  0.4027  0.7005  0.1527
17591SOL    HW253907   4.308   4.816   3.315 -0.5545 -0.7725 -0.8480
17592SOL     OW53908   0.363   5.888   1.532  0.3600 -0.4682 -0.5705
17592SOL    HW153909   0.363   5.820   1.464 -0.1752 -0.2814 -0.7599
17592SOL    HW253910   0.390   5.842   1.611  1.6704 -0.5456 -1.0414
17593SOL     OW53911   7.653   1.729   4.449 -0.4079 -0.6774  0.0832
17593SOL    HW153912   7.577   1.673   4.461 -1.3000  0.5450  0.3529
17593SOL    HW253913   7.629   1.811   4.491  0.3191  0.3632 -1.4207
17594SOL     OW53914   0.975   7.606   1.400 -0.3404 -0.1251  0.0907
17594SOL    HW153915   1.057   7.614   1.449 -0.7164  0.6413  0.6231
17594SOL    HW253916   0.995   7.645   1.314 -0.3994  0.9609  0.5504
17595SOL     OW53917   2.349   4.847   8.835  0.1044  0.3594  0.9352
17595SOL    HW153918   2.285   4.799   8.889 -1.0587 -0.3881 -1.0103
17595SOL    HW253919   2.433   4.827   8.876 -0.6759 -0.5609  2.1955
17596SOL     OW53920   6.242   4.672   1.802  0.2218 -0.1453 -0.4654
17596SOL    HW153921   6.189   4.598   1.830 -0.5822  0.1867 -1.0910
17596SOL    HW253922   6.180   4.742   1.785  1.1014  1.5678  2.5599
17597SOL     OW53923   2.660   2.620   1.490  0.8639  0.2617  0.4369
17597SOL    HW153924   2.716   2.565   1.436  0.0178  2.0020 -2.4745
17597SOL    HW253925   2.632   2.691   1.431 -3.4765  0.1182  1.9122
17598SOL     OW53926   1.949   6.100   4.275 -0.7301 -0.8609  0.1266
17598SOL    HW153927   1.889   6.066   4.208  0.8578 -0.4047 -1.6048
17598SOL    HW253928   2.034   6.105   4.231  0.4022 -0.5780  2.2109
17599SOL     OW53929   0.147   5.055   8.609  0.4313  0.7265 -0.1831
17599SOL    HW153930   0.207   5.013   8.670  0.5138 -0.8260 -1.2747
17599SOL    HW253931   0.182   5.034   8.522 -0.6185  1.4237 -0.8004
17600SOL     OW53932   7.867   4.056   1.204  0.0208 -0.1448 -0.1898
17600SOL    HW153933   7.908   3.993   1.263 -1.8487  0.1037  1.4727
17600SOL    HW253934   7.773   4.048   1.221 -0.4937  0.8714 -2.2320
17601SOL     OW53935   7.569   8.019   2.035  0.3805  0.2416 -0.2590
17601SOL    HW153936   7.526   8.020   1.949 -0.3209 -2.0338  0.0033
17601SOL    HW253937   7.659   7.992   2.017  0.1119 -0.6884 -0.2660
17602SOL     OW53938   6.201   6.064   2.622 -0.1391  0.2867  0.7007
17602SOL    HW153939   6.199   5.984   2.675  1.1814 -1.0468 -1.1204
17602SOL    HW253940   6.280   6.109   2.651  0.8425 -0.6755 -0.3552
17603SOL     OW53941   3.226   1.110   0.963 -0.0268  0.1902 -0.7773
17603SOL    HW153942   3.131   1.123   0.962  0.1290  1.7933  0.5192
17603SOL    HW253943   3.238   1.025   1.006 -0.8460  1.0701  1.3686
17604SOL     OW53944   5.045   2.859   7.546 -0.0731 -0.1130  0.2640
17604SOL    HW153945   5.083   2.941   7.577 -0.1065 -0.1284  0.3456
17604SOL    HW253946   5.012   2.816   7.625 -0.5627  0.0580  0.1574
17605SOL     OW53947   7.544   5.965   0.796 -0.0866  0.2511  0.7541
17605SOL    HW153948   7.516   5.950   0.886  1.2414 -0.9793  0.9867
17605SOL    HW253949   7.502   5.895   0.746  1.0627 -0.5032  0.8160
17606SOL     OW53950   7.749   8.276   3.301 -0.0033 -0.3701 -0.4085
17606SOL    HW153951   7.723   8.366   3.281  0.9642 -0.2917 -1.4279
17606SOL    HW253952   7.691   8.250   3.372 -0.4217  0.9991 -0.2049
17607SOL     OW53953   8.343   2.285   3.451  0.2695 -0.1978 -0.1769
17607SOL    HW153954   8.334   2.213   3.389 -0.0048  0.0152 -0.3887
17607SOL    HW253955   8.381   2.356   3.400 -0.4616  0.1596 -0.2492
17608SOL     OW53956   1.999   1.611   5.213  0.3319  0.4976  0.0290
17608SOL    HW153957   1.957   1.648   5.291  2.0976  3.5979 -0.2933
17608SOL    HW253958   1.939   1.544   5.182 -1.6719  0.9674  2.5698
17609SOL     OW53959   2.186   7.642   8.543  0.2717  0.4170 -0.2220
17609SOL    HW153960   2.157   7.551   8.549  0.2255  0.3293 -1.4744
17609SOL    HW253961   2.206   7.655   8.450 -1.9913  2.3841 -0.5219
17610SOL     OW53962   3.497   6.247   8.813  0.0709  0.3475 -0.6206
17610SOL    HW153963   3.447   6.184   8.761  0.1452 -1.2283  1.1321
17610SOL    HW253964   3.478   6.332   8.772 -2.2662 -0.4529 -1.3660
17611SOL     OW53965   2.754   3.665   7.691 -0.0084  0.8339 -0.3725
17611SOL    HW153966   2.791   3.717   7.762  1.4055  0.3172 -0.6874
17611SOL    HW253967   2.685   3.614   7.732  1.1773  0.0934  0.7840
17612SOL     OW53968   4.337   2.997   8.177  0.7160 -0.2103 -0.0461
17612SOL    HW153969   4.284   3.037   8.108 -0.7200 -0.4124  0.9135
17612SOL    HW253970   4.311   3.042   8.257 -0.4200 -2.5132  0.9664
17613SOL     OW53971   1.585   4.488   1.152  0.0834 -0.5467 -0.4409
17613SOL    HW153972   1.568   4.582   1.157 -1.1137 -0.7147 -0.9483
17613SOL    HW253973   1.680   4.480   1.161  0.1873  0.6983 -0.2747
17614SOL     OW53974   8.209   3.598   8.044 -0.2189 -0.1511 -0.4374
17614SOL    HW153975   8.231   3.633   8.131  0.2539 -0.9452 -0.2214
17614SOL    HW253976   8.124   3.557   8.056 -0.0115 -0.5376 -0.2606
17615SOL     OW53977   8.050   6.724   2.792 -0.0633  0.1940  0.0301
17615SOL    HW153978   8.047   6.793   2.726  0.5189  0.5631  0.3902
17615SOL    HW253979   8.109   6.658   2.755  0.0064  0.2500  0.0432
17616SOL     OW53980   8.976   4.757   2.677 -0.0913 -0.0282  0.3598
17616SOL    HW153981   9.007   4.719   2.759 -0.6933  1.8754  1.5558
17616SOL    HW253982   8.881   4.764   2.689 -0.1282  0.7093 -0.2807
17617SOL     OW53983   5.469   6.739   7.713  1.2907 -0.3998 -0.0474
17617SOL    HW153984   5.427   6.695   7.639 -0.5598 -0.5969  1.0477
17617SOL    HW253985   5.485   6.669   7.776  1.8121 -0.0589  0.2061
17618SOL     OW53986   2.838   0.556   3.221  0.7594 -0.5071  0.1879
17618SOL    HW153987   2.761   0.501   3.204 -0.3651  0.9244  0.4394
17618SOL    HW253988   2.907   0.494   3.243 -0.4826 -1.8199  0.5725
17619SOL     OW53989   8.239   5.954   2.362  0.2719 -0.0237  0.1678
17619SOL    HW153990   8.164   5.904   2.394 -0.7457  1.8988  0.9283
17619SOL    HW253991   8.236   5.945   2.267 -1.0011  0.1364  0.1867
17620SOL     OW53992   3.550   0.548   8.367  0.1433 -0.2009 -0.1873
17620SOL    HW153993   3.616   0.526   8.434  0.7158 -0.9559 -0.9849
17620SOL    HW253994   3.580   0.632   8.332  0.4951 -0.3743 -0.3084
17621SOL     OW53995   6.872   4.808   7.068 -0.2038  0.6033 -0.7926
17621SOL    HW153996   6.856   4.885   7.013 -1.2783 -1.2078 -3.1648
17621SOL    HW253997   6.923   4.749   7.013  0.0998 -0.6452  0.7673
17622SOL     OW53998   6.585   6.104   7.024 -0.0781  0.2262  0.0853
17622SOL    HW153999   6.635   6.036   7.069 -1.8448 -1.5607 -0.5183
17622SOL    HW254000   6.509   6.118   7.079 -1.3561 -0.6767 -1.3803
17623SOL     OW54001   1.395   0.776   0.808 -0.4892 -0.6699 -0.3683
17623SOL    HW154002   1.351   0.707   0.859 -2.4155  0.5875 -0.1949
17623SOL    HW254003   1.451   0.729   0.747 -1.5838 -2.3927 -0.1264
17624SOL     OW54004   8.536   3.164   0.843  0.2681  0.5547  0.6794
17624SOL    HW154005   8.564   3.181   0.933  1.5543 -2.8313  1.0254
17624SOL    HW254006   8.539   3.069   0.834  1.6668  0.8192 -3.4264
17625SOL     OW54007   3.054   2.462   3.629  0.1237  0.4223  0.0968
17625SOL    HW154008   3.019   2.450   3.541  0.9826 -1.5032 -0.0399
17625SOL    HW254009   3.010   2.541   3.662 -2.6608 -0.5993 -0.8545
17626SOL     OW54010   0.642   2.931   2.037  0.2270  0.2869  0.9012
17626SOL    HW154011   0.598   2.853   2.071  1.6543  0.0996  2.4366
17626SOL    HW254012   0.571   2.993   2.018 -0.7703 -0.4826  2.0205
17627SOL     OW54013   0.843   9.063   8.347 -0.5372 -0.1083  0.0811
17627SOL    HW154014   0.760   9.039   8.305  0.6300 -0.3556 -2.1926
17627SOL    HW254015   0.878   9.134   8.293  0.9555 -0.3147  0.7296
17628SOL     OW54016   1.692   7.226   8.083 -0.2975  0.5569  0.4283
17628SOL    HW154017   1.667   7.314   8.111  0.4451  0.4791  1.3887
17628SOL    HW254018   1.728   7.186   8.162  0.0885 -0.3468 -0.1980
17629SOL     OW54019   2.744   8.784   3.063 -0.0601 -0.7518 -0.1450
17629SOL    HW154020   2.727   8.827   3.146  1.1546  1.6233 -1.0214
17629SOL    HW254021   2.657   8.765   3.027 -0.9237  3.4515 -0.8177
17630SOL     OW54022   5.246   5.710   0.797  0.0494  0.1331 -0.2479
17630SOL    HW154023   5.217   5.623   0.825  2.0843 -0.7212 -0.5805
17630SOL    HW254024   5.219   5.769   0.867  0.6113 -1.1544  1.1106
17631SOL     OW54025   6.964   5.809   3.676 -0.5275  0.5175 -0.3543
17631SOL    HW154026   6.891   5.868   3.695 -0.9106  0.7141 -2.3095
17631SOL    HW254027   7.009   5.849   3.602 -0.7294 -1.5496 -1.6617
17632SOL     OW54028   0.092   0.813   5.944 -0.1780 -0.1396 -0.5797
17632SOL    HW154029   0.163   0.876   5.938 -1.1910  1.0978  0.0665
17632SOL    HW254030   0.123   0.747   6.006 -0.0246  1.0231  0.6347
17633SOL     OW54031   8.991   1.393   8.249  0.2881 -0.5464 -0.7673
17633SOL    HW154032   9.023   1.334   8.317  0.9275  0.8732  0.2124
17633SOL    HW254033   9.042   1.371   8.171  2.6170  0.6144  0.3484
17634SOL     OW54034   8.427   7.812   8.914 -0.1088 -0.3988 -0.0004
17634SOL    HW154035   8.492   7.837   8.848  0.3530 -0.3505  0.4597
17634SOL    HW254036   8.372   7.748   8.871  0.7449 -1.0535 -0.1525
17635SOL     OW54037   3.055   5.354   3.791 -0.2010 -0.5808 -0.0160
17635SOL    HW154038   3.140   5.313   3.807 -0.2704 -1.0353 -0.7577
17635SOL    HW254039   3.067   5.445   3.816  1.0759 -0.1922 -1.8746
17636SOL     OW54040   8.468   6.667   3.894 -0.2070  0.1441  0.0820
17636SOL    HW154041   8.551   6.689   3.851 -0.6521  1.9935  0.0752
17636SOL    HW254042   8.490   6.661   3.987 -0.0525  0.6385  0.0820
17637SOL     OW54043   4.317   3.056   4.251 -0.0191 -0.4115 -0.0103
17637SOL    HW154044   4.297   2.967   4.279 -1.2857 -0.1604 -0.0755
17637SOL    HW254045   4.257   3.074   4.179 -0.1693  0.6783  0.3574
17638SOL     OW54046   5.617   6.946   0.145 -0.4590  0.1370 -0.0053
17638SOL    HW154047   5.557   6.874   0.162 -0.0208  0.2942  2.6801
17638SOL    HW254048   5.667   6.918   0.069 -2.2328 -1.0867 -0.7785
17639SOL     OW54049   3.278   5.845   5.839  0.5009  0.6311 -0.1636
17639SOL    HW154050   3.352   5.864   5.781  0.0154  0.8339 -0.7268
17639SOL    HW254051   3.205   5.893   5.800  0.3859  1.5883  1.1643
17640SOL     OW54052   5.733   6.173   0.701 -0.5142  0.0722 -0.0482
17640SOL    HW154053   5.680   6.252   0.713 -1.4555 -0.7218  1.3003
17640SOL    HW254054   5.682   6.118   0.643 -1.3398 -0.7896  1.4341
17641SOL     OW54055   3.002   1.200   0.005  0.8974 -0.1045 -0.2461
17641SOL    HW154056   2.987   1.110   0.035  0.4205  0.0464 -0.0223
17641SOL    HW254057   2.944   1.254   0.060  0.7149  0.2732 -0.8014
17642SOL     OW54058   5.025   1.737   1.172 -0.3999  0.0101 -0.2679
17642SOL    HW154059   4.979   1.658   1.143  0.5931 -0.1559 -1.4756
17642SOL    HW254060   5.009   1.801   1.102  1.0928 -0.0229 -0.6683
17643SOL     OW54061   7.972   0.954   4.968 -0.0325  0.2283 -0.0082
17643SOL    HW154062   7.927   0.905   5.037  2.1977 -0.4311  1.0954
17643SOL    HW254063   8.004   1.033   5.011 -0.1666  0.7153 -0.7772
17644SOL     OW54064   0.123   1.296   1.960 -0.8358 -0.5770  0.1306
17644SOL    HW154065   0.131   1.352   1.883  4.2847  0.6732  1.2044
17644SOL    HW254066   0.092   1.356   2.029 -1.1741 -0.5939 -0.0053
17645SOL     OW54067   1.402   7.559   2.065 -0.2038  0.6650 -0.6156
17645SOL    HW154068   1.324   7.604   2.032  0.8371  1.4040 -2.1741
17645SOL    HW254069   1.382   7.466   2.057 -1.3522  0.8267  0.1059
17646SOL     OW54070   8.949   7.692   6.597 -0.7268 -0.2603  0.0299
17646SOL    HW154071   8.927   7.758   6.531 -1.4209 -0.1658  0.3532
17646SOL    HW254072   9.024   7.730   6.644 -1.1177  0.2946  0.2121
17647SOL     OW54073   0.195   5.828   0.508  0.1272 -0.2090 -0.4166
17647SOL    HW154074   0.236   5.743   0.493 -1.0940 -0.7106 -1.0996
17647SOL    HW254075   0.137   5.814   0.582 -0.2046 -0.0288 -0.6367
17648SOL     OW54076   6.547   3.667   4.214 -0.0529 -0.0451  0.1829
17648SOL    HW154077   6.485   3.704   4.277 -0.1270 -0.3520  0.2949
17648SOL    HW254078   6.505   3.586   4.185  0.2985 -0.2552  0.2595
17649SOL     OW54079   0.960   6.142   2.901 -0.0534 -0.3325  0.1756
17649SOL    HW154080   1.051   6.155   2.875  0.4686 -0.8536  1.6540
17649SOL    HW254081   0.965   6.097   2.985 -1.6928 -0.9552 -0.0226
17650SOL     OW54082   1.079   2.035   4.368  0.2442  0.0938  0.9423
17650SOL    HW154083   1.023   2.018   4.292 -0.5408 -0.9535  1.7171
17650SOL    HW254084   1.135   1.958   4.374  1.4389  0.9066  0.4831
17651SOL     OW54085   3.845   6.522   8.384  0.2412 -0.7130 -0.4407
17651SOL    HW154086   3.903   6.571   8.442  1.6895 -1.2702 -1.3624
17651SOL    HW254087   3.763   6.572   8.383  0.9447  0.4867  0.3253
17652SOL     OW54088   7.234   5.971   7.863  0.2232 -0.0308 -0.5190
17652SOL    HW154089   7.311   5.968   7.920  0.3340  1.6012 -0.5272
17652SOL    HW254090   7.185   6.047   7.893  1.1405  2.0038 -3.5976
17653SOL     OW54091   8.768   7.948   1.885 -0.6558  0.2164  0.1089
17653SOL    HW154092   8.835   7.894   1.844 -0.6014  0.8958 -0.7342
17653SOL    HW254093   8.766   7.920   1.976 -1.3778 -1.9572 -0.5219
17654SOL     OW54094   2.159   3.971   5.490 -0.4521  0.3747 -0.0859
17654SOL    HW154095   2.099   4.046   5.498 -0.2908  0.4657  0.3479
17654SOL    HW254096   2.243   4.010   5.465 -0.5356  0.2660 -0.5272
17655SOL     OW54097   4.654   5.087   7.793 -0.0906  0.3576  0.8647
17655SOL    HW154098   4.712   5.093   7.717 -0.6432 -0.5501  0.3423
17655SOL    HW254099   4.602   5.008   7.776 -1.0896  0.8480  1.5834
17656SOL     OW54100   7.854   2.354   7.247  0.3490  0.6171  0.3129
17656SOL    HW154101   7.944   2.350   7.279  0.3790 -1.7293  0.1187
17656SOL    HW254102   7.863   2.346   7.152 -0.0542  0.8432  0.2541
17657SOL     OW54103   6.438   7.274   5.394  0.6518  0.2543 -0.3064
17657SOL    HW154104   6.343   7.286   5.391  0.8032  1.5929 -0.3820
17657SOL    HW254105   6.458   7.222   5.316  0.1272  1.2777 -1.1499
17658SOL     OW54106   0.659   2.948   0.244  0.4160  0.0273 -0.2378
17658SOL    HW154107   0.676   3.022   0.186  0.3671 -0.4080 -0.8301
17658SOL    HW254108   0.570   2.963   0.276  0.3413  0.1418 -0.4933
17659SOL     OW54109   1.878   0.855   5.138 -0.2820 -0.0737  0.1879
17659SOL    HW154110   1.783   0.852   5.127 -0.0826 -0.1750 -1.9372
17659SOL    HW254111   1.891   0.862   5.232 -2.4076  0.5280  0.4873
17660SOL     OW54112   8.274   2.665   7.751  0.4255 -0.2491 -0.3575
17660SOL    HW154113   8.358   2.633   7.718 -0.0458 -0.3479 -1.5432
17660SOL    HW254114   8.215   2.656   7.676 -1.0855 -1.8451  0.9344
17661SOL     OW54115   1.780   7.712   6.039  0.0150 -0.1844 -0.0932
17661SOL    HW154116   1.827   7.759   5.969 -0.9408  1.7972  0.5131
17661SOL    HW254117   1.716   7.658   5.993  0.5466 -0.2395 -0.7927
17662SOL     OW54118   8.497   1.483   4.688  0.3201 -0.0845 -0.1572
17662SOL    HW154119   8.531   1.526   4.610  0.9965  2.1461  1.2576
17662SOL    HW254120   8.412   1.525   4.703  0.7876  0.5101  1.0029
17663SOL     OW54121   7.127   2.543   8.795 -0.5528  0.5905  0.0280
17663SOL    HW154122   7.113   2.448   8.799 -1.6220  0.7574  0.4507
17663SOL    HW254123   7.134   2.571   8.886 -1.4168  1.0752 -0.0427
17664SOL     OW54124   1.062   7.548   8.501 -0.1290 -0.3737  0.0365
17664SOL    HW154125   1.010   7.585   8.429  2.7732  1.3823 -1.3230
17664SOL    HW254126   1.077   7.457   8.475 -0.4540 -0.2074 -0.7684
17665SOL     OW54127   1.514   0.586   1.323 -0.0530  0.0932 -0.2588
17665SOL    HW154128   1.542   0.503   1.362 -0.1708  0.2130  0.0904
17665SOL    HW254129   1.478   0.563   1.238  0.0651 -0.1950 -0.2303
17666SOL     OW54130   2.713   4.076   8.588 -1.0267 -0.3441 -0.5496
17666SOL    HW154131   2.746   4.035   8.508  1.2995  1.6006 -0.7177
17666SOL    HW254132   2.756   4.029   8.659  0.4480  0.7161 -0.6868
17667SOL     OW54133   2.193   5.379   3.135 -0.2528  0.2364  0.6819
17667SOL    HW154134   2.207   5.387   3.040  0.3145  0.6853  0.7976
17667SOL    HW254135   2.147   5.296   3.145  1.2286 -0.6767  0.1614
17668SOL     OW54136   6.545   8.292   8.514  0.4637  0.1835 -0.6728
17668SOL    HW154137   6.541   8.278   8.419 -2.8190  1.0813 -0.7944
17668SOL    HW254138   6.528   8.206   8.552 -0.0028  0.1524 -0.9453
17669SOL     OW54139   5.058   5.772   8.399  0.1350  0.0344 -0.5228
17669SOL    HW154140   5.020   5.718   8.468  0.1818  0.7478  0.0800
17669SOL    HW254141   4.983   5.815   8.358  0.1786  0.3001 -0.3229
17670SOL     OW54142   4.508   1.514   0.039 -0.1171 -0.0010 -0.3219
17670SOL    HW154143   4.456   1.592   0.018 -0.9098 -0.6860 -0.9882
17670SOL    HW254144   4.443   1.447   0.058  0.5457 -0.6565 -0.3369
17671SOL     OW54145   2.882   5.966   5.211 -0.0660  0.6089  0.4107
17671SOL    HW154146   2.862   5.999   5.123 -0.3593 -0.1837  0.1688
17671SOL    HW254147   2.916   5.878   5.196  2.6974  1.5182  0.8900
17672SOL     OW54148   1.236   5.420   6.112  0.1411 -0.3194 -0.2297
17672SOL    HW154149   1.268   5.453   6.196 -1.8458  0.2753  0.3661
17672SOL    HW254150   1.140   5.420   6.121 -0.1014 -3.4747 -1.2679
17673SOL     OW54151   4.898   2.329   2.913  0.4737 -0.2074  0.0273
17673SOL    HW154152   4.895   2.387   2.989 -0.1113 -0.6762  0.3739
17673SOL    HW254153   4.966   2.264   2.934  0.5429 -0.1420  0.0052
17674SOL     OW54154   6.263   4.475   3.728 -0.1282 -0.9800 -0.0940
17674SOL    HW154155   6.276   4.562   3.690 -0.8077 -0.3724  1.0087
17674SOL    HW254156   6.348   4.451   3.763 -0.3987  0.2002  1.4884
17675SOL     OW54157   5.806   2.611   4.050 -1.1812  0.2151 -0.2665
17675SOL    HW154158   5.843   2.692   4.013 -0.5593  0.4181  0.7736
17675SOL    HW254159   5.732   2.591   3.992 -0.3689  0.6334 -1.4968
17676SOL     OW54160   3.925   4.823   8.616 -0.0588  0.4988  0.3462
17676SOL    HW154161   3.986   4.756   8.647 -1.5509 -1.8655 -1.5129
17676SOL    HW254162   3.922   4.887   8.688  0.9574 -1.7346  2.5385
17677SOL     OW54163   2.991   3.189   2.263 -0.1896 -0.0014  0.1934
17677SOL    HW154164   2.984   3.186   2.167 -1.9204 -1.5024  0.3070
17677SOL    HW254165   3.083   3.207   2.280  0.0259  1.0584 -1.7458
17678SOL     OW54166   4.451   4.176   5.513 -0.1666  0.3322 -0.5889
17678SOL    HW154167   4.528   4.130   5.482 -0.7895 -1.8954  0.9711
17678SOL    HW254168   4.483   4.239   5.577  0.3460 -0.8811  0.3699
17679SOL     OW54169   4.521   4.482   2.912  0.4237 -0.1925 -0.2702
17679SOL    HW154170   4.587   4.432   2.960 -0.9314 -0.2172  1.6713
17679SOL    HW254171   4.457   4.507   2.978 -0.9639  0.7739 -1.8968
17680SOL     OW54172   7.917   5.762   3.155  0.4215 -0.2792 -0.3591
17680SOL    HW154173   7.873   5.728   3.077  2.4976 -1.2093 -1.2178
17680SOL    HW254174   7.941   5.852   3.133 -1.0625  0.2682  0.1546
17681SOL     OW54175   0.213   8.351   8.289  0.5287 -0.6027 -0.4473
17681SOL    HW154176   0.294   8.400   8.274 -0.8026  2.2824  1.1254
17681SOL    HW254177   0.241   8.274   8.339  2.1387  1.4247  2.0313
17682SOL     OW54178   7.964   4.034   6.256 -0.2918 -0.1244 -0.4385
17682SOL    HW154179   7.959   4.056   6.163  1.1386  1.7738 -0.1380
17682SOL    HW254180   7.932   4.113   6.300  2.1043  0.2985  0.6813
17683SOL     OW54181   4.751   6.161   6.729  0.1907 -0.1462 -0.3199
17683SOL    HW154182   4.686   6.221   6.766 -0.9033 -1.3772 -0.1854
17683SOL    HW254183   4.704   6.112   6.662  1.0872 -0.8201 -0.4835
17684SOL     OW54184   3.718   8.552   0.251 -0.3865  0.0729  0.3371
17684SOL    HW154185   3.626   8.564   0.276  0.0462  2.0469  1.1765
17684SOL    HW254186   3.763   8.529   0.332 -0.0731 -0.5379 -0.0027
17685SOL     OW54187   7.046   9.067   5.429  0.0247  0.3391  0.3386
17685SOL    HW154188   6.968   9.064   5.373 -0.5661  1.7888  1.0370
17685SOL    HW254189   7.015   9.038   5.514  0.3901  0.3473  0.4739
17686SOL     OW54190   5.661   1.092   2.471 -0.5360  0.7267 -0.4167
17686SOL    HW154191   5.608   1.132   2.540 -0.4548  1.5916 -0.8488
17686SOL    HW254192   5.603   1.028   2.430 -0.2963 -0.4758  1.0435
17687SOL     OW54193   7.247   4.005   2.427  0.1054  0.1014  0.1929
17687SOL    HW154194   7.312   4.025   2.494  0.5797 -1.2399  0.1590
17687SOL    HW254195   7.298   3.968   2.355 -0.7514 -1.7460  0.4823
17688SOL     OW54196   6.403   8.338   2.522  0.6084 -0.0873  0.1607
17688SOL    HW154197   6.309   8.320   2.526  0.8462 -1.2497  2.8594
17688SOL    HW254198   6.408   8.428   2.489 -1.6380  0.8942  2.1223
17689SOL     OW54199   2.994   6.350   4.437 -0.3259 -0.1291 -0.3302
17689SOL    HW154200   2.990   6.440   4.407 -2.4884  0.0231  0.2650
17689SOL    HW254201   3.049   6.353   4.516 -0.3760  0.6634 -0.3200
17690SOL     OW54202   8.400   3.603   4.196  0.2385  1.0933  0.2175
17690SOL    HW154203   8.483   3.562   4.171 -0.3528  1.0172 -1.8090
17690SOL    HW254204   8.362   3.542   4.260  1.5286  0.9129  0.8421
17691SOL     OW54205   6.377   2.151   7.679  0.0281 -0.2655  0.0038
17691SOL    HW154206   6.389   2.227   7.623 -1.9979  1.3616  1.6057
17691SOL    HW254207   6.314   2.096   7.633 -0.0396  0.0316 -0.2571
17692SOL     OW54208   8.008   8.020   3.869  0.5484 -0.1843 -0.7546
17692SOL    HW154209   7.967   8.028   3.783  0.5224  1.1494 -0.6372
17692SOL    HW254210   8.025   7.927   3.879  0.7952 -0.3372 -2.3237
17693SOL     OW54211   6.030   1.198   4.679 -0.8702 -0.3980 -0.1054
17693SOL    HW154212   6.003   1.119   4.630 -2.2856  1.5331 -2.7143
17693SOL    HW254213   6.055   1.261   4.611  0.5060  1.3513  1.8986
17694SOL     OW54214   7.585   2.746   5.365 -0.5432  0.2961  0.3227
17694SOL    HW154215   7.626   2.662   5.382  0.7229  0.9765  0.7889
17694SOL    HW254216   7.551   2.740   5.276 -0.1865 -0.5875  0.2422
17695SOL     OW54217   2.832   8.903   8.705 -0.4487 -0.4205 -0.4414
17695SOL    HW154218   2.793   8.960   8.638  1.8207  1.9515  0.1014
17695SOL    HW254219   2.926   8.910   8.691  0.0183 -1.4124  1.7678
17696SOL     OW54220   8.777   3.762   5.347  0.1544  0.1978 -0.2213
17696SOL    HW154221   8.683   3.766   5.360  0.0969 -0.0043 -0.5829
17696SOL    HW254222   8.791   3.692   5.284  0.5793 -0.0552  0.1458
17697SOL     OW54223   7.062   1.947   7.096 -0.4436  0.0281  0.4018
17697SOL    HW154224   7.071   2.043   7.095  0.7036 -0.0650 -0.4889
17697SOL    HW254225   7.148   1.915   7.070 -0.8175 -1.2591  0.6888
17698SOL     OW54226   5.276   3.831   6.287 -0.4895  0.3304 -0.7094
17698SOL    HW154227   5.308   3.794   6.370 -1.0531  0.4634 -0.4255
17698SOL    HW254228   5.296   3.924   6.294 -0.2377  0.2874 -0.8657
17699SOL     OW54229   0.669   8.990   3.845  0.2995 -0.3760 -0.6170
17699SOL    HW154230   0.617   9.014   3.768  0.5457 -1.2742 -1.0841
17699SOL    HW254231   0.760   9.003   3.818  0.3502  0.5505 -0.0271
17700SOL     OW54232   7.872   6.519   7.128 -0.3068 -0.0942  0.2412
17700SOL    HW154233   7.914   6.515   7.042  1.5604 -1.5926  1.1555
17700SOL    HW254234   7.782   6.548   7.110  0.6630  1.8160 -1.9550
17701SOL     OW54235   0.005   7.957   2.013  0.4705  0.2774  0.1250
17701SOL    HW154236   0.011   8.034   1.957  1.0003  0.4881  0.4599
17701SOL    HW254237   0.009   7.991   2.103 -1.0870 -0.0003  0.3194
17702SOL     OW54238   8.246   2.382   5.272  0.4003 -0.1989  0.5256
17702SOL    HW154239   8.251   2.399   5.367 -0.7327  0.0752  0.5630
17702SOL    HW254240   8.304   2.308   5.258  0.0095 -0.7342  1.5743
17703SOL     OW54241   8.132   3.144   0.577  0.4115 -0.0248  0.0130
17703SOL    HW154242   8.084   3.097   0.509  1.1128  0.0237 -0.5209
17703SOL    HW254243   8.108   3.236   0.564 -0.5901 -0.1659  0.7595
17704SOL     OW54244   3.429   1.358   7.822 -0.2615  0.9489  0.6123
17704SOL    HW154245   3.431   1.411   7.902 -0.3247 -0.9278  1.9186
17704SOL    HW254246   3.381   1.279   7.846  0.5809 -0.1168 -1.0025
17705SOL     OW54247   1.533   4.205   2.272 -0.8526 -0.3262 -0.8943
17705SOL    HW154248   1.553   4.295   2.247  0.7015 -0.1763  0.7154
17705SOL    HW254249   1.483   4.170   2.198  0.8557  0.9994 -2.7739
17706SOL     OW54250   2.549   5.717   6.425 -0.0994 -0.1031  0.0614
17706SOL    HW154251   2.556   5.746   6.335 -3.5097  3.4227  0.6386
17706SOL    HW254252   2.612   5.771   6.473  2.3209 -2.5577 -0.1480
17707SOL     OW54253   3.188   5.735   6.943 -0.1767  0.1904 -0.2940
17707SOL    HW154254   3.232   5.653   6.964 -0.4127  0.0474 -0.3490
17707SOL    HW254255   3.255   5.802   6.953  0.0840 -0.0386 -0.4927
17708SOL     OW54256   7.698   4.994   3.459 -0.2948 -0.6411  0.1400
17708SOL    HW154257   7.780   5.026   3.496  0.5425  0.0390 -2.1566
17708SOL    HW254258   7.630   5.042   3.506  0.7658  1.0680  0.0110
17709SOL     OW54259   0.380   0.626   7.827  0.2367  0.3159 -0.0769
17709SOL    HW154260   0.452   0.595   7.882  0.7257  1.6278  0.0612
17709SOL    HW254261   0.315   0.556   7.831  1.4578 -0.8526 -0.1335
17710SOL     OW54262   6.342   6.858   4.162 -0.2265 -0.2578  0.6945
17710SOL    HW154263   6.309   6.817   4.242 -1.0827  1.6260  1.3624
17710SOL    HW254264   6.386   6.938   4.191  0.7274 -0.2624 -0.6163
17711SOL     OW54265   3.067   0.385   1.033 -0.0455  0.1934 -0.0902
17711SOL    HW154266   3.104   0.309   1.076 -0.9657  0.1397  0.6614
17711SOL    HW254267   2.987   0.353   0.991 -0.8531  0.8471  0.8660
17712SOL     OW54268   1.990   2.864   2.965 -0.9457  0.3386  0.2256
17712SOL    HW154269   1.982   2.809   2.887 -0.5810  1.5231 -0.6631
17712SOL    HW254270   1.946   2.945   2.942  0.9263  1.4865  0.5080
17713SOL     OW54271   7.928   3.833   5.146 -0.1799 -0.5184  0.5761
17713SOL    HW154272   7.974   3.835   5.062 -1.1384 -0.0384  0.0415
17713SOL    HW254273   7.856   3.771   5.132 -0.6806 -0.0079  0.8535
17714SOL     OW54274   5.834   5.974   4.299  0.4437  0.6546  0.4052
17714SOL    HW154275   5.831   5.999   4.392  0.4286 -0.2179  0.6459
17714SOL    HW254276   5.920   6.004   4.269  0.9314 -0.0807  1.0111
17715SOL     OW54277   4.262   4.480   5.436 -0.0333  0.2730 -0.0984
17715SOL    HW154278   4.251   4.433   5.353  0.9724  0.5996 -0.4336
17715SOL    HW254279   4.354   4.508   5.436 -0.0263  0.3072  1.1163
17716SOL     OW54280   1.016   2.019   8.034  0.1707 -0.2466 -0.0285
17716SOL    HW154281   1.041   2.051   8.120  1.2362 -0.5173 -0.2313
17716SOL    HW254282   1.018   2.097   7.978 -0.1447 -0.1405  0.1068
17717SOL     OW54283   2.912   2.329   2.864 -0.1446  0.6055  0.3096
17717SOL    HW154284   2.932   2.269   2.936 -1.0131 -0.5696 -0.4047
17717SOL    HW254285   2.902   2.273   2.788 -1.1963  1.6377 -0.3415
17718SOL     OW54286   1.521   2.953   2.818 -0.0167 -0.0144  0.0314
17718SOL    HW154287   1.616   2.947   2.832 -0.1764 -2.4443  0.6693
17718SOL    HW254288   1.511   2.955   2.723  0.6875  1.8029 -0.0349
17719SOL     OW54289   3.361   7.918   3.257  0.5111  0.2391 -0.5375
17719SOL    HW154290   3.428   7.869   3.304 -0.3318  0.5979  1.1248
17719SOL    HW254291   3.374   8.009   3.284 -0.0195  0.4454 -0.9518
17720SOL     OW54292   2.974   6.441   6.503 -0.1494 -0.2762  0.2689
17720SOL    HW154293   2.918   6.404   6.571 -0.1500 -0.0751  0.3764
17720SOL    HW254294   2.914   6.465   6.433 -0.0958 -1.0043 -0.0436
17721SOL     OW54295   2.151   6.260   2.503 -0.6376  0.0371 -0.3547
17721SOL    HW154296   2.155   6.336   2.561 -0.7748  0.4490 -0.8753
17721SOL    HW254297   2.242   6.239   2.485 -0.5866 -0.3202  0.2962
17722SOL     OW54298   2.581   0.510   4.463 -0.1138  1.1033  0.6641
17722SOL    HW154299   2.659   0.462   4.488  0.5880  1.7298 -0.2622
17722SOL    HW254300   2.613   0.580   4.406 -1.3184  1.5176  0.4664
17723SOL     OW54301   6.731   7.959   9.030  0.5898  0.8979  0.0469
17723SOL    HW154302   6.655   7.903   9.042 -0.1778  1.7472 -0.6733
17723SOL    HW254303   6.706   8.043   9.069  1.1069  1.2273 -0.3048
17724SOL     OW54304   4.621   2.361   0.426  0.5225  0.7776 -0.4034
17724SOL    HW154305   4.708   2.399   0.430  0.1389  1.7603 -1.0638
17724SOL    HW254306   4.621   2.310   0.345  1.0250 -0.6571  0.4621
17725SOL     OW54307   8.469   6.564   7.027 -0.3591 -0.3677 -0.6213
17725SOL    HW154308   8.458   6.634   6.962 -2.2957  0.9850  1.0248
17725SOL    HW254309   8.406   6.497   7.001 -1.1344  0.1736 -0.2179
17726SOL     OW54310   1.620   7.881   1.222  0.5319 -0.1609  0.0244
17726SOL    HW154311   1.628   7.814   1.154 -3.0304 -0.2316 -0.5032
17726SOL    HW254312   1.639   7.964   1.177  0.2838 -0.4002 -0.5274
17727SOL     OW54313   8.736   0.817   8.796  0.0772  0.4473  0.0465
17727SOL    HW154314   8.777   0.746   8.747  0.2162  1.1437 -0.8643
17727SOL    HW254315   8.688   0.867   8.731  0.6333  1.6487  0.5379
17728SOL     OW54316   5.161   8.558   6.407  0.2189 -0.3027  0.7642
17728SOL    HW154317   5.113   8.552   6.324 -0.5597  0.9608  1.0906
17728SOL    HW254318   5.162   8.651   6.427  0.6463 -0.5668  2.0389
17729SOL     OW54319   2.810   2.969   1.235 -0.0166 -0.2407  0.1102
17729SOL    HW154320   2.847   2.896   1.184 -0.6689 -0.5547  0.0752
17729SOL    HW254321   2.749   2.927   1.296 -0.0107  0.2343  0.4462
17730SOL     OW54322   5.565   5.618   4.842  0.0410  0.2148 -0.2496
17730SOL    HW154323   5.580   5.565   4.920 -0.4977 -0.2125 -0.4277
17730SOL    HW254324   5.567   5.556   4.770 -0.5479  0.4312 -0.4629
17731SOL     OW54325   3.392   7.360   6.030 -0.1272  0.3239  0.3184
17731SOL    HW154326   3.428   7.419   6.096  1.3413 -0.6357  0.4208
17731SOL    HW254327   3.465   7.343   5.971 -1.0693  0.1483 -0.8268
17732SOL     OW54328   2.385   8.817   1.712 -0.6761  0.1962 -0.0076
17732SOL    HW154329   2.294   8.788   1.715 -1.8199  3.3235 -0.5626
17732SOL    HW254330   2.393   8.862   1.628  0.8004  1.6308  0.8303
17733SOL     OW54331   2.101   0.828   1.945 -0.4835  0.2860 -0.0237
17733SOL    HW154332   2.116   0.922   1.934  0.3403  0.2073  0.3791
17733SOL    HW254333   2.143   0.807   2.028 -1.5907 -0.2396  0.4239
17734SOL     OW54334   6.830   4.894   4.506 -0.0949  0.0856 -0.5624
17734SOL    HW154335   6.841   4.983   4.538 -2.2319  0.7091 -1.3370
17734SOL    HW254336   6.869   4.894   4.419 -1.7978  0.8922 -1.3757
17735SOL     OW54337   2.007   2.164   2.385 -0.3615  0.1983  0.4428
17735SOL    HW154338   1.917   2.130   2.379 -1.1329  2.3568 -2.0790
17735SOL    HW254339   2.000   2.242   2.440  0.3149 -0.4303  1.4657
17736SOL     OW54340   4.459   5.441   7.150  0.2929 -0.7104  0.0329
17736SOL    HW154341   4.430   5.367   7.204  1.0135 -0.1524  1.2238
17736SOL    HW254342   4.518   5.490   7.206 -3.4058  3.3145  0.9530
17737SOL     OW54343   7.739   0.223   7.345  0.2312  0.1924  0.8256
17737SOL    HW154344   7.707   0.297   7.294 -0.0825 -0.1791  0.4784
17737SOL    HW254345   7.686   0.149   7.316  1.8517 -0.5940 -0.2715
17738SOL     OW54346   2.703   8.107   0.756 -0.1270 -0.0690  0.3241
17738SOL    HW154347   2.770   8.152   0.807 -0.2241 -0.2476  0.6090
17738SOL    HW254348   2.652   8.058   0.821 -1.9165  1.7932  0.4502
17739SOL     OW54349   9.051   4.672   1.498  0.1818 -0.0464 -0.1885
17739SOL    HW154350   9.010   4.610   1.439  1.6147  0.3654 -1.6951
17739SOL    HW254351   9.112   4.721   1.443  1.2398  0.6834  1.5334
17740SOL     OW54352   4.687   4.297   7.761 -0.1079 -0.1149  0.5272
17740SOL    HW154353   4.602   4.339   7.748  0.6014  1.3308  0.3622
17740SOL    HW254354   4.742   4.331   7.690  0.0421 -2.7143 -0.7337
17741SOL     OW54355   9.045   1.035   1.322  0.0822 -0.1291 -0.2783
17741SOL    HW154356   8.991   1.072   1.393  1.0124 -0.7826  0.8147
17741SOL    HW254357   9.046   0.941   1.341 -0.4465 -0.4417 -1.7378
17742SOL     OW54358   0.525   7.099   8.514 -0.0847 -0.1040 -0.1916
17742SOL    HW154359   0.484   7.134   8.593 -0.9569 -0.6549 -0.3828
17742SOL    HW254360   0.521   7.171   8.451 -2.4095 -0.6429 -0.7795
17743SOL     OW54361   7.443   1.605   3.983 -0.0696  0.1476 -0.5583
17743SOL    HW154362   7.381   1.628   4.052  0.2849  0.3758 -0.3146
17743SOL    HW254363   7.529   1.620   4.022  0.1973 -1.6672 -0.3303
17744SOL     OW54364   7.132   8.512   4.816 -0.9050  0.0469  0.7687
17744SOL    HW154365   7.140   8.602   4.784  0.6716 -0.3309  0.0165
17744SOL    HW254366   7.155   8.457   4.741 -0.9493 -0.9561  1.4691
17745SOL     OW54367   7.550   9.117   7.471  0.2519  0.2689 -0.2032
17745SOL    HW154368   7.604   9.038   7.469 -1.0185 -0.6156 -0.5279
17745SOL    HW254369   7.543   9.138   7.565 -0.0396 -0.4522 -0.0583
17746SOL     OW54370   7.061   1.729   8.145 -0.2383 -0.2729  0.1138
17746SOL    HW154371   7.003   1.769   8.080  0.3405 -0.8062 -0.7493
17746SOL    HW254372   7.106   1.802   8.187  0.5512  0.0041 -1.1930
17747SOL     OW54373   7.299   5.206   6.368  0.1993 -0.3795  0.3379
17747SOL    HW154374   7.333   5.157   6.293 -0.2848 -0.4373  0.1458
17747SOL    HW254375   7.230   5.261   6.330  1.8440  1.7250  0.2404
17748SOL     OW54376   5.527   8.966   0.118 -0.4427 -0.3215  0.2287
17748SOL    HW154377   5.555   9.016   0.041  1.0338 -0.5397  0.5956
17748SOL    HW254378   5.450   9.013   0.150 -0.0637  0.7755 -0.3908
17749SOL     OW54379   7.068   8.468   1.980 -0.2253  0.0536  0.2975
17749SOL    HW154380   7.029   8.384   2.005 -0.8304 -0.2622 -1.5496
17749SOL    HW254381   7.067   8.519   2.060 -0.3233 -1.5229  1.3476
17750SOL     OW54382   0.150   7.962   7.036 -0.7373 -0.1669 -0.3875
17750SOL    HW154383   0.081   7.998   6.981 -1.7823 -0.9509  0.3633
17750SOL    HW254384   0.193   8.039   7.074 -0.8215  0.3423 -1.3069
17751SOL     OW54385   2.825   9.080   2.699 -0.5575  0.0735 -0.1300
17751SOL    HW154386   2.883   9.090   2.623 -0.3871  1.1256  0.1113
17751SOL    HW254387   2.881   9.102   2.774 -1.4575  2.0279  0.0410
17752SOL     OW54388   6.995   7.086   8.400  0.8019  0.2108  0.6623
17752SOL    HW154389   7.053   7.134   8.459 -0.2799  1.9491  0.3784
17752SOL    HW254390   6.907   7.100   8.435  0.3892 -1.1858  0.2774
17753SOL     OW54391   0.245   6.464   1.357  0.2491  0.4883  0.2491
17753SOL    HW154392   0.166   6.516   1.339  0.3658  0.3908 -0.6039
17753SOL    HW254393   0.223   6.376   1.326  0.8278  0.5554 -0.3816
17754SOL     OW54394   6.422   3.754   6.226  0.1405  0.8479 -0.1235
17754SOL    HW154395   6.471   3.808   6.288 -1.0921  2.7287 -0.7021
17754SOL    HW254396   6.353   3.812   6.193 -0.1777 -0.5659 -2.1052
17755SOL     OW54397   4.417   1.744   8.119 -0.6057  0.1010  0.2630
17755SOL    HW154398   4.323   1.724   8.113 -0.6796  0.2920  0.7668
17755SOL    HW254399   4.433   1.805   8.047 -0.5582 -1.0789 -0.7567
17756SOL     OW54400   3.058   2.828   3.381  0.3167 -0.3664  0.4530
17756SOL    HW154401   3.065   2.869   3.295  1.2851 -0.7856  0.3168
17756SOL    HW254402   3.000   2.886   3.431  0.0623  0.0896 -0.3496
17757SOL     OW54403   7.821   4.617   8.449  0.0345  0.0221  0.3640
17757SOL    HW154404   7.814   4.573   8.533  0.7096  0.7679  0.8216
17757SOL    HW254405   7.904   4.664   8.453 -0.6129  1.2496 -0.1490
17758SOL     OW54406   2.318   7.484   2.752  0.2747  0.0155  0.0909
17758SOL    HW154407   2.265   7.410   2.725 -1.8233  1.4228  0.0790
17758SOL    HW254408   2.394   7.482   2.695 -0.2085 -1.5628 -0.5435
17759SOL     OW54409   3.439   5.614   7.213 -0.3622  0.5620  0.2584
17759SOL    HW154410   3.490   5.633   7.292 -1.4266  1.3810  0.7706
17759SOL    HW254411   3.373   5.550   7.241  0.6995 -0.9456 -0.5412
17760SOL     OW54412   6.539   4.275   9.072 -0.0291 -0.0974 -0.3355
17760SOL    HW154413   6.530   4.221   8.994  0.0281  0.1010 -0.4829
17760SOL    HW254414   6.589   4.351   9.042 -2.7593  1.6037 -0.9194
17761SOL     OW54415   6.779   2.585   8.864 -0.0311 -0.1172  0.0041
17761SOL    HW154416   6.849   2.604   8.927 -0.4805 -2.0319  1.1835
17761SOL    HW254417   6.813   2.512   8.812  0.6131  1.8784 -2.5574
17762SOL     OW54418   1.400   5.952   7.226  0.2081  0.0426  0.9234
17762SOL    HW154419   1.310   5.962   7.257 -0.5520 -0.5821 -0.9605
17762SOL    HW254420   1.405   6.007   7.149  0.3905 -2.3910 -0.9270
17763SOL     OW54421   5.580   5.632   3.042 -0.4212  0.5134 -0.4827
17763SOL    HW154422   5.617   5.552   3.006 -1.3264 -0.0548 -0.1806
17763SOL    HW254423   5.501   5.604   3.089 -0.2705  1.4618  0.3934
17764SOL     OW54424   3.717   5.881   2.829 -0.3930  0.1418  0.9555
17764SOL    HW154425   3.640   5.846   2.784  0.2180 -0.9353  0.7235
17764SOL    HW254426   3.756   5.942   2.766 -0.5285 -0.0235  0.7120
17765SOL     OW54427   5.237   0.777   3.227 -0.3485 -0.0924 -0.2800
17765SOL    HW154428   5.231   0.689   3.264 -1.3576  0.4622  0.9773
17765SOL    HW254429   5.285   0.827   3.293 -0.2400  0.4159 -0.7417
17766SOL     OW54430   8.572   6.626   8.358  0.1822  0.0172 -0.0083
17766SOL    HW154431   8.571   6.570   8.436 -3.6801  0.3349  0.3764
17766SOL    HW254432   8.631   6.581   8.298 -0.3211 -2.8502  1.4270
17767SOL     OW54433   7.058   6.309   1.457  0.1586  0.0333  0.0541
17767SOL    HW154434   7.063   6.235   1.518 -0.1442 -1.3918 -1.5584
17767SOL    HW254435   7.146   6.316   1.420 -0.2325 -0.7139 -1.0817
17768SOL     OW54436   0.261   7.087   0.586  0.3734  0.2669 -0.1374
17768SOL    HW154437   0.345   7.133   0.583  0.2034  0.6579  0.6791
17768SOL    HW254438   0.201   7.149   0.629 -0.3166 -0.0309 -0.6541
17769SOL     OW54439   1.589   6.175   4.505 -0.3413  1.0575  0.0325
17769SOL    HW154440   1.637   6.092   4.496  0.4529  1.5005  0.0837
17769SOL    HW254441   1.514   6.153   4.560 -0.3060  0.3061 -0.2034
17770SOL     OW54442   4.262   1.127   4.002 -0.4263  0.0328  0.5498
17770SOL    HW154443   4.351   1.121   4.038 -0.2244 -1.5381 -0.1523
17770SOL    HW254444   4.270   1.188   3.929  0.3006 -0.7843 -0.0792
17771SOL     OW54445   2.845   1.055   8.539  0.5572  0.0789 -0.0621
17771SOL    HW154446   2.777   1.057   8.472  1.2599  0.4523 -0.7740
17771SOL    HW254447   2.800   1.082   8.620 -0.3801 -0.7608 -0.2927
17772SOL     OW54448   3.223   2.594   4.801 -0.6182  0.3059  0.1054
17772SOL    HW154449   3.265   2.679   4.812 -0.8384  0.4818 -0.3758
17772SOL    HW254450   3.260   2.559   4.720  0.1973 -0.4927  0.8057
17773SOL     OW54451   4.865   0.012   8.553 -0.7360  0.4093  0.2125
17773SOL    HW154452   4.952   0.019   8.593 -0.4458 -0.6335 -0.2022
17773SOL    HW254453   4.883  -0.003   8.461 -1.3344 -0.5192  0.2338
17774SOL     OW54454   0.299   3.804   0.857 -0.0831 -0.2764 -0.1856
17774SOL    HW154455   0.214   3.849   0.853  0.6865  1.4990  1.7014
17774SOL    HW254456   0.354   3.854   0.796  0.0179 -0.4816 -0.2617
17775SOL     OW54457   7.579   2.439   4.167  0.0079  0.7679  0.6696
17775SOL    HW154458   7.571   2.516   4.223  0.0892  2.0552 -1.0319
17775SOL    HW254459   7.490   2.404   4.162 -0.2291  1.3728  0.6114
17776SOL     OW54460   7.898   5.340   3.038  0.0379  0.2535  0.2578
17776SOL    HW154461   7.928   5.255   3.071 -0.7591  0.3031  1.1426
17776SOL    HW254462   7.977   5.393   3.033  0.4508 -0.3449  0.2838
17777SOL     OW54463   6.946   4.134   2.720  0.6480  0.2488  0.6043
17777SOL    HW154464   6.925   4.066   2.783  0.6451  0.8019  1.2062
17777SOL    HW254465   6.986   4.087   2.646  1.6671 -0.2959  1.4766
17778SOL     OW54466   8.149   8.731   2.946 -0.7092  0.2637  0.1299
17778SOL    HW154467   8.145   8.826   2.958  0.4393  0.2998  0.3306
17778SOL    HW254468   8.099   8.715   2.866 -0.0389  1.1646 -0.4899
17779SOL     OW54469   3.324   7.964   1.724  0.2731 -0.6599  0.6644
17779SOL    HW154470   3.416   7.950   1.700  0.0147 -0.5873 -0.4407
17779SOL    HW254471   3.276   7.951   1.642 -0.7926 -1.4822  1.3872
17780SOL     OW54472   5.689   4.841   8.042  0.4180  0.2058 -0.1894
17780SOL    HW154473   5.686   4.793   7.959 -2.7774 -1.6713  0.7894
17780SOL    HW254474   5.713   4.775   8.107 -0.3134  0.8272  0.7452
17781SOL     OW54475   5.156   1.727   6.802 -0.1993  0.0688  0.1992
17781SOL    HW154476   5.157   1.641   6.844 -1.0176 -0.7107 -1.3106
17781SOL    HW254477   5.086   1.721   6.737  0.9321  1.2833 -1.1803
17782SOL     OW54478   6.292   1.691   0.388 -0.5630 -0.4132  0.0833
17782SOL    HW154479   6.287   1.701   0.483 -1.1395 -2.4600  0.3264
17782SOL    HW254480   6.376   1.647   0.373  0.2271  1.2188 -0.5350
17783SOL     OW54481   1.394   4.067   0.555  0.0525  0.0164 -0.1222
17783SOL    HW154482   1.330   4.083   0.625 -0.5283 -2.5431  0.0207
17783SOL    HW254483   1.341   4.063   0.475  0.5113  1.3144 -0.5071
17784SOL     OW54484   4.089   5.972   8.847 -0.6492 -0.0701 -0.5685
17784SOL    HW154485   4.057   6.053   8.886 -0.3358  1.3323 -3.0502
17784SOL    HW254486   4.112   5.995   8.757  0.2133 -2.7417 -1.1386
17785SOL     OW54487   7.992   5.751   0.839  0.8185 -0.0588 -0.0464
17785SOL    HW154488   7.993   5.706   0.923  1.4047 -2.2923 -1.1596
17785SOL    HW254489   7.983   5.844   0.861 -0.4670 -0.6775  2.3932
17786SOL     OW54490   5.706   5.824   6.092 -0.0962 -0.3122  0.0359
17786SOL    HW154491   5.783   5.774   6.067 -0.5661 -0.8299 -0.4183
17786SOL    HW254492   5.738   5.889   6.155  0.4849 -1.3596  0.8635
17787SOL     OW54493   1.359   5.848   6.735  0.6202  0.1491  0.4398
17787SOL    HW154494   1.315   5.834   6.651 -1.7525 -0.3654  1.6759
17787SOL    HW254495   1.330   5.934   6.764  2.2568  0.7817  0.3016
17788SOL     OW54496   3.080   3.624   8.184  0.1593  0.4701  0.2634
17788SOL    HW154497   3.004   3.567   8.183  0.2927  0.2385 -1.5504
17788SOL    HW254498   3.145   3.578   8.130  1.8192  0.3981  2.1864
17789SOL     OW54499   7.499   5.423   3.786  0.4552  0.2304  0.1413
17789SOL    HW154500   7.425   5.388   3.736  0.5175  0.6133 -0.2248
17789SOL    HW254501   7.528   5.350   3.840  0.2162 -0.1106 -0.1859
17790SOL     OW54502   4.763   2.429   8.702  0.5551  0.2379 -0.2574
17790SOL    HW154503   4.839   2.433   8.759  1.8493 -0.9925 -1.7988
17790SOL    HW254504   4.740   2.336   8.699 -1.0765  0.5851  0.2242
17791SOL     OW54505   5.873   7.075   3.421 -0.1677 -0.0481 -0.6135
17791SOL    HW154506   5.962   7.108   3.432 -0.2017 -0.2245  0.2101
17791SOL    HW254507   5.871   6.994   3.472 -0.6026 -0.4076 -1.1907
17792SOL     OW54508   2.361   8.136   6.667 -0.0500  0.7684  0.1524
17792SOL    HW154509   2.341   8.131   6.573  1.6445  1.4576 -0.2736
17792SOL    HW254510   2.330   8.223   6.692 -0.0368  0.7816  0.1248
17793SOL     OW54511   2.210   2.563   1.424 -0.5812  0.1628  0.0594
17793SOL    HW154512   2.262   2.510   1.363 -0.8997  0.0269 -0.0981
17793SOL    HW254513   2.134   2.508   1.445 -0.7183  0.4023  0.1967
17794SOL     OW54514   2.655   7.358   0.190 -0.1395 -0.6155  0.0703
17794SOL    HW154515   2.651   7.277   0.242 -0.3384 -0.9038 -0.3949
17794SOL    HW254516   2.574   7.360   0.141 -0.4102  0.1815  0.5300
17795SOL     OW54517   6.244   5.181   0.344  0.2190  0.2132  0.7575
17795SOL    HW154518   6.232   5.164   0.438 -0.7899  0.1954  0.6398
17795SOL    HW254519   6.325   5.136   0.322  0.1581 -0.2892  1.5020
17796SOL     OW54520   6.295   0.749   5.717 -0.0352  0.4484 -0.2627
17796SOL    HW154521   6.350   0.752   5.639 -0.6590  0.0008 -0.7396
17796SOL    HW254522   6.340   0.689   5.776  0.0608  0.1902 -0.5936
17797SOL     OW54523   3.833   0.797   1.289 -0.1296  0.3748  0.1434
17797SOL    HW154524   3.798   0.886   1.297 -1.1962 -0.1138  1.2400
17797SOL    HW254525   3.902   0.804   1.224 -0.4363  1.9399 -0.0471
17798SOL     OW54526   8.594   3.543   3.172  0.0244 -0.1693 -0.4156
17798SOL    HW154527   8.648   3.613   3.209  0.6193 -1.3837  1.1495
17798SOL    HW254528   8.511   3.585   3.150 -0.1782  0.7855  1.8866
17799SOL     OW54529   4.181   1.666   7.969  1.0338 -0.0147 -0.3272
17799SOL    HW154530   4.118   1.595   7.960  2.1918 -1.1752  0.4445
17799SOL    HW254531   4.192   1.700   7.880  0.3962 -0.7298 -0.6866
17800SOL     OW54532   0.099   2.880   7.671 -0.2318  0.0991 -0.1972
17800SOL    HW154533   0.044   2.802   7.675 -0.7474  0.4073 -0.9680
17800SOL    HW254534   0.097   2.917   7.759 -1.6151  0.3437 -0.3151
17801SOL     OW54535   2.754   1.310   2.057 -0.5408  0.5234  0.3165
17801SOL    HW154536   2.805   1.347   2.129 -0.4397  0.8893  0.0606
17801SOL    HW254537   2.664   1.307   2.090 -0.6684  1.6267  0.1159
17802SOL     OW54538   8.270   7.072   6.440  0.1422  0.1181 -0.2175
17802SOL    HW154539   8.299   7.094   6.351 -0.4353 -0.0541 -0.4514
17802SOL    HW254540   8.263   7.157   6.484  0.0196  0.2418 -0.4682
17803SOL     OW54541   3.893   1.289   3.467 -0.2782 -0.3981 -0.1987
17803SOL    HW154542   3.931   1.300   3.554 -0.4563 -0.0037 -0.1700
17803SOL    HW254543   3.961   1.243   3.417  0.1354  0.0706 -0.0774
17804SOL     OW54544   6.300   4.966   2.816 -0.3117  0.5424 -0.4450
17804SOL    HW154545   6.216   4.922   2.825 -0.2975  0.0518 -2.2801
17804SOL    HW254546   6.298   5.005   2.728  1.6645 -0.1862 -0.8764
17805SOL     OW54547   4.423   8.544   0.498  0.1545  0.1867 -0.1503
17805SOL    HW154548   4.474   8.559   0.418  0.0818  0.9368 -0.0674
17805SOL    HW254549   4.467   8.472   0.542  0.7656  0.4005 -0.4049
17806SOL     OW54550   5.591   1.260   3.581 -0.0762  0.5042  0.7288
17806SOL    HW154551   5.516   1.289   3.529  1.3297  2.3124 -0.4317
17806SOL    HW254552   5.597   1.323   3.653  0.6130  0.6678  0.5350
17807SOL     OW54553   5.290   2.716   7.289 -0.0420  0.1299 -0.2754
17807SOL    HW154554   5.228   2.776   7.246 -2.7698 -0.5772  2.3137
17807SOL    HW254555   5.238   2.636   7.304  1.1453 -0.1727  2.8932
17808SOL     OW54556   4.433   7.141   1.261  0.0421 -0.0034  0.2026
17808SOL    HW154557   4.416   7.077   1.193 -0.5391  0.1657  0.1795
17808SOL    HW254558   4.505   7.194   1.227 -1.7011  1.5400 -1.3476
17809SOL     OW54559   0.507   4.026   2.060  0.0133  0.7286  0.3455
17809SOL    HW154560   0.476   4.113   2.035  1.1863  0.5327 -2.0919
17809SOL    HW254561   0.477   4.015   2.150 -2.7411  2.4219 -0.2409
17810SOL     OW54562   3.514   8.594   7.768 -0.3349 -0.1191 -0.0647
17810SOL    HW154563   3.560   8.531   7.712  1.4630 -0.7254  1.9687
17810SOL    HW254564   3.577   8.666   7.778 -0.8881  0.2699  0.6736
17811SOL     OW54565   3.748   8.665   3.479  0.0482 -0.0521  0.0209
17811SOL    HW154566   3.811   8.703   3.541  0.7168 -0.0897 -0.6237
17811SOL    HW254567   3.781   8.577   3.461  0.5907  0.4039 -1.3697
17812SOL     OW54568   4.684   7.755   0.328  0.0825  0.3329  0.4757
17812SOL    HW154569   4.696   7.680   0.270  2.4786  1.3942 -0.5177
17812SOL    HW254570   4.713   7.724   0.414  0.2216 -0.1163  0.2716
17813SOL     OW54571   6.106   3.789   7.747 -0.2590 -0.3699 -0.0059
17813SOL    HW154572   6.116   3.800   7.653 -2.7048 -0.5378 -0.3538
17813SOL    HW254573   6.098   3.878   7.781  1.7971 -0.2430  0.2554
17814SOL     OW54574   4.852   0.922   7.238  0.3665  0.0355 -0.5466
17814SOL    HW154575   4.876   0.967   7.156 -0.8746  1.6992 -0.0369
17814SOL    HW254576   4.811   0.989   7.291 -2.4501 -1.8855 -0.0760
17815SOL     OW54577   8.587   3.924   0.115  0.0245 -0.1861 -0.4951
17815SOL    HW154578   8.564   3.988   0.047 -0.3220 -0.5152 -0.6880
17815SOL    HW254579   8.544   3.843   0.088  1.2161 -0.7578 -0.7450
17816SOL     OW54580   8.900   3.909   1.634 -0.1712  0.4641 -0.0815
17816SOL    HW154581   8.842   3.833   1.644  1.6659 -0.8851  1.1910
17816SOL    HW254582   8.873   3.969   1.703 -1.0991  0.6138 -0.5609
17817SOL     OW54583   7.179   0.216   6.075  0.1648 -0.5094 -0.1701
17817SOL    HW154584   7.135   0.197   6.158  1.3246  0.5253  0.7241
17817SOL    HW254585   7.115   0.270   6.027 -0.1636 -0.3275  0.4507
17818SOL     OW54586   7.717   7.335   0.476 -0.0112 -0.3658  0.5512
17818SOL    HW154587   7.637   7.333   0.529  0.1862 -0.4599  0.8463
17818SOL    HW254588   7.695   7.286   0.397  0.2533 -1.7943  1.3298
17819SOL     OW54589   7.999   6.455   3.458 -0.3902 -0.8608 -0.1460
17819SOL    HW154590   8.054   6.520   3.501 -0.2581 -0.6482 -0.6246
17819SOL    HW254591   7.909   6.487   3.470 -0.4086 -1.1609  0.5556
17820SOL     OW54592   4.923   6.230   8.199 -0.7746 -0.5605 -0.5057
17820SOL    HW154593   5.002   6.284   8.198 -1.7340  0.8954 -0.5517
17820SOL    HW254594   4.895   6.232   8.291 -0.5170 -1.4629 -0.3999
17821SOL     OW54595   7.858   7.147   2.829 -0.2735  0.1204 -0.1214
17821SOL    HW154596   7.885   7.235   2.854 -0.1339  0.0032  0.1343
17821SOL    HW254597   7.844   7.101   2.911 -0.2228 -0.1353 -0.2542
17822SOL     OW54598   2.138   1.984   5.871  0.1874  0.8158 -0.5477
17822SOL    HW154599   2.043   1.971   5.866  0.1056  1.0007  0.3118
17822SOL    HW254600   2.148   2.080   5.870  0.3167  0.8107 -0.0010
17823SOL     OW54601   6.910   8.112   4.660  0.1652  0.1776  0.7677
17823SOL    HW154602   6.851   8.046   4.695  0.2393  0.0409  0.6361
17823SOL    HW254603   6.871   8.138   4.577  1.4795 -1.6225 -0.5002
17824SOL     OW54604   3.262   0.301   1.776  0.3302  0.5993 -0.1763
17824SOL    HW154605   3.245   0.272   1.687  0.4858 -0.6268  0.1806
17824SOL    HW254606   3.209   0.244   1.831  0.5658  1.0583  0.5502
17825SOL     OW54607   6.151   0.431   9.048  0.6384 -0.0132  0.6723
17825SOL    HW154608   6.070   0.449   9.002  1.3040  0.0305 -0.5296
17825SOL    HW254609   6.162   0.504   9.108  0.0861  0.2768  0.4203
17826SOL     OW54610   1.155   3.648   2.907  0.5836 -0.2091 -0.0007
17826SOL    HW154611   1.208   3.726   2.887  0.8747  0.0620  1.6818
17826SOL    HW254612   1.071   3.665   2.864  0.8302  0.8029 -0.1148
17827SOL     OW54613   1.658   1.430   7.505  0.3004 -0.1528  0.6127
17827SOL    HW154614   1.690   1.502   7.450 -1.3906  0.0867 -0.0979
17827SOL    HW254615   1.573   1.460   7.537  1.0188 -0.4762  3.0262
17828SOL     OW54616   2.118   7.464   4.096 -0.2478 -0.1351 -0.4331
17828SOL    HW154617   2.186   7.417   4.143 -1.0408 -0.3945  0.4915
17828SOL    HW254618   2.165   7.529   4.044  0.6115  0.7079  1.3376
17829SOL     OW54619   8.153   7.399   0.140  0.2239 -0.5010  0.3234
17829SOL    HW154620   8.245   7.418   0.158  0.0837  0.9045 -0.3211
17829SOL    HW254621   8.151   7.374   0.048 -0.1924  0.7041 -0.0096
17830SOL     OW54622   2.536   3.680   3.611 -0.5761  0.6566 -0.1592
17830SOL    HW154623   2.472   3.609   3.613  1.8957 -1.7487  0.8110
17830SOL    HW254624   2.556   3.692   3.518  0.0624 -1.0616 -0.2806
17831SOL     OW54625   2.176   3.763   6.242 -0.8108  0.1591 -0.0085
17831SOL    HW154626   2.144   3.824   6.176 -2.6785 -0.6400  0.0805
17831SOL    HW254627   2.128   3.787   6.322 -0.0192 -0.1156  0.5645
17832SOL     OW54628   6.839   7.541   8.727  0.0727 -0.0712 -0.4790
17832SOL    HW154629   6.866   7.618   8.777 -0.4282  0.1170 -0.4949
17832SOL    HW254630   6.746   7.531   8.746  0.4086 -1.4556  0.5424
17833SOL     OW54631   3.808   0.976   5.945  0.3535  0.2856 -0.0125
17833SOL    HW154632   3.746   0.936   6.006  0.7945  1.8340  1.5572
17833SOL    HW254633   3.793   1.070   5.955  0.2421  0.6203 -2.5761
17834SOL     OW54634   5.660   1.641   3.958 -0.5702  0.0565  0.0120
17834SOL    HW154635   5.672   1.732   3.930 -0.2535 -0.0790 -0.2967
17834SOL    HW254636   5.588   1.608   3.903 -0.8895  0.2073  0.3335
17835SOL     OW54637   8.095   2.346   8.667 -0.1455  0.3407  0.5189
17835SOL    HW154638   8.044   2.372   8.590 -0.7251  1.8514  1.3594
17835SOL    HW254639   8.128   2.259   8.647 -0.6568  0.5311 -1.2482
17836SOL     OW54640   5.290   0.450   1.018 -0.2357  0.2189  0.1736
17836SOL    HW154641   5.295   0.489   0.931  2.0441 -0.5972 -0.1277
17836SOL    HW254642   5.286   0.525   1.077 -0.5444  0.8062 -0.5676
17837SOL     OW54643   5.160   9.112   8.125  0.9624  0.0054 -0.3298
17837SOL    HW154644   5.076   9.129   8.169  0.6756  1.5511 -1.4117
17837SOL    HW254645   5.150   9.024   8.089  0.1360 -0.1775  0.3089
17838SOL     OW54646   2.803   5.221   3.769  0.1438 -0.2643  0.0417
17838SOL    HW154647   2.887   5.265   3.762  0.1961 -0.4532 -0.6758
17838SOL    HW254648   2.745   5.272   3.712  0.2372 -1.1681 -0.8985
17839SOL     OW54649   1.122   6.868   3.017 -0.3745 -0.1960 -0.0644
17839SOL    HW154650   1.075   6.942   3.055  0.2771 -0.1414  0.6721
17839SOL    HW254651   1.213   6.898   3.012 -0.4448 -0.1842 -1.7401
17840SOL     OW54652   7.569   8.348   0.945  0.0037 -0.0527  0.6909
17840SOL    HW154653   7.625   8.278   0.979 -0.6716 -0.5299  0.8454
17840SOL    HW254654   7.482   8.327   0.979 -0.4436  0.1733 -0.2886
17841SOL     OW54655   1.148   6.112   2.335 -0.0495  0.1006 -0.1759
17841SOL    HW154656   1.109   6.060   2.265 -3.1316  1.9884 -0.0282
17841SOL    HW254657   1.150   6.201   2.301  1.0809  0.6131  1.1292
17842SOL     OW54658   6.381   0.027   1.988  0.3223 -0.2785  0.3404
17842SOL    HW154659   6.452  -0.036   2.002  1.2369  1.2407  3.2942
17842SOL    HW254660   6.416   0.110   2.019 -2.4267  0.7378  0.9888
17843SOL     OW54661   9.084   5.332   3.063  0.0833  0.6470  0.0558
17843SOL    HW154662   9.124   5.273   3.127  1.4823  2.1237  0.6052
17843SOL    HW254663   8.992   5.335   3.088 -0.3318 -2.2028 -0.7460
17844SOL     OW54664   0.141   2.463   5.413  0.2086 -0.4744 -0.0717
17844SOL    HW154665   0.198   2.504   5.349 -1.3407 -0.6798 -1.6708
17844SOL    HW254666   0.073   2.529   5.430 -0.4376 -1.1089 -0.1081
17845SOL     OW54667   0.682   2.300   0.104 -0.0204 -0.0914 -0.0099
17845SOL    HW154668   0.684   2.395   0.110 -0.7970 -0.0346 -0.5702
17845SOL    HW254669   0.626   2.281   0.029 -0.2396 -1.0062  0.3678
17846SOL     OW54670   5.158   3.315   3.436  0.1008 -0.1604 -0.4939
17846SOL    HW154671   5.071   3.279   3.453  0.2989 -0.2802  0.2690
17846SOL    HW254672   5.143   3.410   3.427 -0.1244 -0.1968 -0.5131
17847SOL     OW54673   0.583   8.803   8.395 -0.1993 -0.4504  0.3870
17847SOL    HW154674   0.500   8.778   8.435  0.1166 -0.8775  0.7766
17847SOL    HW254675   0.649   8.783   8.461  0.1460  0.6562  0.4014
17848SOL     OW54676   1.758   7.634   7.039  0.3538  0.3716  0.6520
17848SOL    HW154677   1.745   7.727   7.019  0.4447  0.4110  0.7813
17848SOL    HW254678   1.786   7.633   7.130 -0.3818  0.1687  0.8885
17849SOL     OW54679   5.408   5.003   1.748  0.1928 -0.0732 -0.0596
17849SOL    HW154680   5.353   5.071   1.709 -0.8012  0.8910  2.8039
17849SOL    HW254681   5.459   4.969   1.674 -1.8077  1.3025 -2.2441
17850SOL     OW54682   8.591   6.930   9.036  0.2745 -0.7083 -0.1387
17850SOL    HW154683   8.601   6.900   8.946 -0.7214  2.1377 -1.3171
17850SOL    HW254684   8.530   6.867   9.075  0.7909 -2.0477 -1.4033
17851SOL     OW54685   1.870   0.834   0.143 -0.6794  0.2587 -0.4286
17851SOL    HW154686   1.881   0.886   0.063 -0.5669 -0.7269 -1.0841
17851SOL    HW254687   1.785   0.861   0.178 -0.3095  1.3737 -0.3582
17852SOL     OW54688   1.168   5.434   8.239  0.5976 -0.6520 -0.0922
17852SOL    HW154689   1.223   5.481   8.302  0.7060 -2.2095  1.0189
17852SOL    HW254690   1.081   5.434   8.278 -0.2262  1.5034 -1.6836
17853SOL     OW54691   1.477   1.156   1.864 -0.1227  0.5915 -0.6542
17853SOL    HW154692   1.466   1.163   1.959 -0.5804  1.2150 -0.7404
17853SOL    HW254693   1.405   1.209   1.828  1.1452  1.9600 -1.3220
17854SOL     OW54694   2.599   2.583   0.232 -0.4238 -0.0952  0.0216
17854SOL    HW154695   2.568   2.674   0.228  1.0383  0.5211  1.3783
17854SOL    HW254696   2.528   2.532   0.195 -1.6719  1.5259  0.0520
17855SOL     OW54697   4.296   2.731   7.648 -0.1727  0.8204  0.0290
17855SOL    HW154698   4.341   2.652   7.616 -1.3830 -0.0497  0.3918
17855SOL    HW254699   4.366   2.787   7.680  0.6134 -0.9812  1.6703
17856SOL     OW54700   3.645   6.814   3.615  0.2323  0.0534  0.1922
17856SOL    HW154701   3.644   6.796   3.521 -1.6001 -1.2704  0.4140
17856SOL    HW254702   3.693   6.740   3.653 -0.7896 -0.4745  0.4655
17857SOL     OW54703   0.846   7.250   0.093 -0.0118  0.5409  0.1438
17857SOL    HW154704   0.843   7.155   0.090 -1.8661  0.5658 -0.0171
17857SOL    HW254705   0.935   7.271   0.118  0.6280 -1.2155 -0.5451
17858SOL     OW54706   5.923   8.718   4.953  0.1901 -0.1354  0.4235
17858SOL    HW154707   5.889   8.759   5.032 -2.8142  1.2185 -1.4118
17858SOL    HW254708   5.962   8.790   4.903  0.4715 -0.6402 -0.1017
17859SOL     OW54709   5.904   6.359   4.822  0.2378  0.1766  0.3471
17859SOL    HW154710   5.973   6.300   4.793  1.1558  1.7068 -0.6861
17859SOL    HW254711   5.852   6.376   4.744  0.3395  1.1817  0.4793
17860SOL     OW54712   2.122   1.055   8.714  0.3679 -0.3774  0.2726
17860SOL    HW154713   2.091   1.089   8.797 -0.4775 -0.2484 -0.0819
17860SOL    HW254714   2.079   1.110   8.648  0.3701 -0.9996 -0.2603
17861SOL     OW54715   1.542   0.817   9.063 -0.0803 -0.1520 -0.4952
17861SOL    HW154716   1.622   0.811   9.115  0.3593 -0.4454 -1.1950
17861SOL    HW254717   1.509   0.905   9.081 -0.1757 -0.3980  0.6103
17862SOL     OW54718   1.690   6.604   3.429 -0.7528 -0.1651 -1.0027
17862SOL    HW154719   1.671   6.518   3.391  0.4277  0.3488 -2.8974
17862SOL    HW254720   1.671   6.666   3.358 -0.6497  1.0697  0.0169
17863SOL     OW54721   6.088   2.172   7.940 -0.3206 -0.2615 -0.0886
17863SOL    HW154722   6.152   2.237   7.913 -0.4117 -0.7563 -1.6161
17863SOL    HW254723   6.003   2.215   7.929 -0.4228 -0.7849 -1.7533
17864SOL     OW54724   3.601   7.620   1.504 -0.0630  0.2493 -0.0089
17864SOL    HW154725   3.507   7.640   1.502  0.0206  0.6072 -1.0073
17864SOL    HW254726   3.608   7.546   1.565 -1.1780 -0.6741 -0.9483
17865SOL     OW54727   7.056   5.227   4.611  0.5554 -0.2712 -0.2705
17865SOL    HW154728   6.980   5.173   4.591  0.4694  0.3761 -1.8731
17865SOL    HW254729   7.052   5.299   4.547  1.3554  0.9422  0.9858
17866SOL     OW54730   5.124   6.641   3.402  0.2949  0.4698 -0.3192
17866SOL    HW154731   5.159   6.714   3.351  0.5414  0.7033  0.1788
17866SOL    HW254732   5.192   6.574   3.397  0.3872  0.5538 -0.1541
17867SOL     OW54733   3.245   8.660   7.602  0.1226 -0.1973 -0.1818
17867SOL    HW154734   3.269   8.751   7.588  0.1217 -0.4210 -1.8685
17867SOL    HW254735   3.280   8.638   7.688 -0.7184  1.6569  0.6834
17868SOL     OW54736   3.580   2.255   1.802 -0.6308 -0.8381 -0.0163
17868SOL    HW154737   3.487   2.271   1.789 -0.7338 -0.2255  1.2807
17868SOL    HW254738   3.586   2.220   1.891  0.4186 -0.4676  0.0713
17869SOL     OW54739   2.446   2.223   8.409 -0.2419 -0.2299  0.0400
17869SOL    HW154740   2.389   2.299   8.401 -1.6722 -1.4025 -1.5035
17869SOL    HW254741   2.454   2.209   8.504  1.5210  2.8101  0.4779
17870SOL     OW54742   1.987   3.802   0.358  0.2665 -0.2848  0.0071
17870SOL    HW154743   2.033   3.874   0.400 -0.3785 -0.4527  1.0284
17870SOL    HW254744   1.904   3.840   0.330 -0.4056 -0.7875  1.2372
17871SOL     OW54745   2.359   7.055   2.711 -0.0610  0.2631 -0.2511
17871SOL    HW154746   2.264   7.053   2.694 -0.2893 -2.0741  0.9278
17871SOL    HW254747   2.396   6.993   2.649  0.5457  0.2211  0.1530
17872SOL     OW54748   7.359   0.371   4.731 -0.2141  0.6979 -0.3148
17872SOL    HW154749   7.264   0.375   4.731 -0.2794 -0.2388  0.8312
17872SOL    HW254750   7.387   0.462   4.742 -1.0631  0.7235  2.2464
17873SOL     OW54751   8.418   4.014   3.471 -0.3113  0.3344  0.2378
17873SOL    HW154752   8.503   4.025   3.427  0.1568  1.0460  1.2842
17873SOL    HW254753   8.438   3.963   3.549 -0.6167  1.5211  1.1193
17874SOL     OW54754   4.627   6.892   1.377 -0.4374  0.0901  0.1235
17874SOL    HW154755   4.570   6.965   1.401 -1.1331  0.1383 -1.6089
17874SOL    HW254756   4.598   6.819   1.433 -1.2477  0.5114  0.2594
17875SOL     OW54757   6.501   3.729   6.899  0.2874 -0.1365  0.0927
17875SOL    HW154758   6.420   3.691   6.868  0.2558  0.6111 -0.7934
17875SOL    HW254759   6.535   3.778   6.824  0.2087  1.7414  1.2042
17876SOL     OW54760   3.821   2.269   6.689  0.0498  0.4094  0.0420
17876SOL    HW154761   3.881   2.208   6.645 -1.1601 -0.8141 -0.0010
17876SOL    HW254762   3.821   2.347   6.634 -0.4954 -0.6237 -1.5021
17877SOL     OW54763   5.601   3.396   3.660  0.5491  0.0404 -0.0737
17877SOL    HW154764   5.601   3.491   3.643  0.7164 -0.0203 -0.4282
17877SOL    HW254765   5.545   3.360   3.591  1.6711 -0.2722 -0.8576
17878SOL     OW54766   8.590   0.736   6.955  0.5447 -0.2783  0.6255
17878SOL    HW154767   8.630   0.651   6.942 -0.5067 -0.9818  1.7507
17878SOL    HW254768   8.499   0.725   6.928 -0.0554 -0.0395  2.4246
17879SOL     OW54769   7.949   2.402   9.078 -0.3650  0.0365 -0.2335
17879SOL    HW154770   7.918   2.488   9.108 -0.0301  0.0761 -0.0003
17879SOL    HW254771   8.042   2.400   9.101 -0.1474 -0.0219 -1.0586
17880SOL     OW54772   7.455   1.210   2.921 -0.0482 -0.5450  0.4311
17880SOL    HW154773   7.456   1.280   2.856  0.6506 -0.6621  0.3099
17880SOL    HW254774   7.378   1.229   2.975 -0.3706 -0.1832 -0.1368
17881SOL     OW54775   0.328   2.987   7.106  0.5941 -0.1374  0.1507
17881SOL    HW154776   0.412   2.945   7.126  0.8011  0.8555  1.4281
17881SOL    HW254777   0.339   3.078   7.133 -1.0170 -0.0681  0.6680
17882SOL     OW54778   0.732   0.299   2.352  0.6443  0.1228 -0.0853
17882SOL    HW154779   0.802   0.253   2.399  0.1625  0.8235  1.3795
17882SOL    HW254780   0.778   0.363   2.297  1.1978 -0.2818 -0.1002
17883SOL     OW54781   0.952   3.554   1.196 -0.3374 -0.1054 -0.3768
17883SOL    HW154782   0.882   3.600   1.242 -0.7001  0.7624 -1.7325
17883SOL    HW254783   0.920   3.465   1.186 -0.4050 -0.2209  0.6796
17884SOL     OW54784   4.170   3.865   3.915  0.1230 -0.2814  0.4532
17884SOL    HW154785   4.242   3.808   3.941  0.6333  0.4822  0.7487
17884SOL    HW254786   4.134   3.824   3.837  0.2900 -1.1624  0.8263
17885SOL     OW54787   7.882   0.267   1.327  1.0235 -0.1464 -0.0015
17885SOL    HW154788   7.882   0.183   1.281  1.3998 -0.8263  1.1888
17885SOL    HW254789   7.938   0.323   1.274 -0.2765 -0.2026 -1.5271
17886SOL     OW54790   6.315   2.293   0.582 -0.3009  0.0724 -0.8425
17886SOL    HW154791   6.237   2.237   0.591 -0.2319  0.3120  1.8277
17886SOL    HW254792   6.332   2.294   0.488 -0.1374 -4.6308 -1.0970
17887SOL     OW54793   6.172   3.138   3.896  0.3564 -0.1327  0.1388
17887SOL    HW154794   6.110   3.187   3.951 -1.6688  0.4822 -2.5070
17887SOL    HW254795   6.160   3.047   3.921 -0.8347  0.0956  0.4303
17888SOL     OW54796   8.667   0.362   1.831 -0.1579  0.1013  0.3417
17888SOL    HW154797   8.627   0.419   1.897  0.0548  0.0004  0.5543
17888SOL    HW254798   8.611   0.285   1.829  0.2063 -0.1829  0.8726
17889SOL     OW54799   2.696   8.743   8.859  0.7565  0.2816  0.2537
17889SOL    HW154800   2.741   8.780   8.783  0.1997 -0.1425 -0.2943
17889SOL    HW254801   2.758   8.755   8.932  0.9070  1.5477 -0.0600
17890SOL     OW54802   7.729   3.014   2.612  0.0031  0.3374 -0.4783
17890SOL    HW154803   7.814   3.050   2.587  0.8318 -1.0997  0.1307
17890SOL    HW254804   7.698   2.968   2.534 -1.4541  2.9365 -1.5388
17891SOL     OW54805   5.023   3.089   5.791 -0.0287  0.5099 -0.3045
17891SOL    HW154806   5.002   3.183   5.794 -1.1720  0.2617 -0.2675
17891SOL    HW254807   5.001   3.063   5.701 -1.4316 -0.1002  0.1992
17892SOL     OW54808   5.123   1.654   2.576  0.0678  0.0568 -0.3064
17892SOL    HW154809   5.163   1.727   2.623  0.4922 -0.5761  0.3432
17892SOL    HW254810   5.031   1.655   2.603 -0.0266  0.6287 -0.6554
17893SOL     OW54811   0.966   8.526   6.339 -0.1343 -0.5491  0.1860
17893SOL    HW154812   0.890   8.554   6.289  0.3872 -0.1287 -0.3810
17893SOL    HW254813   1.004   8.607   6.374  1.3424 -0.4872 -1.4157
17894SOL     OW54814   1.181   9.056   2.756 -0.6723 -0.3759  0.1585
17894SOL    HW154815   1.160   9.130   2.698  1.7426 -0.7029 -1.2879
17894SOL    HW254816   1.252   9.010   2.711  0.2449 -1.6062  2.6649
17895SOL     OW54817   4.201   8.712   1.826 -0.3135 -0.0279 -0.0652
17895SOL    HW154818   4.286   8.675   1.801 -0.7127 -1.7478  0.9185
17895SOL    HW254819   4.219   8.761   1.906 -0.0307  0.7711 -0.6024
17896SOL     OW54820   2.823   0.330   5.202  0.1759 -0.2756  0.0061
17896SOL    HW154821   2.859   0.397   5.260  1.8611  0.0908 -1.3674
17896SOL    HW254822   2.873   0.251   5.224  1.0544 -0.0578 -1.1097
17897SOL     OW54823   5.831   5.477   3.417  0.4893 -0.4623 -0.1174
17897SOL    HW154824   5.879   5.399   3.389  0.3418 -0.2393 -1.0410
17897SOL    HW254825   5.739   5.451   3.415  0.4258 -0.2179 -0.6236
17898SOL     OW54826   0.887   0.422   2.710  0.4485  0.3932  0.6200
17898SOL    HW154827   0.958   0.443   2.649  0.1941 -0.7684 -0.1113
17898SOL    HW254828   0.812   0.402   2.653  0.3454 -1.2174  1.2725
17899SOL     OW54829   6.164   4.311   5.339  0.1728 -0.2215 -0.1604
17899SOL    HW154830   6.158   4.276   5.251 -0.8463  0.2201 -0.2844
17899SOL    HW254831   6.156   4.234   5.396 -0.4053 -0.3824 -0.4456
17900SOL     OW54832   8.942   1.854   1.490  0.0666  0.4044 -0.1062
17900SOL    HW154833   8.885   1.869   1.566 -1.1429  0.6190 -1.0197
17900SOL    HW254834   8.958   1.941   1.454 -0.5242  0.1919 -0.9004
17901SOL     OW54835   2.201   7.014   1.857  0.2080  0.4129 -0.0173
17901SOL    HW154836   2.116   7.034   1.818 -1.4646  1.0908  3.5689
17901SOL    HW254837   2.238   7.099   1.881  1.0129  0.0204  0.1830
17902SOL     OW54838   2.570   6.690   4.051  0.0844  0.1927  0.3364
17902SOL    HW154839   2.507   6.752   4.015 -0.3611  0.1671  1.0446
17902SOL    HW254840   2.655   6.730   4.037 -0.1535  0.6422  0.1725
17903SOL     OW54841   3.072   2.524   1.500  0.0956  0.7354  0.0832
17903SOL    HW154842   3.159   2.547   1.466  1.0946 -1.8745  0.6459
17903SOL    HW254843   3.046   2.447   1.448 -0.9497  0.2317  1.3119
17904SOL     OW54844   2.950   6.205   6.958  0.3656 -0.6450  0.1702
17904SOL    HW154845   2.891   6.281   6.963  2.2568  0.8247  2.0288
17904SOL    HW254846   2.981   6.206   6.868 -1.3912 -0.6645 -0.4870
17905SOL     OW54847   7.119   1.481   2.028 -0.4719  0.2121 -0.4502
17905SOL    HW154848   7.151   1.473   1.939 -2.5899  1.0934 -1.3668
17905SOL    HW254849   7.096   1.574   2.038  0.2882  0.2643  1.2345
17906SOL     OW54850   6.448   0.588   5.861 -0.1705  0.2908 -0.1084
17906SOL    HW154851   6.533   0.630   5.853 -0.7693  1.7297  0.7722
17906SOL    HW254852   6.468   0.496   5.879  1.1748  0.4418 -0.7370
17907SOL     OW54853   6.919   0.575   6.920  0.4355  0.2029 -0.1640
17907SOL    HW154854   6.991   0.611   6.971  3.0728 -1.3029 -2.5310
17907SOL    HW254855   6.961   0.525   6.850 -2.9432 -1.5466 -1.1993
17908SOL     OW54856   5.767   2.979   5.998 -0.1348 -0.0683 -0.6004
17908SOL    HW154857   5.822   2.920   6.048  0.4307 -0.4832 -1.6933
17908SOL    HW254858   5.817   2.999   5.919  0.0818  2.5599  0.0848
17909SOL     OW54859   6.192   8.201   1.678  0.8999 -0.5116  0.3050
17909SOL    HW154860   6.206   8.279   1.625 -1.5890 -1.0842 -1.3992
17909SOL    HW254861   6.157   8.233   1.761  2.3672  0.2616  0.6597
17910SOL     OW54862   5.568   0.709   2.205  0.0112  0.1754 -0.5446
17910SOL    HW154863   5.654   0.692   2.243  0.1073 -0.1303 -0.8941
17910SOL    HW254864   5.586   0.733   2.114 -0.2491  0.4556 -0.5236
17911SOL     OW54865   3.098   4.978   2.231  0.2761  0.5275  0.4797
17911SOL    HW154866   3.176   4.922   2.229  0.7801  1.2091  0.6771
17911SOL    HW254867   3.046   4.943   2.304 -0.3664 -0.8974 -0.5988
17912SOL     OW54868   8.327   2.444   8.773  0.5600 -0.0845  0.2533
17912SOL    HW154869   8.243   2.407   8.746  0.8770 -1.2810  0.8355
17912SOL    HW254870   8.356   2.388   8.845  0.6371  1.8694  1.8228
17913SOL     OW54871   8.854   4.949   5.860 -0.1848  0.4952 -0.1136
17913SOL    HW154872   8.827   4.870   5.907 -0.2927  0.7586  0.2596
17913SOL    HW254873   8.938   4.925   5.821  0.3618  0.5979  0.9970
17914SOL     OW54874   7.215   8.956   6.159  0.1743 -0.6609  0.1125
17914SOL    HW154875   7.123   8.956   6.129  0.0945 -2.7646  0.2420
17914SOL    HW254876   7.266   8.941   6.079  0.4251  0.4499  0.0502
17915SOL     OW54877   5.883   6.077   4.549 -0.9458 -0.0191  0.3192
17915SOL    HW154878   5.821   6.045   4.615  0.8434 -2.3005  0.9949
17915SOL    HW254879   5.967   6.081   4.594 -0.1874  1.0034 -1.1172
17916SOL     OW54880   7.000   8.186   4.335  0.6382  0.2541 -0.3965
17916SOL    HW154881   7.088   8.202   4.302  0.0581  1.2826 -1.5318
17916SOL    HW254882   6.948   8.260   4.302 -0.5880 -0.1956  0.4619
17917SOL     OW54883   0.046   5.356   6.850  0.0345 -0.2203 -0.2357
17917SOL    HW154884   0.083   5.367   6.937  0.0881 -0.7268 -0.1895
17917SOL    HW254885  -0.031   5.300   6.864 -0.6721  0.7016 -0.3464
17918SOL     OW54886   6.304   5.805   3.753 -0.5740 -0.3506  0.1664
17918SOL    HW154887   6.297   5.801   3.658  2.2912 -3.2612 -0.0851
17918SOL    HW254888   6.213   5.805   3.784 -1.7398  3.6279 -2.4291
17919SOL     OW54889   7.986   5.166   8.517 -0.4202  0.0972 -0.0040
17919SOL    HW154890   7.948   5.226   8.581 -0.9452 -1.1363  0.8712
17919SOL    HW254891   8.045   5.111   8.568  0.1095 -0.0921 -0.8081
17920SOL     OW54892   5.921   1.733   6.586 -0.2392 -0.3605  0.2946
17920SOL    HW154893   5.837   1.692   6.567 -1.4170  1.5451  1.0935
17920SOL    HW254894   5.930   1.727   6.681  1.2044 -1.6822  0.1270
17921SOL     OW54895   7.753   0.072   1.160  0.4554  0.6864 -0.6632
17921SOL    HW154896   7.733  -0.003   1.105 -0.0101  0.7293 -0.5517
17921SOL    HW254897   7.679   0.131   1.149 -0.9211 -0.3955  1.9675
17922SOL     OW54898   4.142   2.196   6.796 -0.0368 -0.4615 -0.3001
17922SOL    HW154899   4.223   2.216   6.749 -0.7123 -2.3237 -2.4375
17922SOL    HW254900   4.096   2.280   6.803  1.3324  0.3258 -0.4857
17923SOL     OW54901   4.680   8.800   3.244 -0.4165  0.3498 -0.6293
17923SOL    HW154902   4.730   8.781   3.165 -1.1015 -0.7932 -0.8137
17923SOL    HW254903   4.704   8.729   3.305  0.6269  1.5850  0.4532
17924SOL     OW54904   7.748   2.795   8.176 -0.2671  0.4022 -0.2578
17924SOL    HW154905   7.663   2.760   8.200  0.3707 -2.2792 -1.4591
17924SOL    HW254906   7.809   2.757   8.239  0.3392  0.2220 -0.9375
17925SOL     OW54907   3.293   3.735   4.511  0.1166 -0.1747  0.0451
17925SOL    HW154908   3.357   3.804   4.529  0.7106 -0.3347 -1.3122
17925SOL    HW254909   3.230   3.775   4.452  0.5434 -0.7997 -0.8692
17926SOL     OW54910   6.113   2.131   0.416  0.0080  0.1133  0.4127
17926SOL    HW154911   6.103   2.079   0.336  1.0946  0.3341  0.1263
17926SOL    HW254912   6.064   2.082   0.482 -0.2323 -0.4907 -0.1985
17927SOL     OW54913   1.933   1.517   7.835  0.2697 -0.5206 -0.0891
17927SOL    HW154914   1.946   1.541   7.743  0.0387 -0.0735 -0.0057
17927SOL    HW254915   2.012   1.468   7.858  0.8963  0.4330 -0.1670
17928SOL     OW54916   2.791   4.850   8.193 -0.3565 -0.0428 -0.1839
17928SOL    HW154917   2.769   4.757   8.183  0.9268 -0.4585  0.6049
17928SOL    HW254918   2.769   4.889   8.108  2.8863 -1.8921 -2.1072
17929SOL     OW54919   0.232   0.682   1.333 -0.4200 -0.2734  0.2534
17929SOL    HW154920   0.155   0.695   1.388 -1.0560 -0.3618 -0.6082
17929SOL    HW254921   0.217   0.597   1.291  1.0648 -1.2521  1.5562
17930SOL     OW54922   0.091   6.336   0.016  0.0679 -0.6621 -0.1276
17930SOL    HW154923   0.151   6.404   0.047 -3.8099  2.8850  0.5828
17930SOL    HW254924   0.076   6.281   0.093 -0.9666  1.2673  1.1387
17931SOL     OW54925   6.088   4.339   1.361 -0.0194 -0.3909 -0.5309
17931SOL    HW154926   6.082   4.245   1.377  0.6311 -0.0925  1.6706
17931SOL    HW254927   6.176   4.352   1.326 -0.5328 -0.7059 -2.0431
17932SOL     OW54928   0.582   7.311   8.346  0.4596  0.2312 -0.3197
17932SOL    HW154929   0.604   7.403   8.333  1.6220 -0.0897 -0.7556
17932SOL    HW254930   0.620   7.266   8.270  0.5762 -0.7027  0.2734
17933SOL     OW54931   3.837   2.461   8.344  0.0738 -0.0372  0.3228
17933SOL    HW154932   3.882   2.520   8.405  1.0830  0.6770 -1.0552
17933SOL    HW254933   3.852   2.500   8.258 -0.0687 -1.7895 -0.5416
17934SOL     OW54934   7.146   5.796   6.630  0.1402  0.2738 -0.4621
17934SOL    HW154935   7.134   5.742   6.552 -1.0623 -1.7122  1.0203
17934SOL    HW254936   7.185   5.738   6.694 -2.5389  0.6099  1.6811
17935SOL     OW54937   0.973   6.417   7.893 -0.1526 -0.1645 -0.3884
17935SOL    HW154938   0.943   6.415   7.983  1.1410 -1.3996  0.0574
17935SOL    HW254939   0.914   6.356   7.847 -0.8797  0.5476 -0.4227
17936SOL     OW54940   6.519   2.632   7.303  0.1487 -0.3893  0.4752
17936SOL    HW154941   6.450   2.694   7.328 -1.6207 -1.9346 -0.3367
17936SOL    HW254942   6.597   2.686   7.296 -0.7081  1.2602  2.5044
17937SOL     OW54943   0.206   6.346   8.735  1.1899  1.1682  0.5602
17937SOL    HW154944   0.285   6.295   8.716 -0.9217 -1.5347 -1.7726
17937SOL    HW254945   0.162   6.298   8.805  0.7115  1.6026  0.5624
17938SOL     OW54946   5.815   3.077   4.014 -0.3621  0.1697 -0.0706
17938SOL    HW154947   5.857   2.992   4.003  0.2030  0.5242 -0.6676
17938SOL    HW254948   5.729   3.067   3.972  0.3149  0.3636 -1.5701
17939SOL     OW54949   8.029   7.773   0.791 -0.0739 -0.1606  0.2773
17939SOL    HW154950   7.937   7.790   0.775 -0.0055  0.1730  0.2303
17939SOL    HW254951   8.048   7.820   0.872 -0.1181 -0.8220  0.6804
17940SOL     OW54952   3.571   7.423   7.189  0.1234 -0.2483 -0.0419
17940SOL    HW154953   3.532   7.472   7.261  0.9926 -1.6990  1.4592
17940SOL    HW254954   3.509   7.436   7.116 -1.6951 -0.1748  1.4304
17941SOL     OW54955   4.639   2.032   2.832 -0.4396 -0.0785  0.1162
17941SOL    HW154956   4.550   2.000   2.847 -0.3464 -0.6840 -0.5498
17941SOL    HW254957   4.681   2.029   2.918 -1.1523  0.5017  0.4872
17942SOL     OW54958   5.141   8.928   1.963 -0.4062 -0.0354  0.5507
17942SOL    HW154959   5.142   8.985   2.040 -0.7661 -0.4064  0.8304
17942SOL    HW254960   5.225   8.945   1.920 -0.3160  0.3666  0.8827
17943SOL     OW54961   2.268   7.124   0.997  0.1015  0.2294  0.2191
17943SOL    HW154962   2.265   7.130   1.093  0.2571  1.8475  0.1599
17943SOL    HW254963   2.335   7.188   0.972  1.9299 -1.9787 -0.8674
17944SOL     OW54964   3.020   4.422   2.774 -0.3217 -0.1745  0.0503
17944SOL    HW154965   3.026   4.337   2.819  1.6665 -0.2124 -0.1737
17944SOL    HW254966   3.111   4.447   2.760 -0.8618  0.7547 -2.2396
17945SOL     OW54967   8.886   5.270   4.014  0.3667 -0.4537 -0.2582
17945SOL    HW154968   8.950   5.336   3.987 -0.1681  0.0712 -0.2650
17945SOL    HW254969   8.833   5.255   3.936  1.4678 -2.0824 -0.7473
17946SOL     OW54970   2.399   7.289   2.551 -0.3562  0.0155 -0.1896
17946SOL    HW154971   2.389   7.216   2.613 -0.9406 -1.0143 -1.4273
17946SOL    HW254972   2.493   7.304   2.546 -0.3082  0.1833  1.0021
17947SOL     OW54973   2.304   8.046   8.850  0.3124 -0.0204  0.0981
17947SOL    HW154974   2.356   8.126   8.844  0.2608 -0.0466 -0.7779
17947SOL    HW254975   2.309   8.007   8.763  2.7275 -2.4814  1.1573
17948SOL     OW54976   4.054   2.297   6.037 -0.2196 -0.3832  0.1189
17948SOL    HW154977   3.977   2.275   6.090 -1.3695 -0.6202 -1.5669
17948SOL    HW254978   4.071   2.389   6.057 -0.2316 -0.6332  1.3467
17949SOL     OW54979   0.294   6.457   0.949 -0.0372 -0.4225  0.0794
17949SOL    HW154980   0.280   6.545   0.985  0.1360 -0.8441  1.2264
17949SOL    HW254981   0.352   6.471   0.874 -0.8120  0.5415 -0.3548
17950SOL     OW54982   3.695   5.457   6.227  0.4208 -0.8120  0.1504
17950SOL    HW154983   3.715   5.520   6.158 -2.2496 -0.6287 -0.5597
17950SOL    HW254984   3.637   5.393   6.185 -0.9789 -0.9053  2.1155
17951SOL     OW54985   1.765   0.601   8.257 -0.0197 -1.1587  0.1874
17951SOL    HW154986   1.770   0.691   8.291  0.9094 -1.1052 -0.0622
17951SOL    HW254987   1.682   0.567   8.290 -0.7361  0.0368 -0.3064
17952SOL     OW54988   4.036   2.223   7.889  0.6536  0.1950  0.5068
17952SOL    HW154989   4.128   2.210   7.911  0.2662 -0.5958  1.7321
17952SOL    HW254990   3.990   2.150   7.929 -0.3785 -0.1789 -1.2276
17953SOL     OW54991   0.607   8.974   0.097 -0.1861  0.4161  0.4029
17953SOL    HW154992   0.614   9.070   0.092 -1.7707  0.5958  1.0352
17953SOL    HW254993   0.643   8.952   0.183 -0.9962  0.5965  0.7970
17954SOL     OW54994   5.773   5.405   1.475 -0.0096 -0.7574  0.6056
17954SOL    HW154995   5.677   5.412   1.481  0.1063  2.0710  0.2525
17954SOL    HW254996   5.788   5.369   1.388 -0.7774  1.0259 -0.3320
17955SOL     OW54997   0.906   5.947   2.256  0.0801  0.3079 -0.1496
17955SOL    HW154998   0.838   5.946   2.189 -0.0118 -0.8333 -0.0536
17955SOL    HW254999   0.907   5.858   2.291  2.5522 -0.1167 -1.1136
17956SOL     OW55000   7.850   8.859   8.433 -0.0515  0.1672 -0.1186
17956SOL    HW155001   7.913   8.792   8.459  0.3235  0.5603 -0.0011
17956SOL    HW255002   7.780   8.810   8.390 -0.7719 -0.5231  1.7642
17957SOL     OW55003   0.297   3.752   1.589 -0.0806 -0.1073  0.1756
17957SOL    HW155004   0.270   3.842   1.608  1.0933  0.6842 -1.7041
17957SOL    HW255005   0.356   3.729   1.661  0.7720  1.1841 -0.0866
17958SOL     OW55006   0.009   1.874   3.404  0.3212  0.3370  0.2744
17958SOL    HW155007  -0.062   1.811   3.418  0.4360  0.5699  2.0853
17958SOL    HW255008  -0.034   1.959   3.409  0.2203  0.4678 -1.8705
17959SOL     OW55009   4.338   7.227   4.898 -0.0313  0.1191  0.1764
17959SOL    HW155010   4.270   7.178   4.852 -0.3011  1.6802 -1.1627
17959SOL    HW255011   4.391   7.159   4.941 -0.9826 -1.2756 -0.7595
17960SOL     OW55012   5.550   6.832   2.017 -0.4508 -0.2156 -0.0235
17960SOL    HW155013   5.608   6.759   1.995  0.9970  0.8608  0.1543
17960SOL    HW255014   5.462   6.793   2.014  0.1938 -1.7089 -0.9863
17961SOL     OW55015   1.192   5.387   2.065 -0.1469  0.0730 -0.6153
17961SOL    HW155016   1.174   5.464   2.119 -0.3832  0.8713 -1.7846
17961SOL    HW255017   1.234   5.325   2.124  0.4979  1.2923  0.2394
17962SOL     OW55018   7.216   5.462   4.337  0.0206  0.2125 -0.3030
17962SOL    HW155019   7.306   5.468   4.369 -0.0525  0.1511 -0.0846
17962SOL    HW255020   7.195   5.369   4.340 -0.5788  0.3658  1.1264
17963SOL     OW55021   3.741   4.350   1.677 -0.0141 -0.4829 -0.2425
17963SOL    HW155022   3.826   4.305   1.678  0.1772 -0.1313  0.4181
17963SOL    HW255023   3.749   4.417   1.609 -0.2682 -1.3749 -1.1672
17964SOL     OW55024   0.237   2.644   3.147  0.4399 -0.7022  0.3581
17964SOL    HW155025   0.325   2.653   3.185  0.7541 -0.0312 -0.5121
17964SOL    HW255026   0.198   2.571   3.196  2.0752 -2.1131 -0.3109
17965SOL     OW55027   7.768   7.653   3.878 -0.3965 -0.1011 -0.5604
17965SOL    HW155028   7.690   7.602   3.856 -0.2415  0.2105 -1.9504
17965SOL    HW255029   7.739   7.744   3.871 -0.2637  0.0150  0.3245
17966SOL     OW55030   9.013   2.598   0.316  0.1112  0.2856  0.0827
17966SOL    HW155031   8.941   2.618   0.257  1.7266  2.0001 -1.4410
17966SOL    HW255032   9.042   2.684   0.349  0.4601 -0.4840  1.9024
17967SOL     OW55033   8.875   4.908   7.862  0.3530 -0.3323 -0.0440
17967SOL    HW155034   8.810   4.923   7.795  0.0580 -0.2691  0.2539
17967SOL    HW255035   8.959   4.909   7.816  0.3358  1.8398 -0.0966
17968SOL     OW55036   5.706   6.876   6.724 -0.0575  0.2055 -0.0725
17968SOL    HW155037   5.663   6.800   6.684 -2.8911  1.2440  0.7911
17968SOL    HW255038   5.717   6.938   6.652 -1.7199  0.6219  0.0056
17969SOL     OW55039   3.707   0.645   6.608  0.1933  0.2584  0.0194
17969SOL    HW155040   3.647   0.570   6.600  0.3977 -0.1505  1.8559
17969SOL    HW255041   3.789   0.613   6.571 -0.1400  0.1363 -0.6500
17970SOL     OW55042   0.886   8.713   7.672 -0.4732  0.3257 -0.0114
17970SOL    HW155043   0.856   8.701   7.582 -0.1499  0.3400 -0.1228
17970SOL    HW255044   0.939   8.636   7.690  0.3403  0.8234 -0.2005
17971SOL     OW55045   4.948   3.292   0.475  0.2167  0.0479 -0.2137
17971SOL    HW155046   4.899   3.339   0.543  0.5987 -0.5309  0.4854
17971SOL    HW255047   4.911   3.322   0.393 -0.0340  1.0305  0.2390
17972SOL     OW55048   0.188   0.222   5.891  0.0547  0.1563  0.3293
17972SOL    HW155049   0.100   0.249   5.919 -0.5313 -0.8720 -0.4307
17972SOL    HW255050   0.190   0.128   5.906  0.9690  0.1406  0.1608
17973SOL     OW55051   0.559   8.681   6.533 -0.6242  0.4092 -0.0785
17973SOL    HW155052   0.480   8.631   6.509  0.4896 -0.4997 -2.0567
17973SOL    HW255053   0.588   8.720   6.451  2.1236 -0.9619  0.1327
17974SOL     OW55054   2.531   7.904   3.188 -0.5076 -0.2511  0.5101
17974SOL    HW155055   2.476   7.956   3.131  0.2377  0.0902  0.0861
17974SOL    HW255056   2.617   7.947   3.184  0.9789 -3.1540 -2.1902
17975SOL     OW55057   1.977   0.259   6.020 -0.5408 -0.2368  0.5762
17975SOL    HW155058   1.956   0.353   6.021  0.3272 -0.0348  0.6502
17975SOL    HW255059   1.944   0.228   5.936 -0.3399  0.2571  0.3086
17976SOL     OW55060   2.649   3.791   2.878  0.0121  0.1008  0.0310
17976SOL    HW155061   2.597   3.730   2.931  0.8936  0.7159  1.6676
17976SOL    HW255062   2.717   3.737   2.839  1.2499  0.0808  2.0732
17977SOL     OW55063   4.949   3.322   0.112 -0.0149  0.0596 -0.1632
17977SOL    HW155064   4.904   3.243   0.083 -2.5857  0.9974  1.0487
17977SOL    HW255065   5.023   3.289   0.163  0.4015 -1.5250 -1.6726
17978SOL     OW55066   4.764   6.500   0.175 -0.9197 -0.4825  0.2281
17978SOL    HW155067   4.758   6.530   0.084 -1.9230 -2.9108 -0.5851
17978SOL    HW255068   4.702   6.556   0.223  0.8842  2.0146 -0.1278
17979SOL     OW55069   2.830   7.524   1.319 -0.4776 -0.5259  0.0624
17979SOL    HW155070   2.834   7.565   1.406  1.2241 -0.3946 -0.0367
17979SOL    HW255071   2.759   7.569   1.274  0.1059  1.0077  0.6165
17980SOL     OW55072   2.628   5.638   3.143 -0.0516  0.3295 -0.2717
17980SOL    HW155073   2.662   5.662   3.056 -1.0276 -0.3419 -0.8583
17980SOL    HW255074   2.554   5.697   3.157  2.0185  2.6985  1.5790
17981SOL     OW55075   0.631   4.515   5.172 -0.0496  0.1740 -0.3608
17981SOL    HW155076   0.625   4.609   5.187  0.2692  0.1402 -0.0048
17981SOL    HW255077   0.542   4.489   5.146  0.1110  0.7508 -1.5197
17982SOL     OW55078   8.410   1.929   4.864 -0.0728 -0.3554  1.0772
17982SOL    HW155079   8.494   1.919   4.908  1.0437 -0.5610 -0.9943
17982SOL    HW255080   8.368   2.003   4.908  0.7264 -0.8935  2.8038
17983SOL     OW55081   5.403   7.972   4.286 -0.0459  0.8159  0.3976
17983SOL    HW155082   5.369   7.977   4.197  1.1202  0.5877 -0.0760
17983SOL    HW255083   5.420   7.878   4.300 -1.4743  0.6597  1.3678
17984SOL     OW55084   6.981   2.422   4.654 -0.2259  0.3254 -0.3944
17984SOL    HW155085   6.949   2.340   4.691 -0.7068  0.6175 -0.1565
17984SOL    HW255086   7.053   2.396   4.596 -0.7264 -0.3173 -0.7422
17985SOL     OW55087   2.465   3.083   6.356 -0.0443  0.2241 -0.0544
17985SOL    HW155088   2.424   3.005   6.320 -0.3810  0.4941 -0.2683
17985SOL    HW255089   2.471   3.143   6.282  0.2540  0.3828  0.0976
17986SOL     OW55090   4.909   0.836   0.351 -0.0469  0.0484 -0.0423
17986SOL    HW155091   4.852   0.800   0.284 -1.1311 -0.0906  0.9211
17986SOL    HW255092   4.973   0.889   0.303  0.2932 -1.4477 -1.3065
17987SOL     OW55093   4.714   0.313   5.466 -0.0771  0.2580 -0.1739
17987SOL    HW155094   4.717   0.377   5.537  1.2981 -0.0534  0.0779
17987SOL    HW255095   4.702   0.365   5.387 -0.6525  0.6856  0.1902
17988SOL     OW55096   1.841   4.897   8.983 -0.0874  0.1574 -0.4371
17988SOL    HW155097   1.850   4.828   9.048 -2.5765 -0.7569 -0.9643
17988SOL    HW255098   1.897   4.869   8.910  0.6310 -0.1510  0.2185
17989SOL     OW55099   0.985   3.044   2.771 -0.0837 -0.0214 -0.1299
17989SOL    HW155100   0.977   3.001   2.686 -0.1554 -1.5772  0.6217
17989SOL    HW255101   1.078   3.033   2.795 -0.1008  0.2517  0.0662
17990SOL     OW55102   7.705   8.489   5.518  0.1475  0.1394  0.1723
17990SOL    HW155103   7.765   8.550   5.477 -0.0432  0.1012 -0.1632
17990SOL    HW255104   7.640   8.544   5.561 -0.7845  0.1754 -1.2472
17991SOL     OW55105   3.162   6.260   2.443 -0.3252 -0.3143 -0.0385
17991SOL    HW155106   3.137   6.168   2.453 -1.4481  0.0077  0.2749
17991SOL    HW255107   3.254   6.257   2.418 -1.2075 -1.6755 -3.7758
17992SOL     OW55108   7.896   0.817   8.045 -0.1043 -0.4905 -0.4294
17992SOL    HW155109   7.916   0.873   7.971  1.0727 -0.9769 -0.4934
17992SOL    HW255110   7.979   0.808   8.092 -1.2987  1.9815  2.4985
17993SOL     OW55111   4.271   3.395   4.189 -0.7387  0.0253 -0.5596
17993SOL    HW155112   4.287   3.329   4.257 -1.2967 -0.3637 -0.7950
17993SOL    HW255113   4.348   3.451   4.191 -1.2380  0.7270  1.2063
17994SOL     OW55114   5.398   0.060   7.009  0.1991 -0.6019 -0.1425
17994SOL    HW155115   5.318   0.110   7.023 -0.1243 -0.8198 -1.1061
17994SOL    HW255116   5.460   0.095   7.073 -0.3615  0.2586 -0.0510
17995SOL     OW55117   8.886   7.243   1.630  0.1029  0.1257  0.0237
17995SOL    HW155118   8.958   7.190   1.597 -0.5119  0.1987 -1.5243
17995SOL    HW255119   8.928   7.305   1.691  1.7265  1.5200 -2.3375
17996SOL     OW55120   3.972   6.853   4.210 -0.4582  0.0995 -0.3355
17996SOL    HW155121   3.905   6.818   4.151  0.1227 -0.0416 -0.9266
17996SOL    HW255122   3.932   6.930   4.249 -1.5272 -0.8382  0.4869
17997SOL     OW55123   0.158   1.961   5.877  0.4801 -0.8170  0.2349
17997SOL    HW155124   0.064   1.978   5.881  0.5058 -0.7321  0.4667
17997SOL    HW255125   0.168   1.900   5.804  0.4043  0.3430 -0.7785
17998SOL     OW55126   4.309   6.496   3.239 -0.7327  0.2168  0.2451
17998SOL    HW155127   4.390   6.544   3.255 -0.8914  0.6802 -0.2795
17998SOL    HW255128   4.336   6.406   3.222 -0.2693  0.4882 -0.5190
17999SOL     OW55129   2.230   9.010   2.792  0.3207 -0.3319 -0.3066
17999SOL    HW155130   2.322   8.983   2.792  0.8673  1.3799 -1.0399
17999SOL    HW255131   2.216   9.046   2.704 -1.1796 -0.9466 -0.3425
18000SOL     OW55132   7.829   4.215   1.525 -0.6601 -0.6168  0.3220
18000SOL    HW155133   7.885   4.185   1.454 -1.9356 -1.4907 -0.3550
18000SOL    HW255134   7.774   4.282   1.485 -0.1413  0.2184  0.9722
18001SOL     OW55135   3.691   1.222   5.958 -0.1203  0.8515 -0.1967
18001SOL    HW155136   3.720   1.303   5.917 -0.7509  0.4444 -1.5158
18001SOL    HW255137   3.598   1.235   5.974  0.3482  1.5143  2.4594
18002SOL     OW55138   2.415   5.370   1.848 -0.1187  0.6065 -0.4363
18002SOL    HW155139   2.339   5.396   1.900 -1.8887  0.0327 -2.5269
18002SOL    HW255140   2.455   5.299   1.898 -2.6307 -0.9686 -0.4563
18003SOL     OW55141   1.223   4.090   8.256 -0.4066 -0.0056 -0.7305
18003SOL    HW155142   1.145   4.053   8.296  0.7419 -0.4151  1.2541
18003SOL    HW255143   1.288   4.019   8.261  0.5424  0.8267 -0.9153
18004SOL     OW55144   6.597   5.991   0.917 -0.2777  0.2389 -0.0540
18004SOL    HW155145   6.654   5.977   0.842  0.0422 -0.1671  0.2602
18004SOL    HW255146   6.608   6.083   0.939 -1.0067  0.5670 -1.0147
18005SOL     OW55147   5.474   2.732   5.268  0.5408 -0.1846  0.1123
18005SOL    HW155148   5.546   2.692   5.219 -1.0823 -0.3540 -2.3495
18005SOL    HW255149   5.487   2.826   5.255 -0.2474 -0.2423 -1.3349
18006SOL     OW55150   8.010   1.664   5.654 -0.1744 -0.3850 -0.0880
18006SOL    HW155151   7.967   1.601   5.597  0.1057 -0.1439 -0.5674
18006SOL    HW255152   8.053   1.609   5.721 -1.1933 -0.6272  0.3934
18007SOL     OW55153   6.440   2.027   2.842 -0.2417 -0.3049  0.5141
18007SOL    HW155154   6.467   1.953   2.896 -0.7356 -0.5309  0.4558
18007SOL    HW255155   6.381   1.989   2.777 -0.2006  0.0795  0.2485
18008SOL     OW55156   6.979   2.978   8.534  0.0794  0.1943 -0.4941
18008SOL    HW155157   7.055   2.921   8.527 -0.2384 -0.2831 -0.1285
18008SOL    HW255158   6.980   3.009   8.624 -0.6818 -0.5778 -0.2004
18009SOL     OW55159   1.309   2.590   5.819  0.4961  0.3448 -0.2170
18009SOL    HW155160   1.368   2.587   5.743  0.2114 -0.1024 -0.4288
18009SOL    HW255161   1.359   2.546   5.889  1.5139  2.4060  0.4215
18010SOL     OW55162   8.858   2.787   6.652  0.3204  0.3010 -0.3868
18010SOL    HW155163   8.828   2.734   6.726  1.2443  1.3735  0.7840
18010SOL    HW255164   8.802   2.864   6.653  1.5906  1.2345  0.4066
18011SOL     OW55165   8.031   7.468   5.036  0.0293 -0.1071  0.0546
18011SOL    HW155166   7.987   7.512   5.108 -0.8943 -2.1938  0.8578
18011SOL    HW255167   8.100   7.528   5.009 -1.1633  1.7985  1.0157
18012SOL     OW55168   0.572   5.033   4.199  0.1154  0.2925 -0.0385
18012SOL    HW155169   0.623   5.007   4.275 -0.3258  0.4411  0.3120
18012SOL    HW255170   0.630   5.018   4.125  0.6134  0.3192  0.3410
18013SOL     OW55171   8.916   0.600   8.669 -0.2076  0.4065 -0.0169
18013SOL    HW155172   8.971   0.672   8.638  1.1306 -1.1657 -1.5418
18013SOL    HW255173   8.977   0.529   8.689 -1.4250 -0.1489  2.0636
18014SOL     OW55174   5.810   8.991   6.747  0.2454 -1.0705  0.6819
18014SOL    HW155175   5.821   9.049   6.823  2.2113 -0.2020 -0.1963
18014SOL    HW255176   5.894   8.947   6.738 -0.3837 -2.1402 -0.2311
18015SOL     OW55177   6.478   4.861   3.776 -0.4876  0.3102  0.0891
18015SOL    HW155178   6.504   4.788   3.720 -0.0333 -1.2233  2.1552
18015SOL    HW255179   6.472   4.936   3.717  1.3629 -0.8700 -1.7367
18016SOL     OW55180   7.421   2.208   8.680  0.1563  0.5089 -0.6772
18016SOL    HW155181   7.444   2.212   8.773 -2.0054 -0.9344  0.0085
18016SOL    HW255182   7.411   2.115   8.662 -0.2619  0.8133 -2.1370
18017SOL     OW55183   8.461   4.806   1.451 -0.4870 -0.1857  0.5953
18017SOL    HW155184   8.511   4.855   1.516  1.2091  0.7207 -1.2936
18017SOL    HW255185   8.460   4.716   1.485  2.3178 -0.2118  0.8680
18018SOL     OW55186   0.235   2.800   1.061  0.1939  0.3274 -0.6016
18018SOL    HW155187   0.321   2.813   1.099  0.2582 -1.1183 -0.2273
18018SOL    HW255188   0.251   2.780   0.969  0.2972 -0.3976 -0.4311
18019SOL     OW55189   0.944   4.255   4.199 -0.2439 -0.1993  0.2444
18019SOL    HW155190   0.881   4.198   4.243  2.1166 -2.5692  0.8215
18019SOL    HW255191   0.954   4.330   4.257  0.9385 -2.0700  2.6410
18020SOL     OW55192   1.820   8.397   8.942  0.6708 -0.4959 -0.2257
18020SOL    HW155193   1.888   8.463   8.957  1.3474 -1.0493 -0.7757
18020SOL    HW255194   1.831   8.334   9.013  2.4749 -1.9749 -1.7130
18021SOL     OW55195   8.722   1.806   0.801  0.6597  0.2594  0.1895
18021SOL    HW155196   8.716   1.889   0.848 -0.0890  0.8325 -0.8725
18021SOL    HW255197   8.804   1.812   0.752  0.4358  0.5277 -0.1565
18022SOL     OW55198   2.071   7.235   6.650  0.1982  0.1952  0.0112
18022SOL    HW155199   1.984   7.209   6.681  0.8793 -1.3904  0.7213
18022SOL    HW255200   2.088   7.319   6.692  0.7588 -1.4870  3.5801
18023SOL     OW55201   6.799   0.939   4.300  0.2944  0.2440  0.1647
18023SOL    HW155202   6.808   1.023   4.345 -0.5650 -0.1844  1.1879
18023SOL    HW255203   6.889   0.908   4.291  0.5450  0.7570  0.8012
18024SOL     OW55204   2.065   5.082   7.597  0.2899 -0.0443 -0.1708
18024SOL    HW155205   2.035   5.068   7.686 -4.3090  0.1115 -1.4695
18024SOL    HW255206   2.087   4.994   7.565  3.2287  0.0271  1.3276
18025SOL     OW55207   5.682   2.973   0.759  0.2661 -0.2126  0.2156
18025SOL    HW155208   5.707   2.887   0.724 -0.0591 -0.4572  0.5789
18025SOL    HW255209   5.682   2.961   0.854 -1.5552 -0.3192  0.2371
18026SOL     OW55210   6.548   6.593   1.628 -0.4186  0.7056 -0.6021
18026SOL    HW155211   6.584   6.587   1.539  0.5105 -1.6827 -0.1322
18026SOL    HW255212   6.588   6.671   1.664  1.6380  0.0376 -1.2897
18027SOL     OW55213   1.075   7.474   7.304  0.1202 -0.1851 -0.1651
18027SOL    HW155214   1.100   7.444   7.216  1.7907  1.6817 -0.4076
18027SOL    HW255215   1.061   7.394   7.354 -1.2622 -1.2906 -2.2242
18028SOL     OW55216   1.857   0.701   8.921 -0.1606  0.0944 -0.0875
18028SOL    HW155217   1.946   0.724   8.949 -0.7657  0.6637  1.4821
18028SOL    HW255218   1.807   0.781   8.937 -1.7026 -1.2810  2.6064
18029SOL     OW55219   5.146   2.687   6.959  0.0143  0.5090 -0.5769
18029SOL    HW155220   5.088   2.611   6.952  0.8645 -0.0703 -1.5206
18029SOL    HW255221   5.195   2.688   6.877  0.3360  1.8274 -0.3910
18030SOL     OW55222   2.836   7.840   8.691  0.7636 -0.3989  0.4204
18030SOL    HW155223   2.744   7.851   8.670  1.1284 -0.6946 -1.5543
18030SOL    HW255224   2.842   7.857   8.785 -1.3149 -0.5924  0.6301
18031SOL     OW55225   7.891   6.377   5.039 -0.4672  0.4040 -0.2138
18031SOL    HW155226   7.939   6.327   4.973  0.4588  3.3763 -2.0088
18031SOL    HW255227   7.801   6.347   5.032  0.2062 -1.6945 -0.4203
18032SOL     OW55228   3.779   2.586   6.202 -0.3324 -0.1236  0.0473
18032SOL    HW155229   3.750   2.676   6.213 -1.0803 -0.5650  2.2964
18032SOL    HW255230   3.729   2.553   6.127 -4.2141 -0.1839  2.3841
18033SOL     OW55231   1.186   5.767   3.660 -0.2994  0.0001  0.4016
18033SOL    HW155232   1.120   5.721   3.712 -1.2230  0.8608 -0.0034
18033SOL    HW255233   1.155   5.761   3.570  0.4088  0.0174  0.1511
18034SOL     OW55234   0.676   7.101   5.470 -0.3081  0.3038  0.3817
18034SOL    HW155235   0.737   7.028   5.465 -1.4053 -0.7660  1.7925
18034SOL    HW255236   0.727   7.173   5.507  0.5405 -0.0206 -0.1513
18035SOL     OW55237   5.562   6.129   6.247  0.2298 -0.1403 -0.5755
18035SOL    HW155238   5.526   6.041   6.255 -0.4986  0.2767  1.1351
18035SOL    HW255239   5.485   6.184   6.230  0.6536  0.2226 -1.4072
18036SOL     OW55240   8.775   8.435   3.308 -0.0443 -0.3932  0.1328
18036SOL    HW155241   8.690   8.452   3.348  0.1707 -0.2407  0.5391
18036SOL    HW255242   8.816   8.521   3.302  0.3167 -0.5327  0.4984
18037SOL     OW55243   8.187   1.523   8.403  0.6189 -0.5189 -0.4581
18037SOL    HW155244   8.274   1.533   8.363  0.8038 -3.1829 -0.9658
18037SOL    HW255245   8.204   1.517   8.497  0.8700  0.0081 -0.4713
18038SOL     OW55246   5.736   0.398   2.199 -0.0451  0.2166  0.2220
18038SOL    HW155247   5.790   0.475   2.183  1.3172 -0.4723  1.2791
18038SOL    HW255248   5.739   0.349   2.117  1.6549 -0.2191  0.5144
18039SOL     OW55249   7.724   1.779   5.039 -0.0547 -0.1372  0.1743
18039SOL    HW155250   7.706   1.859   4.989 -0.1126 -0.0733  0.2980
18039SOL    HW255251   7.789   1.805   5.104 -0.4020 -0.0824  0.5029
18040SOL     OW55252   3.308   7.763   2.415  0.2374 -0.1903 -0.1578
18040SOL    HW155253   3.266   7.834   2.462  3.1031  2.1209 -0.8661
18040SOL    HW255254   3.329   7.698   2.482  1.4920  1.6379  1.2944
18041SOL     OW55255   2.465   8.949   2.042 -0.2870 -0.7710  0.2737
18041SOL    HW155256   2.410   8.997   1.980  2.5091  3.1692  0.4234
18041SOL    HW255257   2.533   8.909   1.988 -1.0426 -2.2931  0.4067
18042SOL     OW55258   5.716   2.241   1.978  0.3337 -0.0420 -0.4256
18042SOL    HW155259   5.629   2.241   2.019  0.5373 -5.6949  0.8733
18042SOL    HW255260   5.704   2.193   1.897  2.2854 -1.6080  0.1507
18043SOL     OW55261   7.165   2.039   8.604 -0.2042 -0.2946  0.0394
18043SOL    HW155262   7.083   2.009   8.565 -0.9780  1.2389  0.4065
18043SOL    HW255263   7.225   1.965   8.594 -1.8798 -1.7938  0.5588
18044SOL     OW55264   5.200   1.531   7.724  0.1582  0.2605 -0.2382
18044SOL    HW155265   5.245   1.573   7.797  0.7363  2.1652 -1.6052
18044SOL    HW255266   5.216   1.437   7.736  0.7153  0.5718  1.7223
18045SOL     OW55267   6.749   2.724   0.792  0.2122  0.0869  0.0309
18045SOL    HW155268   6.738   2.671   0.871 -0.9986  0.9244  0.4453
18045SOL    HW255269   6.675   2.701   0.736  0.0641  0.8144 -0.0831
18046SOL     OW55270   6.610   3.844   2.263  0.5523  0.9021  0.1963
18046SOL    HW155271   6.687   3.884   2.303  1.3908  0.4142 -0.8984
18046SOL    HW255272   6.559   3.812   2.338  1.6006  0.8733  0.9253
18047SOL     OW55273   8.199   3.840   0.338  0.3054 -0.1192  0.3942
18047SOL    HW155274   8.199   3.936   0.337 -0.4760 -0.0268  2.8620
18047SOL    HW255275   8.235   3.817   0.424 -0.3994 -2.0121  0.2312
18048SOL     OW55276   3.408   6.499   8.738 -0.0366 -0.0115  0.5843
18048SOL    HW155277   3.320   6.496   8.778 -0.1115 -1.3719  0.3488
18048SOL    HW255278   3.436   6.590   8.750 -1.5984  0.5231  0.4074
18049SOL     OW55279   3.439   0.358   0.503  0.4002  0.2987  0.7973
18049SOL    HW155280   3.514   0.298   0.504 -0.4515 -0.7938  0.8178
18049SOL    HW255281   3.477   0.444   0.483  1.3994 -0.5901 -1.3203
18050SOL     OW55282   3.842   7.965   5.475  0.2667 -0.3332 -0.2424
18050SOL    HW155283   3.793   7.954   5.393 -0.8620 -1.7679  0.5744
18050SOL    HW255284   3.784   8.019   5.530  1.8639  2.3314 -1.0136
18051SOL     OW55285   7.936   2.595   3.679 -0.2048 -0.0286  0.2362
18051SOL    HW155286   7.945   2.507   3.714 -0.3838 -0.9853 -1.9704
18051SOL    HW255287   8.026   2.625   3.665 -0.1143 -1.1649 -1.9555
18052SOL     OW55288   8.423   6.787   6.851 -0.0630  0.1874  0.1179
18052SOL    HW155289   8.419   6.881   6.832  0.2881 -0.0945 -1.4532
18052SOL    HW255290   8.358   6.748   6.793  0.0794 -0.5875  0.4717
18053SOL     OW55291   3.845   8.139   3.563  0.5237 -0.6748  0.4388
18053SOL    HW155292   3.791   8.083   3.619  1.7037 -0.5244  1.7878
18053SOL    HW255293   3.853   8.089   3.482 -1.5283 -0.7418  0.2128
18054SOL     OW55294   1.803   7.480   1.551  0.4232  0.4534 -0.5360
18054SOL    HW155295   1.799   7.386   1.572 -0.5032  0.3723 -1.0050
18054SOL    HW255296   1.711   7.505   1.538  0.5156  1.7808  1.0777
18055SOL     OW55297   2.610   5.212   8.864 -0.6973  0.3347  0.3653
18055SOL    HW155298   2.575   5.301   8.870 -3.0685 -0.5450  0.8566
18055SOL    HW255299   2.557   5.170   8.797  0.7343 -0.5775 -0.2203
18056SOL     OW55300   6.906   7.306   3.606  0.1967  0.2660  0.0111
18056SOL    HW155301   6.829   7.350   3.643  0.4903  1.4221 -0.6935
18056SOL    HW255302   6.974   7.373   3.606  1.1377 -0.6710  0.3764
18057SOL     OW55303   1.894   0.835   5.938 -0.0790 -0.6531  0.7176
18057SOL    HW155304   1.967   0.793   5.983  1.6114  1.3222 -0.0365
18057SOL    HW255305   1.892   0.794   5.852  0.6179 -0.2298  0.4934
18058SOL     OW55306   5.360   0.619   7.231  0.1068  0.1805 -0.0659
18058SOL    HW155307   5.373   0.528   7.204  0.4992 -0.6140  2.5275
18058SOL    HW255308   5.297   0.613   7.303 -0.6229  2.0926 -0.4926
18059SOL     OW55309   6.340   4.233   8.852  0.0614 -0.3334  0.1206
18059SOL    HW155310   6.303   4.296   8.913 -1.2979 -0.7574 -0.2080
18059SOL    HW255311   6.306   4.148   8.882  0.5904 -0.7197 -0.3419
18060SOL     OW55312   3.139   8.810   1.452 -0.1923 -0.0412 -0.3072
18060SOL    HW155313   3.235   8.806   1.458 -0.2368 -1.4283 -0.1943
18060SOL    HW255314   3.109   8.782   1.539 -0.6949 -0.1610 -0.5198
18061SOL     OW55315   5.421   3.449   6.066 -0.5921  0.4189  0.5079
18061SOL    HW155316   5.445   3.537   6.094  1.0248  0.4313 -0.8240
18061SOL    HW255317   5.372   3.462   5.984  0.2971  0.0535 -0.0897
18062SOL     OW55318   1.939   8.328   4.114 -0.4224 -0.1609  0.4524
18062SOL    HW155319   1.906   8.361   4.197 -0.8698  2.5838 -0.6978
18062SOL    HW255320   2.032   8.350   4.114 -0.4432 -0.0716  0.1747
18063SOL     OW55321   1.881   0.338   7.298 -0.0870 -0.3205 -0.0227
18063SOL    HW155322   1.805   0.371   7.346 -0.2397  0.7710 -0.9485
18063SOL    HW255323   1.845   0.300   7.218  0.1793 -1.9115  0.5735
18064SOL     OW55324   4.068   6.232   6.861 -0.3566  0.1021  0.2539
18064SOL    HW155325   4.132   6.219   6.930 -0.8176  0.0329  0.6758
18064SOL    HW255326   3.994   6.274   6.905 -0.3925  0.6626 -0.3305
18065SOL     OW55327   2.629   6.916   2.386  0.5712 -0.5851 -0.0499
18065SOL    HW155328   2.553   6.916   2.444  1.3504 -0.1064  1.0187
18065SOL    HW255329   2.654   6.824   2.379 -0.4487 -0.8095 -0.8967
18066SOL     OW55330   3.858   1.421   7.573 -0.4790  0.0028  0.0338
18066SOL    HW155331   3.802   1.486   7.530 -0.3121 -0.1536 -0.4263
18066SOL    HW255332   3.897   1.467   7.646 -0.9316  0.2165  0.1463
18067SOL     OW55333   8.735   1.996   6.029  0.1091  0.5272 -0.4590
18067SOL    HW155334   8.741   2.079   6.075  2.9419  1.3845 -2.0949
18067SOL    HW255335   8.820   1.953   6.046 -0.3150 -0.8857 -1.6600
18068SOL     OW55336   1.823   5.341   1.128 -0.1742  0.4570  0.8853
18068SOL    HW155337   1.829   5.423   1.177 -0.5362  0.7952  0.3766
18068SOL    HW255338   1.765   5.361   1.054 -1.6071 -0.6923  1.6352
18069SOL     OW55339   2.235   4.709   6.998 -0.4036  0.2815  0.4304
18069SOL    HW155340   2.257   4.653   6.923  2.1893  1.2261  0.3692
18069SOL    HW255341   2.150   4.677   7.028 -0.1647 -2.0368 -1.1042
18070SOL     OW55342   7.830   0.095   6.097  0.0155  0.4709  0.0304
18070SOL    HW155343   7.884   0.173   6.083  0.4281  0.6215  2.0830
18070SOL    HW255344   7.750   0.112   6.048 -0.0337  2.3485  0.6728
18071SOL     OW55345   8.019   1.113   6.089  0.9526  0.2885  0.3122
18071SOL    HW155346   7.987   1.092   6.177  1.5788  1.0923  0.7377
18071SOL    HW255347   8.032   1.208   6.090  1.1278  0.2830 -0.5961
18072SOL     OW55348   3.112   8.502   7.438  0.2346  0.1269 -0.4620
18072SOL    HW155349   3.140   8.560   7.509  1.9185 -1.6501  0.4160
18072SOL    HW255350   3.028   8.467   7.467  1.0471 -0.8212  0.8733
18073SOL     OW55351   8.217   5.394   9.100  0.5689  0.0262  0.5355
18073SOL    HW155352   8.160   5.407   9.175 -0.7464 -2.5544  0.1203
18073SOL    HW255353   8.303   5.373   9.138  0.4481  0.8046  1.2505
18074SOL     OW55354   1.255   1.843   4.428  0.4147  0.2251 -0.1776
18074SOL    HW155355   1.316   1.857   4.501  1.5139  1.1584 -1.2330
18074SOL    HW255356   1.228   1.752   4.436  1.0602  0.1140  0.9799
18075SOL     OW55357   6.478   5.041   4.053 -0.3330  0.4525  0.2827
18075SOL    HW155358   6.503   4.990   4.130  1.5556  0.3063 -0.3965
18075SOL    HW255359   6.435   4.978   3.995 -0.5180  0.2677  0.6165
18076SOL     OW55360   7.053   6.934   1.389 -1.1877  0.1079  0.6009
18076SOL    HW155361   7.040   6.993   1.464  0.9204 -0.3495  1.4145
18076SOL    HW255362   7.068   6.848   1.429 -0.7607 -0.2850 -0.3814
18077SOL     OW55363   3.862   4.770   3.046 -0.8403  0.2065  0.3501
18077SOL    HW155364   3.775   4.729   3.039 -1.8592  2.3204  0.0186
18077SOL    HW255365   3.906   4.743   2.965 -2.2471  1.3757 -0.8761
18078SOL     OW55366   2.050   4.470   6.890  0.2201  0.4460 -0.1553
18078SOL    HW155367   2.145   4.470   6.879  0.1931 -0.5017 -0.4298
18078SOL    HW255368   2.015   4.465   6.801 -0.0681 -0.5181  0.0054
18079SOL     OW55369   4.685   4.735   8.078 -0.1057  0.1376  0.2248
18079SOL    HW155370   4.746   4.749   8.005 -0.0341 -0.0881  0.2405
18079SOL    HW255371   4.711   4.651   8.114 -0.3992  0.0636  0.2634
18080SOL     OW55372   4.753   7.525   2.677  0.1392  0.1046 -0.1641
18080SOL    HW155373   4.797   7.506   2.760  0.9023  1.4761 -0.2366
18080SOL    HW255374   4.796   7.467   2.614  0.4863  0.0257  0.1420
18081SOL     OW55375   6.728   0.111   6.713  0.1208  0.0967  0.1301
18081SOL    HW155376   6.653   0.053   6.709  0.8510 -0.9135  0.7078
18081SOL    HW255377   6.756   0.121   6.622  1.3501 -2.3094  0.1830
18082SOL     OW55378   2.787   0.798   0.450  0.1638  0.7344 -0.3264
18082SOL    HW155379   2.856   0.777   0.387 -1.5259 -1.2749 -1.6402
18082SOL    HW255380   2.734   0.719   0.455 -0.8974  1.5076  2.2092
18083SOL     OW55381   5.754   6.697   3.335 -0.3459  0.1170  0.2853
18083SOL    HW155382   5.759   6.660   3.247  0.3511 -1.9871  1.1404
18083SOL    HW255383   5.661   6.715   3.349 -0.4515  0.5326 -0.8866
18084SOL     OW55384   1.596   0.595   7.846  0.2891  0.2846  0.0534
18084SOL    HW155385   1.614   0.689   7.845 -0.6516  0.5090  1.3871
18084SOL    HW255386   1.558   0.579   7.932 -1.3525 -0.9748 -0.8414
18085SOL     OW55387   1.312   4.282   1.553 -0.0115 -0.1746 -0.5384
18085SOL    HW155388   1.373   4.355   1.544 -0.7446  0.2216 -2.7248
18085SOL    HW255389   1.345   4.215   1.494 -0.3171 -0.9615  0.1571
18086SOL     OW55390   1.480   2.159   7.806 -0.0833  0.3315 -0.2910
18086SOL    HW155391   1.520   2.162   7.893  0.8839  2.0599 -0.7518
18086SOL    HW255392   1.421   2.084   7.809  0.5832 -0.1596  1.5678
18087SOL     OW55393   0.313   5.672   6.662 -0.2781  0.4453 -0.2732
18087SOL    HW155394   0.220   5.652   6.675 -0.6133  2.2139  0.4759
18087SOL    HW255395   0.350   5.671   6.750  0.8114 -1.7697 -0.6992
18088SOL     OW55396   2.994   3.920   0.978 -0.1721 -0.0932 -0.0729
18088SOL    HW155397   3.076   3.960   1.009  0.0648 -0.2651 -0.4666
18088SOL    HW255398   2.930   3.940   1.047 -0.0251  0.8530 -0.1970
18089SOL     OW55399   5.284   6.360   7.180  0.3996 -0.3286 -0.1976
18089SOL    HW155400   5.297   6.385   7.271 -1.2854 -0.7154  0.1915
18089SOL    HW255401   5.366   6.318   7.154  0.8349 -0.3748  1.1908
18090SOL     OW55402   8.784   1.307   3.023  0.4646 -0.2894 -0.0905
18090SOL    HW155403   8.862   1.350   3.059  0.4747  0.3651 -0.8633
18090SOL    HW255404   8.720   1.377   3.014 -0.3135 -0.8666  0.7492
18091SOL     OW55405   5.527   3.050   1.297 -0.1790  0.5013  0.3124
18091SOL    HW155406   5.612   3.065   1.339 -0.7490  1.5666  1.1499
18091SOL    HW255407   5.478   2.998   1.360  0.4836 -1.8642 -1.0036
18092SOL     OW55408   0.892   1.634   7.571 -0.1454 -0.6341 -0.2636
18092SOL    HW155409   0.890   1.728   7.550  1.4281 -0.1625  1.3878
18092SOL    HW255410   0.802   1.605   7.559 -0.8558  1.2870 -0.0063
18093SOL     OW55411   2.085   2.150   1.569 -0.5908  0.2310 -0.9181
18093SOL    HW155412   2.040   2.184   1.647  0.1939 -0.0462 -0.3256
18093SOL    HW255413   2.141   2.222   1.541 -0.7597  0.2768 -1.1401
18094SOL     OW55414   6.514   1.681   6.800 -0.4307  0.7366  0.6185
18094SOL    HW155415   6.506   1.590   6.770  0.6784  0.6422  0.5865
18094SOL    HW255416   6.506   1.675   6.896 -0.6753  0.6473  0.5937
18095SOL     OW55417   1.758   5.471   7.408 -0.6468  0.3372  0.9472
18095SOL    HW155418   1.743   5.413   7.483  1.0239 -1.3460  0.0467
18095SOL    HW255419   1.672   5.477   7.365 -1.1000 -0.5623  1.6860
18096SOL     OW55420   3.450   8.166   2.947  0.1797 -0.0909 -0.1573
18096SOL    HW155421   3.471   8.252   2.911  3.8947 -1.0551 -0.7387
18096SOL    HW255422   3.519   8.150   3.011 -0.8817 -2.3137  0.5195
18097SOL     OW55423   8.341   0.458   5.331  0.0255 -0.3410 -0.2850
18097SOL    HW155424   8.332   0.541   5.378  0.4318  0.5852 -1.8010
18097SOL    HW255425   8.387   0.401   5.393  0.2008  0.7103  0.5846
18098SOL     OW55426   3.092   8.634   2.301  0.4819 -0.2497 -0.0391
18098SOL    HW155427   3.115   8.542   2.286  0.0025 -0.2949 -0.5310
18098SOL    HW255428   2.998   8.638   2.283 -0.4171 -0.4994  3.8002
18099SOL     OW55429   3.180   8.378   6.135 -0.1771 -0.0501 -0.1199
18099SOL    HW155430   3.186   8.396   6.229 -0.6639  1.1351 -0.2875
18099SOL    HW255431   3.128   8.298   6.129  1.4663 -1.2143  0.6690
18100SOL     OW55432   4.300   0.983   2.584  0.8891  0.3249  0.5956
18100SOL    HW155433   4.387   0.993   2.544  0.0903 -0.6571 -1.5502
18100SOL    HW255434   4.239   0.986   2.510 -0.9809  1.5370  2.1055
18101SOL     OW55435   6.705   0.114   5.061  0.3978  0.3765 -0.0466
18101SOL    HW155436   6.633   0.064   5.022  0.0014  0.1380  0.9444
18101SOL    HW255437   6.665   0.196   5.090  0.2694 -0.1573  1.3996
18102SOL     OW55438   7.450   4.282   8.795 -0.2956 -0.4845  0.2677
18102SOL    HW155439   7.373   4.335   8.774  0.4663  0.5458 -0.0148
18102SOL    HW255440   7.513   4.345   8.831  0.2645 -1.3780  0.8856
18103SOL     OW55441   6.429   3.351   1.934 -0.1138 -0.0833 -0.0624
18103SOL    HW155442   6.381   3.394   2.004  0.8026  0.3381  0.3155
18103SOL    HW255443   6.363   3.295   1.891 -1.1418  1.0827 -0.0766
18104SOL     OW55444   4.732   3.850   6.613 -0.1260  0.1371 -0.1996
18104SOL    HW155445   4.825   3.845   6.591 -0.2341 -0.0513 -0.6243
18104SOL    HW255446   4.696   3.766   6.583 -0.3724  0.0846  0.2436
18105SOL     OW55447   7.453   7.686   4.458  0.2487 -0.6124 -0.3376
18105SOL    HW155448   7.398   7.677   4.536  1.0671  0.2592  0.3584
18105SOL    HW255449   7.392   7.676   4.384 -0.7041 -0.4327  0.4070
18106SOL     OW55450   7.805   7.871   6.891 -0.1478 -0.5836 -0.6627
18106SOL    HW155451   7.730   7.930   6.882 -0.1938 -0.3341  1.0463
18106SOL    HW255452   7.864   7.916   6.951  1.1269 -1.0399 -1.5394
18107SOL     OW55453   7.229   2.639   3.271  0.2650 -0.3191  0.1562
18107SOL    HW155454   7.272   2.711   3.225  0.6980 -0.1427  0.8152
18107SOL    HW255455   7.175   2.682   3.337  0.1396 -0.5827  0.2237
18108SOL     OW55456   1.543   2.686   4.070 -0.2219  0.1080 -0.8093
18108SOL    HW155457   1.575   2.596   4.075  2.3843  0.9893 -0.4671
18108SOL    HW255458   1.489   2.696   4.149 -0.5850 -1.1278 -0.8766
18109SOL     OW55459   2.283   3.634   8.144 -0.1898  0.0085 -0.2264
18109SOL    HW155460   2.259   3.631   8.051  0.7358 -0.0100 -0.4754
18109SOL    HW255461   2.374   3.662   8.144 -0.0666 -0.3591  0.6612
18110SOL     OW55462   4.747   2.091   1.617 -0.1318  0.3846  0.0602
18110SOL    HW155463   4.826   2.075   1.565 -0.0053  0.4957  0.2182
18110SOL    HW255464   4.728   2.007   1.659  0.4326  0.5927  0.7518
18111SOL     OW55465   6.554   2.696   0.173 -0.5330  0.0545 -0.1055
18111SOL    HW155466   6.606   2.743   0.237 -0.1594 -1.3141  0.6332
18111SOL    HW255467   6.470   2.742   0.172 -0.9772 -0.5463  2.2527
18112SOL     OW55468   3.551   3.169   3.407 -0.0422  0.3297 -0.3694
18112SOL    HW155469   3.559   3.244   3.349 -1.7493  0.7168 -0.1705
18112SOL    HW255470   3.474   3.188   3.460 -0.5980 -1.6086 -0.3990
18113SOL     OW55471   8.622   2.647   4.691  0.5641 -0.6524 -0.4044
18113SOL    HW155472   8.656   2.595   4.618  0.3313  2.4832 -2.9899
18113SOL    HW255473   8.529   2.625   4.694  0.3313 -0.0333 -1.8928
18114SOL     OW55474   3.940   1.250   2.892 -0.0669  0.0919 -0.4915
18114SOL    HW155475   3.897   1.168   2.917 -1.0288  1.2525  1.9235
18114SOL    HW255476   3.940   1.303   2.972 -1.0231  3.1305 -2.3475
18115SOL     OW55477   6.305   3.930   6.726  0.2723 -0.3321 -0.3805
18115SOL    HW155478   6.362   3.854   6.730 -1.5940 -1.7425  0.8705
18115SOL    HW255479   6.222   3.897   6.690 -0.8957  0.8577  1.0737
18116SOL     OW55480   6.727   5.731   6.195 -0.1903 -0.2525  0.1385
18116SOL    HW155481   6.744   5.824   6.210 -0.3298 -0.1043 -0.5684
18116SOL    HW255482   6.812   5.689   6.203  0.1926  0.1895 -1.2723
18117SOL     OW55483   7.917   6.689   5.542 -0.0730  0.5478 -0.0522
18117SOL    HW155484   7.941   6.682   5.634 -0.6416  1.0671  0.1479
18117SOL    HW255485   7.854   6.619   5.528  1.2400 -0.5829 -0.4841
18118SOL     OW55486   2.319   7.881   5.605  0.3960  0.0569  0.1940
18118SOL    HW155487   2.403   7.878   5.650 -0.4014 -0.1254  1.7688
18118SOL    HW255488   2.330   7.824   5.529  1.6208 -0.1234  0.4894
18119SOL     OW55489   6.768   8.567   6.210  0.3156 -0.0599 -0.0545
18119SOL    HW155490   6.758   8.506   6.138 -0.5241 -0.8207  0.6782
18119SOL    HW255491   6.726   8.648   6.180  4.0578  1.3298 -2.2485
18120SOL     OW55492   6.031   4.953   8.691 -0.5638  0.1102  0.1696
18120SOL    HW155493   5.988   4.953   8.606  0.0650  1.4245 -0.1598
18120SOL    HW255494   5.961   4.931   8.753 -1.5121  1.2684 -0.4527
18121SOL     OW55495   5.207   6.961   4.369 -0.4584 -0.0648  0.9563
18121SOL    HW155496   5.159   6.934   4.291 -0.1481 -0.2296  0.8194
18121SOL    HW255497   5.279   6.898   4.376  0.4591  0.9113  0.4599
18122SOL     OW55498   6.334   5.638   7.467 -0.3403  0.6886 -0.3333
18122SOL    HW155499   6.323   5.704   7.535 -2.2389  0.0797  0.0094
18122SOL    HW255500   6.399   5.578   7.502  0.3930  1.6174 -0.0646
18123SOL     OW55501   4.875   1.080   0.495 -0.8457  0.0484  0.1313
18123SOL    HW155502   4.889   0.989   0.471 -0.3109 -0.4448  2.1427
18123SOL    HW255503   4.782   1.085   0.515 -0.4999 -0.6494  2.1310
18124SOL     OW55504   7.665   6.765   5.437 -0.0168 -0.8568  0.5404
18124SOL    HW155505   7.672   6.724   5.351  0.0167  0.0806  0.0713
18124SOL    HW255506   7.589   6.823   5.429  0.3839 -0.2687  0.9263
18125SOL     OW55507   1.884   5.359   0.545 -0.2593 -0.8424 -0.2456
18125SOL    HW155508   1.898   5.308   0.624 -0.3006  0.4389  0.6206
18125SOL    HW255509   1.808   5.319   0.503 -2.0493  0.1812  1.8655
18126SOL     OW55510   1.246   1.934   2.144 -0.0811  0.0059 -0.2931
18126SOL    HW155511   1.246   1.839   2.153  0.2937  0.0623  0.4647
18126SOL    HW255512   1.156   1.960   2.163 -0.6252 -0.3111 -2.2207
18127SOL     OW55513   0.848   6.190   8.142  0.0073  0.1699  0.4756
18127SOL    HW155514   0.805   6.115   8.100  2.4283 -0.5720 -0.8860
18127SOL    HW255515   0.777   6.238   8.184 -1.5730 -3.2900  2.1253
18128SOL     OW55516   8.257   0.289   3.059 -0.3574  0.0707  0.5408
18128SOL    HW155517   8.212   0.241   2.989  0.7343  2.7091 -2.1837
18128SOL    HW255518   8.313   0.223   3.101 -3.2921 -2.2786  1.1021
18129SOL     OW55519   5.348   8.746   0.082  0.0090 -0.4929 -0.5217
18129SOL    HW155520   5.285   8.770   0.150  0.3901 -0.8758 -0.0223
18129SOL    HW255521   5.409   8.820   0.078 -0.1906 -0.3358 -0.6639
18130SOL     OW55522   2.299   8.397   6.365  0.3354 -0.2892  0.4301
18130SOL    HW155523   2.277   8.321   6.419 -1.0340 -1.3568 -1.5144
18130SOL    HW255524   2.219   8.416   6.316  1.1818  1.3131 -0.4229
18131SOL     OW55525   2.399   8.473   0.986 -0.2985 -0.1108  0.0480
18131SOL    HW155526   2.418   8.528   1.062 -1.6941 -0.3168  0.5688
18131SOL    HW255527   2.482   8.468   0.939  0.0621  1.7756  0.4048
18132SOL     OW55528   7.227   8.474   6.438  0.0450 -0.3246 -0.5555
18132SOL    HW155529   7.184   8.501   6.519 -0.7878 -0.5242 -0.9192
18132SOL    HW255530   7.214   8.547   6.378 -0.6623 -0.7877 -0.9797
18133SOL     OW55531   7.863   1.113   6.703  0.2859  0.1862  0.2023
18133SOL    HW155532   7.781   1.111   6.654  1.6089  3.3731 -2.4831
18133SOL    HW255533   7.842   1.162   6.783 -0.7038 -0.3583  0.2999
18134SOL     OW55534   4.595   8.484   0.901 -0.3159 -0.3735  0.2512
18134SOL    HW155535   4.593   8.451   0.991  1.1799  1.4708  1.0372
18134SOL    HW255536   4.683   8.521   0.891 -0.8682  0.5816 -1.5611
18135SOL     OW55537   8.147   1.628   7.514  0.3632 -0.0299  0.5632
18135SOL    HW155538   8.211   1.573   7.560  0.5989  0.1184  0.4190
18135SOL    HW255539   8.116   1.689   7.580  0.5520  0.0521  0.5787
18136SOL     OW55540   3.154   5.269   5.032 -0.7105  0.1632 -0.6136
18136SOL    HW155541   3.241   5.307   5.038 -0.3833 -0.7003  0.4381
18136SOL    HW255542   3.123   5.293   4.944  0.3017  1.0486 -0.7432
18137SOL     OW55543   6.292   4.932   7.859  0.1679 -0.1683 -0.1802
18137SOL    HW155544   6.281   5.005   7.920  1.0245 -0.5310  0.4308
18137SOL    HW255545   6.217   4.938   7.800 -0.9777 -0.1233  1.2337
18138SOL     OW55546   8.358   4.816   6.138 -0.4248 -0.3595 -0.0590
18138SOL    HW155547   8.327   4.876   6.070  2.0707  0.4793 -0.5556
18138SOL    HW255548   8.403   4.872   6.201 -3.0800 -1.0493  2.6532
18139SOL     OW55549   6.770   0.593   4.751  0.0859 -0.5652 -0.1950
18139SOL    HW155550   6.758   0.675   4.800  0.2566  0.0987 -1.2360
18139SOL    HW255551   6.864   0.589   4.734  0.1527 -1.2591  0.3122
18140SOL     OW55552   7.295   5.110   4.643  0.6169  0.1558 -0.3691
18140SOL    HW155553   7.310   5.093   4.550  0.4272  1.4469 -0.6625
18140SOL    HW255554   7.207   5.149   4.646  0.6093  0.0930  0.3574
18141SOL     OW55555   5.828   8.770   7.728  0.0474 -0.0396 -0.6786
18141SOL    HW155556   5.890   8.813   7.788 -2.2581 -0.4958  2.2414
18141SOL    HW255557   5.861   8.681   7.720 -0.2084 -0.3037  0.9211
18142SOL     OW55558   8.085   6.275   0.400 -0.1240 -0.1032 -0.4093
18142SOL    HW155559   8.112   6.338   0.333  1.3690  3.1660  2.8415
18142SOL    HW255560   8.168   6.246   0.439 -0.8386  1.6563  2.7712
18143SOL     OW55561   4.220   7.608   1.932  0.1821 -0.7793 -0.4402
18143SOL    HW155562   4.194   7.576   1.845  1.1264 -0.4798 -0.8393
18143SOL    HW255563   4.309   7.641   1.920 -0.6720  1.9278 -0.0354
18144SOL     OW55564   4.097   5.686   7.038 -0.5216 -0.2799 -0.1137
18144SOL    HW155565   4.177   5.725   7.002  0.1675 -0.5334  1.0982
18144SOL    HW255566   4.113   5.680   7.132 -1.2572 -1.9892 -0.0622
18145SOL     OW55567   4.362   8.328   6.505 -0.4871  0.4489 -0.1580
18145SOL    HW155568   4.385   8.364   6.420 -0.1470 -2.3563 -1.3796
18145SOL    HW255569   4.269   8.350   6.517 -1.0186 -0.5203 -2.0936
18146SOL     OW55570   4.807   7.909   1.461  0.2978  0.2823 -0.1588
18146SOL    HW155571   4.772   7.973   1.523  0.1769  0.3134 -0.2579
18146SOL    HW255572   4.822   7.960   1.381  4.3126  1.2149  0.9911
18147SOL     OW55573   6.236   5.358   3.081  0.1968 -0.1600 -0.9359
18147SOL    HW155574   6.300   5.377   3.013  3.0892  0.9114  1.8234
18147SOL    HW255575   6.182   5.437   3.086  1.0634  0.4417 -0.8810
18148SOL     OW55576   5.962   2.276   2.111  0.6599  0.1330 -0.1178
18148SOL    HW155577   5.892   2.267   2.047  0.3270  3.3080 -0.3971
18148SOL    HW255578   5.920   2.256   2.195  0.7530 -2.7052 -0.6503
18149SOL     OW55579   2.276   2.834   0.446  0.2546 -0.5346  0.0108
18149SOL    HW155580   2.264   2.838   0.541 -0.7107 -0.0182 -0.1231
18149SOL    HW255581   2.216   2.766   0.417  1.1250 -1.2545 -0.1576
18150SOL     OW55582   4.324   3.091   3.403 -0.1075  0.0300 -0.1449
18150SOL    HW155583   4.281   3.095   3.318 -0.5246  0.0539  0.0624
18150SOL    HW255584   4.258   3.123   3.465  1.1802  2.9349 -0.1386
18151SOL     OW55585   8.143   6.951   3.215 -0.0959  0.6340 -0.2181
18151SOL    HW155586   8.219   6.912   3.258 -1.0783 -0.4780  0.5817
18151SOL    HW255587   8.179   7.020   3.160  1.5179 -0.0891 -0.1125
18152SOL     OW55588   8.376   6.377   4.361  0.1402  0.0739 -0.3875
18152SOL    HW155589   8.338   6.406   4.444  0.5592 -0.0666 -0.1442
18152SOL    HW255590   8.318   6.413   4.294 -0.1983  0.1899 -0.0343
18153SOL     OW55591   0.649   1.106   0.384 -0.7427  0.1432  0.0140
18153SOL    HW155592   0.717   1.143   0.328 -1.1595 -0.5605 -0.9798
18153SOL    HW255593   0.695   1.044   0.440 -0.3677  0.6490  0.2785
18154SOL     OW55594   1.205   1.191   6.488 -0.4266  0.0125 -0.0312
18154SOL    HW155595   1.231   1.236   6.568 -1.3256 -0.3558  0.4919
18154SOL    HW255596   1.154   1.116   6.519  0.7900 -1.2037 -0.8889
18155SOL     OW55597   2.765   5.408   3.214  0.3214  0.0321 -0.4612
18155SOL    HW155598   2.720   5.488   3.185 -1.6743 -1.5688 -2.0631
18155SOL    HW255599   2.704   5.366   3.274  1.6959  0.0594  1.0141
18156SOL     OW55600   4.445   0.172   3.703 -0.1264  0.2793  0.0220
18156SOL    HW155601   4.434   0.239   3.637  0.9223  0.9188  0.4817
18156SOL    HW255602   4.522   0.122   3.675  0.0270  0.2453  0.4934
18157SOL     OW55603   0.320   7.522   8.493  0.0335  0.7612 -0.3845
18157SOL    HW155604   0.372   7.506   8.573 -0.5989  0.7893  0.0367
18157SOL    HW255605   0.385   7.550   8.428  1.0484 -2.2131 -0.8057
18158SOL     OW55606   1.466   4.757   7.902 -0.3947 -0.5325  0.3235
18158SOL    HW155607   1.456   4.749   7.808  0.4516  0.9033  0.0683
18158SOL    HW255608   1.377   4.761   7.936 -0.7069 -0.0741 -0.5257
18159SOL     OW55609   3.967   2.322   9.061  0.2555  0.0330  0.2363
18159SOL    HW155610   3.891   2.277   9.025  0.5127  0.4999 -0.9239
18159SOL    HW255611   4.037   2.306   8.998  1.4816 -1.3864  1.8624
18160SOL     OW55612   1.942   9.002   4.110  0.0143 -0.2862 -0.5678
18160SOL    HW155613   1.906   8.913   4.110 -1.7787  0.4006 -0.9961
18160SOL    HW255614   1.906   9.043   4.031 -0.0037  1.1217  0.1367
18161SOL     OW55615   7.471   1.118   6.938 -0.2729 -0.5922 -0.0255
18161SOL    HW155616   7.534   1.187   6.920 -2.7763  1.7000 -0.8009
18161SOL    HW255617   7.500   1.045   6.884  1.2985  0.6103 -0.9133
18162SOL     OW55618   4.038   6.747   3.616 -0.5954  0.3185  0.0056
18162SOL    HW155619   4.095   6.742   3.693 -1.3512  3.6734  0.9756
18162SOL    HW255620   3.978   6.820   3.635 -2.1035  0.0308 -2.9610
18163SOL     OW55621   6.006   4.615   4.303 -0.5542  0.2739  0.3991
18163SOL    HW155622   6.030   4.668   4.380 -1.0005 -0.1966  0.8679
18163SOL    HW255623   5.912   4.603   4.311 -0.4998 -0.3387  0.1297
18164SOL     OW55624   8.427   8.445   7.580 -0.2599 -0.4380  0.0261
18164SOL    HW155625   8.413   8.463   7.672 -0.3682  1.7970 -0.3666
18164SOL    HW255626   8.386   8.359   7.565  1.5987 -1.8805  2.4370
18165SOL     OW55627   2.849   3.370   4.970 -0.0995 -0.0059  0.2112
18165SOL    HW155628   2.754   3.368   4.980 -0.2809  2.5410 -0.4189
18165SOL    HW255629   2.870   3.462   4.957  2.6777 -0.2186  2.2330
18166SOL     OW55630   3.531   4.282   7.516  0.4420  0.4245 -0.3564
18166SOL    HW155631   3.473   4.207   7.511 -1.6678  1.9096  0.5911
18166SOL    HW255632   3.575   4.273   7.600  1.0485 -0.2976 -0.7371
18167SOL     OW55633   4.692   0.429   8.435 -0.4087 -0.3892  0.3116
18167SOL    HW155634   4.692   0.378   8.516  0.0952 -0.3286  0.3579
18167SOL    HW255635   4.691   0.520   8.464  0.9472 -0.3468  0.2889
18168SOL     OW55636   2.516   6.349   5.072 -0.1613 -0.0160  0.2799
18168SOL    HW155637   2.528   6.254   5.079  2.2539  0.2120  0.1284
18168SOL    HW255638   2.507   6.365   4.978 -1.8836 -0.1792  0.3881
18169SOL     OW55639   8.771   7.519   0.221 -0.5140  0.0608  0.1085
18169SOL    HW155640   8.835   7.448   0.218 -0.2587  0.2303  1.1388
18169SOL    HW255641   8.757   7.543   0.129  1.4607  0.5266 -0.1062
18170SOL     OW55642   2.955   8.475   2.638 -0.3663 -0.0676  0.0106
18170SOL    HW155643   2.873   8.459   2.590 -0.4813  1.2351 -0.2598
18170SOL    HW255644   2.931   8.538   2.706 -0.1224 -1.5977  1.5807
18171SOL     OW55645   1.174   0.861   7.801 -0.4794 -0.0601 -0.7406
18171SOL    HW155646   1.217   0.804   7.737  2.2380  0.3052  0.6058
18171SOL    HW255647   1.208   0.831   7.886 -1.7311  1.3279  0.2934
18172SOL     OW55648   5.748   2.077   4.173 -0.0220  0.0793 -0.5665
18172SOL    HW155649   5.732   2.120   4.257 -0.8912 -0.6907 -0.3228
18172SOL    HW255650   5.693   2.124   4.111 -2.0364 -1.4373 -0.0564
18173SOL     OW55651   6.257   0.688   3.723 -0.2003  0.5277  0.1378
18173SOL    HW155652   6.188   0.631   3.691 -1.0497  2.0044 -0.7572
18173SOL    HW255653   6.335   0.632   3.726 -1.3050 -1.0522  0.7678
18174SOL     OW55654   4.212   8.063   3.146  0.4385  0.1344 -0.8990
18174SOL    HW155655   4.142   8.042   3.208  1.3171  0.8889  0.3901
18174SOL    HW255656   4.270   7.987   3.148  0.0311 -0.2040 -1.4635
18175SOL     OW55657   7.791   7.129   2.079 -0.3440  0.2251  0.0132
18175SOL    HW155658   7.763   7.083   2.158  0.2865 -0.3241 -0.0768
18175SOL    HW255659   7.886   7.138   2.089 -0.2163 -0.1245 -0.8294
18176SOL     OW55660   5.636   3.868   6.409 -0.1260 -0.5330 -0.1271
18176SOL    HW155661   5.656   3.816   6.487 -0.5535 -1.4949 -0.6361
18176SOL    HW255662   5.588   3.944   6.442  2.1040  0.5487  0.8456
18177SOL     OW55663   3.110   7.576   1.862 -0.0890  0.5982 -0.1395
18177SOL    HW155664   3.153   7.640   1.919  1.8041 -0.6344 -0.0883
18177SOL    HW255665   3.147   7.592   1.775  1.0567 -0.8784  0.0208
18178SOL     OW55666   5.836   6.269   5.407 -0.1811  0.0943 -0.4436
18178SOL    HW155667   5.745   6.284   5.382 -0.0683  0.8322 -0.4318
18178SOL    HW255668   5.882   6.256   5.324 -0.2512 -0.0210 -0.4645
18179SOL     OW55669   0.121   7.390   3.024 -0.2561  0.7282 -0.1425
18179SOL    HW155670   0.026   7.373   3.024 -0.1538 -0.0108  1.4193
18179SOL    HW255671   0.146   7.384   2.932 -1.7147  0.8309 -0.5751
18180SOL     OW55672   3.273   6.637   7.439 -0.1856 -0.2580  0.1724
18180SOL    HW155673   3.366   6.660   7.437 -0.2368 -0.0128  0.5950
18180SOL    HW255674   3.228   6.719   7.456 -0.5139 -0.3045 -0.4359
18181SOL     OW55675   4.389   5.656   4.852  0.4840 -0.1675 -0.3955
18181SOL    HW155676   4.376   5.686   4.942  0.4627 -0.8885 -0.1509
18181SOL    HW255677   4.347   5.723   4.798 -2.4633 -1.3123  0.2777
18182SOL     OW55678   4.790   2.527   4.177 -0.0967  0.1367 -0.0397
18182SOL    HW155679   4.879   2.504   4.204 -0.6868 -0.2475  1.7747
18182SOL    HW255680   4.798   2.550   4.085  1.9015  0.2360  0.1000
18183SOL     OW55681   8.125   6.682   6.222  0.3238 -0.3367  0.4599
18183SOL    HW155682   8.096   6.768   6.251 -1.0693 -1.0804  1.4534
18183SOL    HW255683   8.084   6.621   6.284  1.6110 -1.6922  0.0454
18184SOL     OW55684   1.252   4.231   7.231  0.1258 -0.2730  0.8052
18184SOL    HW155685   1.183   4.184   7.277 -0.7556 -0.8984 -1.0533
18184SOL    HW255686   1.242   4.322   7.259  0.1144 -0.7332  2.3831
18185SOL     OW55687   0.035   1.276   4.866 -0.0080  0.2781 -0.0597
18185SOL    HW155688   0.063   1.199   4.915  1.9885  1.6944  1.1876
18185SOL    HW255689  -0.003   1.334   4.931  1.0340  1.4540 -0.4477
18186SOL     OW55690   0.936   2.878   1.134  0.4426 -0.0266  0.1945
18186SOL    HW155691   0.946   2.839   1.222 -0.6686 -0.5448  0.1113
18186SOL    HW255692   1.011   2.936   1.125  0.5711  0.0531  1.5081
18187SOL     OW55693   1.329   4.921   1.131 -0.5979  0.2901  0.2127
18187SOL    HW155694   1.250   4.938   1.183 -0.5825  2.4817 -0.3948
18187SOL    HW255695   1.366   5.007   1.115  1.2487 -0.6047 -0.6056
18188SOL     OW55696   0.485   1.210   0.135 -0.1895 -0.4133 -0.2412
18188SOL    HW155697   0.492   1.114   0.137  0.8564 -0.3591 -0.4118
18188SOL    HW255698   0.482   1.236   0.227 -2.2686 -0.6867 -0.1825
18189SOL     OW55699   4.514   7.763   6.644 -0.0058  0.4622 -0.7364
18189SOL    HW155700   4.449   7.796   6.705 -0.0138 -0.5951 -0.1521
18189SOL    HW255701   4.586   7.733   6.699  0.2995  0.1686 -1.2867
18190SOL     OW55702   4.289   4.569   3.096  0.2575 -0.1646  0.2933
18190SOL    HW155703   4.295   4.653   3.141  0.6158 -0.6251  1.1177
18190SOL    HW255704   4.335   4.507   3.153 -2.5937 -1.5596  1.2830
18191SOL     OW55705   2.194   9.100   8.743 -0.3315  0.2482 -0.1777
18191SOL    HW155706   2.220   9.013   8.714  0.9119  0.9425 -1.2723
18191SOL    HW255707   2.120   9.123   8.686  0.6912  0.7162 -1.3832
18192SOL     OW55708   3.132   4.657   1.264  0.4125 -0.3114 -0.5359
18192SOL    HW155709   3.143   4.717   1.338  1.4160 -0.1154 -0.8305
18192SOL    HW255710   3.109   4.713   1.190  1.5601 -0.2432 -0.8606
18193SOL     OW55711   3.943   6.066   2.972 -0.4168 -0.2538 -0.2914
18193SOL    HW155712   3.870   6.110   3.017 -0.3332  0.5253 -0.8922
18193SOL    HW255713   3.933   5.974   2.995 -0.6287  0.0626  0.9801
18194SOL     OW55714   3.375   7.083   5.591  0.1161  0.3774  0.0734
18194SOL    HW155715   3.382   6.989   5.606 -1.6179  0.3406  0.8547
18194SOL    HW255716   3.324   7.091   5.510 -0.5467  0.6222  0.5010
18195SOL     OW55717   0.801   2.014   0.604 -0.1036  0.4466  0.1421
18195SOL    HW155718   0.783   1.923   0.583  1.2152  0.2853 -0.3322
18195SOL    HW255719   0.717   2.058   0.590 -0.3200 -0.3786 -1.4029
18196SOL     OW55720   4.907   3.987   4.554  0.1161  0.3588  0.3933
18196SOL    HW155721   4.848   3.973   4.480  1.9425  0.4640 -1.1533
18196SOL    HW255722   4.925   4.081   4.554  0.4505  0.2986  0.7158
18197SOL     OW55723   2.318   7.498   3.601 -0.5749  0.5023  0.4671
18197SOL    HW155724   2.383   7.450   3.550  0.1058  3.0704 -1.2802
18197SOL    HW255725   2.248   7.519   3.539 -1.1799  1.1758  1.3291
18198SOL     OW55726   4.102   6.886   3.031  0.2883  0.1047 -0.0831
18198SOL    HW155727   4.197   6.902   3.037  0.2203  0.7657 -0.6578
18198SOL    HW255728   4.075   6.871   3.122  0.7359  1.2245  0.2596
18199SOL     OW55729   0.899   0.014   2.160 -0.3259  0.1380  0.0046
18199SOL    HW155730   0.890   0.097   2.114  0.3988  0.1209 -0.1789
18199SOL    HW255731   0.993  -0.006   2.157 -0.4970 -0.7295 -0.0310
18200SOL     OW55732   0.749   4.660   0.166  0.3534  0.1330 -0.4052
18200SOL    HW155733   0.804   4.701   0.233  1.1582  0.4914 -1.2731
18200SOL    HW255734   0.670   4.714   0.164 -0.1015 -0.4275  0.8983
18201SOL     OW55735   6.407   5.832   0.224 -0.2957  0.4154  0.3511
18201SOL    HW155736   6.384   5.865   0.311  1.3602  0.1000  0.9323
18201SOL    HW255737   6.330   5.850   0.170 -1.9039 -0.5851  2.1883
18202SOL     OW55738   1.053   6.082   3.908  0.6535  0.2401  0.0732
18202SOL    HW155739   0.993   6.149   3.940 -0.6268 -0.4168 -0.8475
18202SOL    HW255740   1.011   5.999   3.932  0.7681 -0.2353 -1.2869
18203SOL     OW55741   6.871   7.523   7.481 -0.5026  0.5671 -0.1604
18203SOL    HW155742   6.901   7.525   7.390 -1.4362  0.5982 -0.4829
18203SOL    HW255743   6.951   7.520   7.533  0.0490  0.8489 -0.9750
18204SOL     OW55744   3.393   8.079   0.854  0.4300 -0.7200 -0.0640
18204SOL    HW155745   3.475   8.035   0.875  0.7589 -0.6402 -1.1344
18204SOL    HW255746   3.380   8.063   0.761 -1.1660 -1.3600  0.2458
18205SOL     OW55747   3.363   2.348   0.074  0.2304  0.5380 -0.2927
18205SOL    HW155748   3.401   2.314  -0.007  1.0055 -0.7265  0.5692
18205SOL    HW255749   3.434   2.342   0.138 -0.1398  2.2410  0.3115
18206SOL     OW55750   2.198   3.411   9.087  0.5960 -0.3722 -0.6159
18206SOL    HW155751   2.180   3.387   8.996  1.4734 -0.5546 -0.7595
18206SOL    HW255752   2.113   3.410   9.130  0.2655 -1.0453 -1.2614
18207SOL     OW55753   7.643   0.498   2.899  0.1474 -0.7938 -0.7924
18207SOL    HW155754   7.733   0.503   2.868  0.5390 -1.7135  0.1390
18207SOL    HW255755   7.639   0.562   2.970  0.1981 -1.0778 -0.5322
18208SOL     OW55756   4.371   5.862   8.524  0.0420  0.4261  0.0583
18208SOL    HW155757   4.297   5.851   8.583 -0.0506  1.0218  0.0558
18208SOL    HW255758   4.436   5.799   8.556  0.1557  1.0283  1.0645
18209SOL     OW55759   4.852   4.766   6.888  0.1144  0.5084  0.0147
18209SOL    HW155760   4.909   4.837   6.858  0.2729  0.1624 -0.5221
18209SOL    HW255761   4.817   4.797   6.971 -0.6990  1.7059 -0.7301
18210SOL     OW55762   6.788   0.711   6.125  0.0631  0.1441  0.2774
18210SOL    HW155763   6.872   0.756   6.127 -0.0139  0.3612 -0.7301
18210SOL    HW255764   6.781   0.668   6.210  2.1901 -1.6984 -0.3828
18211SOL     OW55765   5.045   3.545   1.332  0.0714  0.2361 -0.4049
18211SOL    HW155766   4.986   3.477   1.363  1.3243 -1.3730 -1.4314
18211SOL    HW255767   4.987   3.613   1.298 -1.1995 -0.4313  0.3559
18212SOL     OW55768   1.541   5.240   0.680 -0.2603 -0.1499  0.2418
18212SOL    HW155769   1.562   5.221   0.588  0.4761  0.5517  0.2571
18212SOL    HW255770   1.446   5.252   0.680 -0.0470  1.9940 -0.8585
18213SOL     OW55771   8.745   8.185   5.350  0.0104  0.4407 -0.6811
18213SOL    HW155772   8.700   8.242   5.412 -0.3930  2.7060 -2.9053
18213SOL    HW255773   8.676   8.130   5.313  0.3887 -1.6056  1.4134
18214SOL     OW55774   1.192   0.666   5.503 -0.5640 -0.2052 -0.1314
18214SOL    HW155775   1.281   0.651   5.535 -0.3153  0.4906 -0.4570
18214SOL    HW255776   1.139   0.675   5.583 -0.7926 -2.8638  0.0917
18215SOL     OW55777   7.512   6.722   0.562  0.7800 -0.3432  0.6088
18215SOL    HW155778   7.577   6.673   0.612  0.7630  0.3910  1.3845
18215SOL    HW255779   7.556   6.805   0.542  0.2849 -0.0679  0.6546
18216SOL     OW55780   1.820   0.402   5.600 -0.0533  0.3028 -0.2663
18216SOL    HW155781   1.854   0.458   5.670  1.1840 -1.5063  0.6584
18216SOL    HW255782   1.897   0.370   5.554 -0.7877  0.2864 -1.5316
18217SOL     OW55783   6.104   2.033   5.491  0.2537 -0.2029 -0.2120
18217SOL    HW155784   6.053   1.957   5.520  1.9017 -0.6448  1.7551
18217SOL    HW255785   6.054   2.108   5.522  0.2093 -0.5974  0.7072
18218SOL     OW55786   5.005   0.205   2.953 -0.3069  0.6708  0.1503
18218SOL    HW155787   5.084   0.247   2.987  0.3780 -0.2338 -0.2770
18218SOL    HW255788   5.010   0.115   2.986 -0.6072  0.3111 -0.7568
18219SOL     OW55789   1.454   4.372   8.721 -0.0609  0.2898  0.5475
18219SOL    HW155790   1.464   4.278   8.708 -1.5077  0.1386  0.3137
18219SOL    HW255791   1.535   4.399   8.765  0.1801 -1.1454  1.0523
18220SOL     OW55792   3.040   1.034   2.580  0.3762  0.2054 -0.0992
18220SOL    HW155793   3.136   1.028   2.577  0.3154 -3.7052 -0.1497
18220SOL    HW255794   3.012   1.010   2.492 -0.6245 -0.0552  0.2790
18221SOL     OW55795   8.695   8.930   6.139 -0.1843  0.2313 -0.1442
18221SOL    HW155796   8.756   8.987   6.186 -0.0613 -0.4986  0.6234
18221SOL    HW255797   8.749   8.888   6.072  0.4445 -1.1512  1.1549
18222SOL     OW55798   1.290   0.490   8.349 -0.5556 -0.5402  0.4479
18222SOL    HW155799   1.280   0.550   8.423  0.4290  0.8220 -0.4806
18222SOL    HW255800   1.269   0.404   8.386 -3.6577  0.4902  1.4134
18223SOL     OW55801   8.030   3.934   3.770  0.8397  0.1431  0.3434
18223SOL    HW155802   7.977   3.889   3.703 -0.0219  0.2393  0.9409
18223SOL    HW255803   8.120   3.914   3.746  0.5045 -1.2697  0.1315
18224SOL     OW55804   3.669   6.088   1.389  0.0964 -0.2520 -0.5232
18224SOL    HW155805   3.630   6.096   1.302  0.0440  0.8682 -0.4165
18224SOL    HW255806   3.631   6.161   1.438  0.1307 -0.8691  0.4365
18225SOL     OW55807   4.168   3.557   8.860 -0.0125  0.0686 -0.1346
18225SOL    HW155808   4.210   3.628   8.908  0.7810 -0.6680  0.2911
18225SOL    HW255809   4.179   3.581   8.768  1.3425 -0.0778 -0.0377
18226SOL     OW55810   4.654   0.018   6.232  0.3508 -0.3815  0.6690
18226SOL    HW155811   4.580   0.076   6.215 -1.2069 -1.9234  1.7556
18226SOL    HW255812   4.645  -0.003   6.325  3.4147  0.9991  1.3819
18227SOL     OW55813   8.899   4.060   7.383  0.2068 -0.3668  0.1812
18227SOL    HW155814   8.884   4.141   7.335  3.6785  0.9695  1.0970
18227SOL    HW255815   8.957   4.085   7.455  1.6885 -3.7135  0.3113
18228SOL     OW55816   5.498   1.789   5.213  0.1214 -0.2253 -0.0742
18228SOL    HW155817   5.426   1.736   5.177 -0.2567  2.0756 -3.1899
18228SOL    HW255818   5.458   1.874   5.231  1.3183 -0.0262  1.8912
18229SOL     OW55819   8.178   8.851   6.134  0.2213  0.2795 -0.0427
18229SOL    HW155820   8.092   8.832   6.096  0.1157  1.7555 -0.6106
18229SOL    HW255821   8.160   8.869   6.226 -0.1594  1.0221 -0.2535
18230SOL     OW55822   3.989   3.914   0.808  0.1627  0.4123  0.0296
18230SOL    HW155823   3.936   3.846   0.849  0.0902 -0.1594 -0.9906
18230SOL    HW255824   4.073   3.910   0.853  0.7589 -1.5231 -1.1392
18231SOL     OW55825   8.163   5.651   4.457  0.1500  0.3929  0.1572
18231SOL    HW155826   8.095   5.693   4.510 -0.0646 -0.3240  0.4683
18231SOL    HW255827   8.203   5.587   4.516  1.2947  0.9973  0.0618
18232SOL     OW55828   4.347   6.563   5.902 -0.4783 -0.7208  0.5612
18232SOL    HW155829   4.383   6.474   5.896  1.5749  0.1385 -0.9919
18232SOL    HW255830   4.417   6.619   5.869 -1.7597  1.4954  1.4165
18233SOL     OW55831   1.826   1.258   6.504  0.0366  0.3322 -0.4624
18233SOL    HW155832   1.886   1.295   6.439  0.2975 -0.8382 -0.9104
18233SOL    HW255833   1.872   1.181   6.537 -2.1579 -2.0210 -2.5670
18234SOL     OW55834   2.503   5.994   7.403  0.4648  0.2153 -0.2411
18234SOL    HW155835   2.577   6.054   7.411 -0.0005  0.7516  0.1513
18234SOL    HW255836   2.431   6.040   7.446  0.6035 -1.5147  2.0138
18235SOL     OW55837   0.055   5.308   6.111  0.4423 -0.1560 -0.2564
18235SOL    HW155838   0.066   5.318   6.206 -0.5967  1.3448 -0.2539
18235SOL    HW255839   0.016   5.221   6.100 -0.6291  0.1638  0.8185
18236SOL     OW55840   4.415   2.694   2.924 -0.3983  0.3555  0.2141
18236SOL    HW155841   4.377   2.732   3.003 -2.2273 -0.3782 -0.2718
18236SOL    HW255842   4.352   2.630   2.895  0.8170 -0.2683 -1.1857
18237SOL     OW55843   3.239   0.285   2.193 -0.0546  0.4455  0.2837
18237SOL    HW155844   3.212   0.194   2.199 -2.3723  1.0200 -0.5114
18237SOL    HW255845   3.197   0.318   2.114  1.8825  1.8829 -0.2389
18238SOL     OW55846   1.776   5.484   8.884 -0.0027 -0.2430 -0.0408
18238SOL    HW155847   1.761   5.572   8.918 -0.5472 -0.2267 -0.3043
18238SOL    HW255848   1.808   5.435   8.959 -0.9198 -0.1376  0.4409
18239SOL     OW55849   4.937   0.557   2.976  0.2477  0.2600  0.3191
18239SOL    HW155850   4.883   0.479   2.993  3.5864 -2.4158 -0.3565
18239SOL    HW255851   4.958   0.552   2.883  0.4821  2.1027  0.2283
18240SOL     OW55852   7.532   2.749   3.859  0.0481  0.4652  0.0426
18240SOL    HW155853   7.475   2.805   3.911  0.3777  0.6159  0.2422
18240SOL    HW255854   7.493   2.661   3.867 -0.6444  0.7045 -0.5224
18241SOL     OW55855   2.608   3.620   1.358  0.2679 -0.2987  0.0403
18241SOL    HW155856   2.699   3.649   1.359  0.0337  0.5945 -1.1492
18241SOL    HW255857   2.576   3.646   1.271 -1.4383  0.4251  0.8334
18242SOL     OW55858   9.024   7.332   7.588 -0.4275 -0.3488  0.0342
18242SOL    HW155859   9.021   7.427   7.573 -1.0246 -0.2501  0.7436
18242SOL    HW255860   8.982   7.295   7.510  0.6105 -0.0878 -0.6695
18243SOL     OW55861   5.559   6.063   0.538 -0.5744 -0.5756 -0.4207
18243SOL    HW155862   5.549   6.003   0.464 -0.1908 -2.0093  0.6420
18243SOL    HW255863   5.488   6.039   0.599 -0.0581 -0.3643  0.2834
18244SOL     OW55864   4.377   8.668   7.154  0.9294 -0.0478  0.3883
18244SOL    HW155865   4.288   8.672   7.119  0.0422 -1.5557  2.3121
18244SOL    HW255866   4.427   8.622   7.086  0.2293  0.6135 -0.6125
18245SOL     OW55867   5.570   2.670   7.307 -0.2334 -0.0411 -0.1517
18245SOL    HW155868   5.561   2.592   7.361  1.9894 -0.0258  0.3472
18245SOL    HW255869   5.485   2.713   7.312 -0.9430 -1.5031  1.0305
18246SOL     OW55870   2.137   0.287   1.585  0.7587 -0.6051 -0.4314
18246SOL    HW155871   2.061   0.303   1.640  0.5425  1.0637 -1.1301
18246SOL    HW255872   2.204   0.347   1.618  1.0291 -0.4683 -1.1925
18247SOL     OW55873   4.963   0.574   1.185 -0.5503  0.1721 -0.1080
18247SOL    HW155874   4.935   0.491   1.224 -1.4094  0.2346 -0.5600
18247SOL    HW255875   4.925   0.572   1.097  0.6148  0.4193 -0.6264
18248SOL     OW55876   1.031   1.568   8.310 -0.6173  0.0061 -0.1292
18248SOL    HW155877   1.089   1.493   8.325 -1.7972 -0.8897  0.2327
18248SOL    HW255878   1.067   1.638   8.364  0.4938 -0.3020 -0.4466
18249SOL     OW55879   3.704   5.536   4.584 -0.3625 -0.6386 -0.1084
18249SOL    HW155880   3.662   5.620   4.565  1.0295  0.4796  1.3774
18249SOL    HW255881   3.760   5.555   4.660  1.3325 -2.4731 -0.8147
18250SOL     OW55882   0.489   8.049   8.274 -0.5898  0.3252 -0.1410
18250SOL    HW155883   0.559   8.071   8.212 -0.3941  1.5653  0.5006
18250SOL    HW255884   0.433   7.987   8.226  0.7016 -0.3624 -0.8066
18251SOL     OW55885   6.666   5.402   2.688 -0.2974 -0.5216 -0.1073
18251SOL    HW155886   6.689   5.366   2.773 -2.2533 -0.6439  0.4340
18251SOL    HW255887   6.593   5.462   2.707  2.2753  3.3053 -1.0230
18252SOL     OW55888   7.654   1.050   8.769 -0.2909  0.3513 -0.2196
18252SOL    HW155889   7.680   1.088   8.685 -1.8847  0.9960 -0.4440
18252SOL    HW255890   7.718   1.084   8.832 -0.2844  1.4897 -0.8281
18253SOL     OW55891   1.846   2.755   6.772  0.0927 -0.0441  0.0237
18253SOL    HW155892   1.755   2.784   6.784 -0.5044 -1.4490 -0.9117
18253SOL    HW255893   1.898   2.835   6.784 -1.2705  0.8263  0.3621
18254SOL     OW55894   4.923   3.699   4.234 -0.2511  0.0004  0.1478
18254SOL    HW155895   4.860   3.645   4.281  0.2737 -0.1030  0.7474
18254SOL    HW255896   4.983   3.730   4.302  0.7126 -0.4192 -0.4938
18255SOL     OW55897   2.955   6.082   6.425 -0.2348  0.1733 -0.0933
18255SOL    HW155898   2.923   6.127   6.504  1.4205 -0.2345  0.8506
18255SOL    HW255899   2.999   6.150   6.374 -0.7363  0.3023 -0.3625
18256SOL     OW55900   0.617   5.104   2.268  0.3222  0.3468 -0.6116
18256SOL    HW155901   0.628   5.172   2.335 -0.5344  0.0277 -0.1335
18256SOL    HW255902   0.609   5.153   2.186  1.0431  0.7552 -0.4533
18257SOL     OW55903   2.016   2.930   3.230 -0.2225  0.1772 -0.6514
18257SOL    HW155904   2.088   2.993   3.221  0.4527 -0.5411 -0.4415
18257SOL    HW255905   2.006   2.893   3.143 -0.6504  0.5969 -0.7854
18258SOL     OW55906   7.228   8.051   3.393 -0.2822 -0.0914  0.0257
18258SOL    HW155907   7.254   7.991   3.462  2.2141  0.3394 -0.4318
18258SOL    HW255908   7.298   8.116   3.390 -0.4063  0.0490 -2.6926
18259SOL     OW55909   8.391   5.594   4.230 -0.1718  0.6394 -0.4047
18259SOL    HW155910   8.318   5.624   4.283  1.2658 -2.1332  3.6498
18259SOL    HW255911   8.381   5.499   4.228  3.2100  0.1396  0.3534
18260SOL     OW55912   7.038   8.072   1.243 -0.0810  0.3028  0.0387
18260SOL    HW155913   7.102   8.001   1.246 -0.7923 -0.3802 -0.4791
18260SOL    HW255914   6.964   8.040   1.294 -1.1251 -0.1045 -1.6356
18261SOL     OW55915   5.927   1.197   2.510  0.6624 -0.8069  0.4622
18261SOL    HW155916   5.845   1.149   2.513  0.1402  0.1207  1.6921
18261SOL    HW255917   5.983   1.146   2.452 -1.1715 -0.8140 -1.3886
18262SOL     OW55918   8.868   8.958   2.892 -0.6236  0.1627 -0.2037
18262SOL    HW155919   8.950   8.910   2.881 -1.0640 -0.8763  0.9158
18262SOL    HW255920   8.855   9.001   2.807 -1.4214 -3.5856 -2.2065
18263SOL     OW55921   6.744   4.253   2.141 -0.3679  0.0679 -0.0864
18263SOL    HW155922   6.799   4.210   2.207 -2.7392 -1.7772  0.8177
18263SOL    HW255923   6.656   4.249   2.176 -1.0132  4.8036 -0.5215
18264SOL     OW55924   1.020   0.668   5.313 -0.1679  0.1242  0.0566
18264SOL    HW155925   1.078   0.656   5.387  0.2418 -1.0120 -0.4353
18264SOL    HW255926   1.059   0.741   5.264  1.7424 -1.5187 -1.0532
18265SOL     OW55927   6.354   4.282   8.258 -0.4160  0.0097  0.3999
18265SOL    HW155928   6.266   4.301   8.224  0.2168  0.6728 -0.9546
18265SOL    HW255929   6.345   4.289   8.353 -2.2308 -1.7401  0.4376
18266SOL     OW55930   5.732   1.165   5.038  0.0006  0.4359 -0.2416
18266SOL    HW155931   5.812   1.114   5.025 -0.0662  0.4908 -0.8708
18266SOL    HW255932   5.713   1.203   4.952  0.3843  2.0208  0.3307
18267SOL     OW55933   4.425   7.925   7.307  0.0839  0.2704  0.3178
18267SOL    HW155934   4.395   7.980   7.234 -0.6591 -0.2736  0.1940
18267SOL    HW255935   4.345   7.908   7.357  0.7248  1.3235  1.7457
18268SOL     OW55936   7.432   1.942   8.772  0.7712  0.8040 -0.5394
18268SOL    HW155937   7.518   1.900   8.763  1.6729  2.2880  0.6393
18268SOL    HW255938   7.395   1.903   8.851  2.2027  3.0562  1.3630
18269SOL     OW55939   1.431   8.847   6.379  0.1437 -0.0256  0.1146
18269SOL    HW155940   1.421   8.772   6.321 -0.9446 -0.4585  0.8265
18269SOL    HW255941   1.500   8.820   6.440 -0.9756 -0.9173  1.0366
18270SOL     OW55942   0.780   7.535   0.490 -0.1607  0.4625 -0.4624
18270SOL    HW155943   0.861   7.527   0.542 -0.7577  1.5735  0.6783
18270SOL    HW255944   0.764   7.446   0.458  0.8009 -0.0446  0.3898
18271SOL     OW55945   2.885   8.820   4.229 -0.1991  0.2375 -0.7905
18271SOL    HW155946   2.897   8.747   4.169  2.4659 -0.3651  0.3269
18271SOL    HW255947   2.970   8.864   4.231 -0.7994  1.4455  0.9971
18272SOL     OW55948   1.555   3.872   7.840 -0.4708 -0.4818 -0.3182
18272SOL    HW155949   1.465   3.857   7.869 -0.5119 -0.4811 -0.4418
18272SOL    HW255950   1.555   3.844   7.748 -0.4468 -0.0973 -0.4337
18273SOL     OW55951   7.072   0.778   4.726  0.6069 -0.1584 -0.7306
18273SOL    HW155952   7.148   0.838   4.722  0.6871 -0.2764 -1.0486
18273SOL    HW255953   7.099   0.703   4.673  0.1058 -0.0170 -1.1837
18274SOL     OW55954   8.857   4.451   7.196 -0.0560 -0.4057 -0.2837
18274SOL    HW155955   8.829   4.420   7.110  0.3745 -0.3127 -0.4584
18274SOL    HW255956   8.777   4.484   7.237 -0.2874 -0.5849 -0.5918
18275SOL     OW55957   0.246   5.932   4.992 -0.2124  0.3285 -0.2503
18275SOL    HW155958   0.293   5.990   4.931  0.7626 -0.0087  0.1594
18275SOL    HW255959   0.298   5.935   5.072  0.2178 -1.5980 -0.4164
18276SOL     OW55960   4.438   0.719   6.718  0.3428 -0.7414 -0.5033
18276SOL    HW155961   4.372   0.650   6.707  1.0975 -1.2682 -2.1828
18276SOL    HW255962   4.511   0.690   6.663  1.1493  0.8355 -0.3138
18277SOL     OW55963   0.457   3.335   4.556  0.7116  0.5346 -0.0736
18277SOL    HW155964   0.522   3.320   4.625  1.2033 -1.2425 -0.8540
18277SOL    HW255965   0.471   3.263   4.495 -1.8260  0.2459 -0.4130
18278SOL     OW55966   2.024   8.239   2.972 -0.4259 -0.1423 -0.0525
18278SOL    HW155967   2.047   8.175   3.039 -1.5595 -0.5003  0.0063
18278SOL    HW255968   1.938   8.271   2.998 -0.1831  0.8875 -0.4776
18279SOL     OW55969   5.824   2.574   3.526  0.4076 -0.2673  0.4181
18279SOL    HW155970   5.882   2.522   3.582  1.4394 -1.2049 -1.4143
18279SOL    HW255971   5.745   2.520   3.518  0.4520 -0.3577  0.5774
18280SOL     OW55972   5.987   2.325   5.822 -0.0558 -0.5456 -0.0906
18280SOL    HW155973   5.908   2.337   5.876  0.5848  0.0798  0.7155
18280SOL    HW255974   6.049   2.390   5.855  0.4583 -0.3679 -1.3881
18281SOL     OW55975   8.930   1.699   3.149  0.0479  0.2597  0.2633
18281SOL    HW155976   8.992   1.768   3.125 -2.3752  2.2850 -0.6592
18281SOL    HW255977   8.860   1.706   3.083 -0.5118 -2.8782  0.3706
18282SOL     OW55978   7.715   0.690   7.415 -0.1985 -0.1102  0.0873
18282SOL    HW155979   7.708   0.664   7.323 -0.7695  0.3760 -0.0100
18282SOL    HW255980   7.806   0.672   7.437  0.1269  0.4024 -0.7699
18283SOL     OW55981   0.967   3.103   4.276  0.0865  0.1332  0.1423
18283SOL    HW155982   1.012   3.155   4.210 -1.1335  2.0594  0.7473
18283SOL    HW255983   0.912   3.043   4.225  1.7992 -0.8990 -0.5681
18284SOL     OW55984   7.941   5.554   8.933 -0.2344 -0.1238 -0.7135
18284SOL    HW155985   7.958   5.588   8.845  1.5218 -0.9383 -0.7367
18284SOL    HW255986   7.931   5.632   8.987  0.4739  0.4158 -1.3370
18285SOL     OW55987   0.064   7.778   1.487  0.7027  0.0492 -0.1616
18285SOL    HW155988   0.115   7.800   1.566  0.0297  0.3468  0.1979
18285SOL    HW255989   0.053   7.862   1.442  3.5751 -0.4812 -2.1493
18286SOL     OW55990   6.231   2.900   5.589  0.1597 -0.4598  0.1954
18286SOL    HW155991   6.256   2.812   5.617 -2.0030 -0.4447  2.5238
18286SOL    HW255992   6.146   2.889   5.546 -0.2231  0.4989  0.6687
18287SOL     OW55993   3.455   8.429   1.272 -0.4810  0.6081 -0.1102
18287SOL    HW155994   3.414   8.509   1.239 -1.0691  0.3191 -0.0911
18287SOL    HW255995   3.384   8.366   1.277 -0.3871  0.5879  1.5329
18288SOL     OW55996   2.630   1.596   2.033 -0.1725  0.5234 -0.3678
18288SOL    HW155997   2.597   1.517   1.990  0.4057 -1.0379  1.8831
18288SOL    HW255998   2.698   1.629   1.975 -0.1322 -0.8886 -1.1503
18289SOL     OW55999   3.878   1.499   4.950  0.1423 -0.7166 -0.3072
18289SOL    HW156000   3.811   1.556   4.911  0.2824 -0.3978 -0.0865
18289SOL    HW256001   3.839   1.468   5.031  0.6076  0.2172  0.2943
18290SOL     OW56002   2.962   3.368   6.313 -0.6650  0.1924  0.6352
18290SOL    HW156003   2.929   3.453   6.282 -1.7709  0.0057  1.2700
18290SOL    HW256004   2.944   3.308   6.241 -0.1323  0.4228  0.2967
18291SOL     OW56005   0.194   7.632   8.918  0.6797  0.0048 -0.4815
18291SOL    HW156006   0.157   7.720   8.911 -0.4957 -0.5013 -0.9984
18291SOL    HW256007   0.220   7.624   9.010 -1.2378  0.1385  0.1193
18292SOL     OW56008   5.442   3.296   5.369  0.0367 -0.1427  1.1845
18292SOL    HW156009   5.377   3.299   5.440  1.4662 -1.3425  2.6236
18292SOL    HW256010   5.492   3.377   5.379 -1.0169  0.6523  0.2444
18293SOL     OW56011   2.696   3.105   7.407 -0.5810 -0.5851  0.2585
18293SOL    HW156012   2.622   3.127   7.350 -0.8511 -1.4660  0.2583
18293SOL    HW256013   2.708   3.011   7.395 -0.1434 -0.6364  1.0760
18294SOL     OW56014   2.457   6.989   8.648 -0.2617 -0.0483 -0.0994
18294SOL    HW156015   2.436   7.083   8.645 -1.3902 -0.2972 -0.3613
18294SOL    HW256016   2.545   6.983   8.613 -0.1982  0.9131 -0.1283
18295SOL     OW56017   3.173   2.442   0.790  0.2798  0.0812 -0.3228
18295SOL    HW156018   3.147   2.459   0.699 -0.1279  1.3609  0.0063
18295SOL    HW256019   3.093   2.451   0.841  0.6910  0.4425  0.2809
18296SOL     OW56020   9.051   5.128   6.392  0.0370  0.1170 -0.0176
18296SOL    HW156021   9.077   5.070   6.320  0.6604 -2.1517  1.8872
18296SOL    HW256022   9.130   5.137   6.445 -0.5416  1.2829  0.6808
18297SOL     OW56023   6.177   2.560   3.705  0.2560  0.2758 -0.4821
18297SOL    HW156024   6.248   2.569   3.641 -1.4817  0.9537 -2.4325
18297SOL    HW256025   6.205   2.612   3.780  1.4266  1.2617 -1.5717
18298SOL     OW56026   1.316   8.396   1.668 -0.1016 -0.0137  0.1065
18298SOL    HW156027   1.307   8.467   1.604  2.7112  1.0350  0.7357
18298SOL    HW256028   1.328   8.440   1.752  0.3869 -1.2602  0.7201
18299SOL     OW56029   2.764   2.178   1.143  0.0902  0.3098  0.1491
18299SOL    HW156030   2.700   2.131   1.090  1.2809 -0.0855 -0.9988
18299SOL    HW256031   2.820   2.110   1.180  0.1725  0.6757  0.7185
18300SOL     OW56032   5.262   7.334   9.004  0.2253  0.2043 -0.1684
18300SOL    HW156033   5.166   7.326   9.000  0.2693 -0.1031 -0.7921
18300SOL    HW256034   5.292   7.293   8.923  0.7432  2.5482 -1.2649
18301SOL     OW56035   8.368   3.145   1.970  0.8723 -0.3296  0.2629
18301SOL    HW156036   8.326   3.110   2.048  1.2772 -1.9368 -0.1985
18301SOL    HW256037   8.325   3.230   1.955 -0.8462 -1.0461  0.8996
18302SOL     OW56038   6.478   7.726   4.718  0.3339 -0.2103 -0.0986
18302SOL    HW156039   6.509   7.641   4.687 -0.0308 -0.1752 -0.5768
18302SOL    HW256040   6.472   7.780   4.639  0.5900  0.2708  0.2052
18303SOL     OW56041   9.007   8.046   5.405  0.4774 -0.0239 -0.0149
18303SOL    HW156042   9.041   8.035   5.316 -0.6773 -2.3110 -0.2300
18303SOL    HW256043   8.923   8.092   5.392  0.0647 -0.8062 -0.1806
18304SOL     OW56044   1.862   3.932   2.504 -0.3055  0.3207  0.2971
18304SOL    HW156045   1.798   4.003   2.514  0.5034  0.9275  1.4535
18304SOL    HW256046   1.809   3.856   2.482 -1.2553  1.1606 -0.4175
18305SOL     OW56047   7.210   8.784   4.745 -0.2060 -0.3430 -0.5852
18305SOL    HW156048   7.274   8.766   4.677 -0.1210  0.7079 -0.7956
18305SOL    HW256049   7.227   8.875   4.771  2.4291 -1.7182  3.6467
18306SOL     OW56050   1.082   1.350   1.559  0.2547 -0.4322  0.5102
18306SOL    HW156051   1.044   1.264   1.576 -1.9351  0.1603 -0.9690
18306SOL    HW256052   1.025   1.411   1.605 -0.1685  0.4377 -1.1160
18307SOL     OW56053   4.636   1.934   4.753  0.5018 -0.6146 -0.2315
18307SOL    HW156054   4.712   1.954   4.697 -0.7743 -0.1940 -1.8908
18307SOL    HW256055   4.566   1.990   4.719 -0.6060 -1.0978  1.1658
18308SOL     OW56056   5.643   0.458   4.324 -0.3931 -0.1610  0.3968
18308SOL    HW156057   5.602   0.451   4.238  0.3602  1.6098 -0.1421
18308SOL    HW256058   5.722   0.508   4.309  1.6365 -2.7573  1.5552
18309SOL     OW56059   6.790   4.151   7.357  0.0747 -0.6303 -0.8308
18309SOL    HW156060   6.730   4.197   7.298 -0.9036 -0.5757  0.1864
18309SOL    HW256061   6.759   4.061   7.356 -0.3027 -0.5166  0.0314
18310SOL     OW56062   3.358   4.894   5.553  0.6683 -0.3892  0.0256
18310SOL    HW156063   3.283   4.874   5.609  0.7397 -0.3873  0.1218
18310SOL    HW256064   3.372   4.814   5.502  0.6767 -0.4323  0.0955
18311SOL     OW56065   0.985   8.011   5.287  0.7405 -0.2351 -0.4072
18311SOL    HW156066   0.992   7.954   5.363  0.8665 -1.8099 -1.5429
18311SOL    HW256067   0.897   8.048   5.293  0.4350 -1.0079  0.0616
18312SOL     OW56068   7.839   6.615   8.637  0.4517 -0.4731  0.4528
18312SOL    HW156069   7.749   6.611   8.669  0.2227  2.1649  0.4224
18312SOL    HW256070   7.874   6.694   8.678  1.5442  0.6384 -2.4023
18313SOL     OW56071   3.668   0.752   5.314  0.5632 -0.0245 -0.1178
18313SOL    HW156072   3.611   0.688   5.270  0.0613  0.2486  0.1183
18313SOL    HW256073   3.628   0.837   5.294  0.3669  0.1114  0.7946
18314SOL     OW56074   5.463   7.665   6.669  0.2715  0.1944  0.2720
18314SOL    HW156075   5.389   7.607   6.656 -0.0207  0.7988 -0.8712
18314SOL    HW256076   5.440   7.745   6.622  3.0155 -0.7222 -3.0062
18315SOL     OW56077   2.317   8.661   5.074 -1.0833  0.2343 -0.1956
18315SOL    HW156078   2.307   8.570   5.101 -0.5546  0.3762  0.5037
18315SOL    HW256079   2.228   8.696   5.075 -1.1239  0.1367  1.0505
18316SOL     OW56080   5.247   8.613   3.991  0.4554  0.1644 -0.0597
18316SOL    HW156081   5.176   8.677   3.998 -1.7116 -2.1956  1.8224
18316SOL    HW256082   5.238   8.577   3.902  0.9767  1.6131 -0.7266
18317SOL     OW56083   1.037   5.900   6.613 -0.1033  0.1152 -0.3506
18317SOL    HW156084   1.018   5.937   6.527  0.2568  0.1817 -0.4006
18317SOL    HW256085   1.132   5.889   6.615 -0.1711 -0.5189 -0.2191
18318SOL     OW56086   7.941   3.768   2.500 -0.6107 -0.8174  0.4009
18318SOL    HW156087   7.862   3.821   2.509  0.1102  0.7448 -1.6294
18318SOL    HW256088   7.990   3.783   2.581 -0.5848  1.3995  0.0208
18319SOL     OW56089   3.526   3.624   7.454 -0.1957 -0.1771 -0.0449
18319SOL    HW156090   3.524   3.719   7.462 -0.9769 -0.2074  0.3064
18319SOL    HW256091   3.441   3.602   7.414  0.3618 -0.6618 -0.9885
18320SOL     OW56092   8.103   8.468   4.117  0.0211  0.0113 -0.0183
18320SOL    HW156093   8.053   8.392   4.087 -0.5159  0.6113 -0.6633
18320SOL    HW256094   8.170   8.481   4.050  0.6783 -0.4221  0.5401
18321SOL     OW56095   7.695   5.235   6.764 -0.0124 -0.0032  0.0134
18321SOL    HW156096   7.649   5.309   6.805 -0.2017 -0.8436  1.3899
18321SOL    HW256097   7.642   5.214   6.687  0.3017  1.5705 -0.6790
18322SOL     OW56098   6.272   7.376   2.643 -0.8132  0.1616  0.2491
18322SOL    HW156099   6.259   7.282   2.630 -1.7788  0.5623 -2.1063
18322SOL    HW256100   6.272   7.413   2.555 -2.9651  2.6860  1.1858
18323SOL     OW56101   6.640   5.339   5.633 -0.1230  0.2045  0.3362
18323SOL    HW156102   6.719   5.295   5.664  0.4962  1.2006  0.1921
18323SOL    HW256103   6.658   5.357   5.540 -0.4575  0.5686  0.3419
18324SOL     OW56104   8.719   2.838   6.300 -0.4540  0.1796 -0.0475
18324SOL    HW156105   8.755   2.860   6.213 -1.6871 -1.5612 -1.0540
18324SOL    HW256106   8.644   2.896   6.309 -0.4070  0.2686 -0.2050
18325SOL     OW56107   8.487   2.932   5.733 -0.3060  0.4528 -0.3257
18325SOL    HW156108   8.581   2.942   5.747 -0.3236 -1.1477  1.2599
18325SOL    HW256109   8.467   2.845   5.767 -2.5669  1.2135  0.4636
18326SOL     OW56110   5.974   0.127   7.204 -0.1744 -0.1418  0.6232
18326SOL    HW156111   6.022   0.207   7.226 -0.8539  0.1931  0.9266
18326SOL    HW256112   5.890   0.136   7.249  0.3350 -1.7644  1.9975
18327SOL     OW56113   6.778   3.316   8.259 -0.2912  0.5058 -0.0505
18327SOL    HW156114   6.763   3.240   8.315  0.4623  0.2520 -0.1801
18327SOL    HW256115   6.750   3.286   8.172  0.3831  0.2296 -0.1797
18328SOL     OW56116   6.800   4.341   6.570 -0.1298 -0.2792  0.0435
18328SOL    HW156117   6.766   4.326   6.658  1.9400 -3.3464  0.5013
18328SOL    HW256118   6.731   4.389   6.524 -1.6173  0.6768  3.0534
18329SOL     OW56119   6.791   7.894   4.530 -0.0691  0.3793  1.0478
18329SOL    HW156120   6.716   7.947   4.501  0.9249  2.6658  2.4540
18329SOL    HW256121   6.770   7.805   4.499 -1.4879  1.6337 -2.0318
18330SOL     OW56122   0.737   4.406   8.043  0.2665  0.0089  0.6398
18330SOL    HW156123   0.790   4.328   8.061  0.3332 -0.1092 -0.0428
18330SOL    HW256124   0.791   4.458   7.983 -0.4478 -0.1996 -0.2155
18331SOL     OW56125   8.759   7.114   2.292  0.1430  0.0362  0.0859
18331SOL    HW156126   8.782   7.186   2.233  0.4449  0.3576  0.5865
18331SOL    HW256127   8.808   7.039   2.259  0.4564  0.2610  0.0430
18332SOL     OW56128   2.233   4.062   7.704  0.3084  0.4984 -0.1762
18332SOL    HW156129   2.243   4.148   7.662 -1.7699  0.7622 -0.2632
18332SOL    HW256130   2.231   4.081   7.798  0.8160  0.4189 -0.1480
18333SOL     OW56131   1.368   7.560   8.426  0.1419  0.1240  0.1081
18333SOL    HW156132   1.338   7.474   8.397  0.8779  0.3271 -1.3483
18333SOL    HW256133   1.305   7.622   8.389  0.5781  0.3248 -0.3084
18334SOL     OW56134   5.580   3.524   5.453 -0.3859  0.2680  0.9532
18334SOL    HW156135   5.567   3.539   5.546 -0.1494 -0.1791  1.0604
18334SOL    HW256136   5.592   3.611   5.416  0.2462  0.3983  1.4524
18335SOL     OW56137   5.620   8.234   2.511 -0.1130  0.0440  0.5137
18335SOL    HW156138   5.598   8.292   2.583 -0.1996 -0.9637  1.3242
18335SOL    HW256139   5.643   8.151   2.553  0.3373 -0.4127 -0.5878
18336SOL     OW56140   3.641   0.807   6.371 -0.1814 -0.0163  0.3124
18336SOL    HW156141   3.731   0.838   6.381 -0.4464  0.8412  0.0817
18336SOL    HW256142   3.618   0.771   6.457  0.7413 -1.2355  0.0752
18337SOL     OW56143   0.050   4.892   0.258 -0.1688 -0.4290  0.1440
18337SOL    HW156144   0.076   4.849   0.339  0.1098  0.8126  0.7472
18337SOL    HW256145  -0.045   4.902   0.266 -0.1526 -0.3886  0.2822
18338SOL     OW56146   4.895   8.459   2.615 -0.6960 -0.4780 -0.0796
18338SOL    HW156147   4.802   8.456   2.590 -0.5980  0.4554 -0.6050
18338SOL    HW256148   4.926   8.544   2.582  0.0365 -0.2264  1.1853
18339SOL     OW56149   0.186   5.617   4.597  0.0250 -0.0030  0.2517
18339SOL    HW156150   0.146   5.561   4.664  0.0811 -1.3233 -0.7621
18339SOL    HW256151   0.268   5.573   4.575  0.2597  0.6943 -0.3107
18340SOL     OW56152   5.295   0.700   1.545  0.2698  0.2641  0.2756
18340SOL    HW156153   5.220   0.648   1.516 -0.3482  1.3442 -0.1371
18340SOL    HW256154   5.362   0.684   1.479 -0.0911  0.3858 -0.1266
18341SOL     OW56155   7.423   8.210   5.948  0.0366 -0.2626 -0.0618
18341SOL    HW156156   7.355   8.276   5.964 -0.7397 -0.8646 -0.8004
18341SOL    HW256157   7.441   8.173   6.035 -0.4935 -0.0086  0.1641
18342SOL     OW56158   7.146   4.166   8.909 -0.2869 -0.7918 -0.1932
18342SOL    HW156159   7.171   4.158   9.001  0.3150  3.0006  0.1367
18342SOL    HW256160   7.229   4.157   8.861 -0.5991 -2.7635 -0.4811
18343SOL     OW56161   6.565   7.972   8.002  0.1556  0.6395  0.1100
18343SOL    HW156162   6.559   8.065   8.021 -0.3710  0.6544 -0.1219
18343SOL    HW256163   6.552   7.929   8.086  1.0562  0.7858  0.3357
18344SOL     OW56164   4.592   6.268   5.529  0.6889 -0.8361  0.5026
18344SOL    HW156165   4.568   6.335   5.464  0.0968 -0.8483  0.7037
18344SOL    HW256166   4.616   6.192   5.476  0.1731 -0.8578  0.2953
18345SOL     OW56167   8.541   0.117   4.711 -0.3229 -0.0792 -0.4886
18345SOL    HW156168   8.486   0.039   4.706 -1.1491  0.3386  1.2617
18345SOL    HW256169   8.540   0.153   4.623 -1.0891 -1.2722 -0.9901
18346SOL     OW56170   0.757   0.506   4.750  0.1639  0.0497  0.6555
18346SOL    HW156171   0.781   0.413   4.748 -0.3722 -0.1293  1.5288
18346SOL    HW256172   0.684   0.510   4.812 -0.0357  1.0118  0.3792
18347SOL     OW56173   5.237   8.323   0.666  0.0310 -0.2272  0.0435
18347SOL    HW156174   5.271   8.241   0.630 -1.1783 -0.7994  0.1528
18347SOL    HW256175   5.247   8.313   0.761  2.2829  0.8641 -0.0029
18348SOL     OW56176   2.751   5.332   0.503  0.0495 -0.1708 -0.5854
18348SOL    HW156177   2.789   5.254   0.464  2.0009  0.2808  0.3029
18348SOL    HW256178   2.823   5.395   0.508 -1.3688  1.5825 -0.9449
18349SOL     OW56179   2.757   4.487   1.365  0.0528  0.2629  0.2868
18349SOL    HW156180   2.732   4.524   1.281 -0.0562  0.0566  0.2276
18349SOL    HW256181   2.791   4.561   1.415 -3.1101  1.1703  1.3719
18350SOL     OW56182   2.575   3.611   2.198 -0.3488 -0.0263 -0.0188
18350SOL    HW156183   2.610   3.522   2.199 -0.9926 -0.2947 -0.7875
18350SOL    HW256184   2.589   3.642   2.108 -1.0062  0.2947 -0.0145
18351SOL     OW56185   5.403   2.945   3.540 -0.4977  0.6813 -0.4204
18351SOL    HW156186   5.323   2.985   3.574 -0.7221 -0.7412  0.8323
18351SOL    HW256187   5.402   2.856   3.575  2.2135  0.9782  0.6848
18352SOL     OW56188   1.429   7.109   4.270  0.0730  0.1316 -0.2865
18352SOL    HW156189   1.359   7.044   4.266 -0.8676  1.1054  0.0581
18352SOL    HW256190   1.492   7.081   4.203 -0.6561 -0.7342 -0.6157
18353SOL     OW56191   7.488   8.653   5.619 -0.3690  0.0691 -0.4727
18353SOL    HW156192   7.417   8.677   5.559 -0.9889 -0.4073  0.0521
18353SOL    HW256193   7.448   8.656   5.706  0.5685  0.9453 -0.0503
18354SOL     OW56194   5.024   1.445   3.074 -0.6347 -0.8034 -0.1336
18354SOL    HW156195   5.090   1.470   3.138 -0.2089 -0.9813 -0.4940
18354SOL    HW256196   4.940   1.450   3.121 -0.3272 -0.9398  0.4292
18355SOL     OW56197   7.967   5.600   4.667 -0.2264 -0.3546 -0.4379
18355SOL    HW156198   7.933   5.669   4.725  2.6352  1.8072 -1.1332
18355SOL    HW256199   7.999   5.532   4.727 -0.4662  0.2482  0.3905
18356SOL     OW56200   2.668   3.526   8.951  0.2307 -0.9261  0.2010
18356SOL    HW156201   2.724   3.452   8.974  0.3994 -0.9486 -0.2682
18356SOL    HW256202   2.725   3.602   8.958  0.5010 -1.0161 -0.9023
18357SOL     OW56203   5.077   5.779   3.172 -0.6916  0.5039 -0.2091
18357SOL    HW156204   5.029   5.857   3.201 -0.7312  0.3372  0.1811
18357SOL    HW256205   5.169   5.804   3.180 -0.5558 -0.5564  3.1499
18358SOL     OW56206   6.559   4.683   8.468  0.1924  0.6159 -0.1461
18358SOL    HW156207   6.636   4.635   8.436 -0.9861 -1.6900  0.2465
18358SOL    HW256208   6.559   4.764   8.418  2.4872  0.3802 -0.6371
18359SOL     OW56209   1.306   7.812   3.714  0.8363 -0.0705  0.4625
18359SOL    HW156210   1.315   7.890   3.659  1.1808  0.4142  1.1856
18359SOL    HW256211   1.287   7.741   3.653  0.7206  0.5465 -0.2267
18360SOL     OW56212   1.484   8.330   3.009 -0.8249 -0.3373  0.1162
18360SOL    HW156213   1.421   8.402   3.023 -0.3780  0.5710 -2.1391
18360SOL    HW256214   1.484   8.316   2.914  1.3655 -1.2477  0.1941
18361SOL     OW56215   2.090   3.366   5.518  0.0304  0.3610 -0.0186
18361SOL    HW156216   2.084   3.271   5.526 -0.1382  0.3183 -0.6082
18361SOL    HW256217   2.156   3.391   5.582  0.8835 -0.2725 -0.6350
18362SOL     OW56218   5.472   7.290   3.375  0.4960 -0.0774 -0.2452
18362SOL    HW156219   5.395   7.346   3.379  0.2438 -0.4099 -0.3380
18362SOL    HW256220   5.537   7.333   3.431  1.0031  1.3431 -1.8353
18363SOL     OW56221   6.318   0.463   2.929 -0.0695  0.1044  0.3184
18363SOL    HW156222   6.322   0.367   2.922 -0.5639  0.0466  0.7011
18363SOL    HW256223   6.372   0.483   3.005  0.7090  0.2079 -0.2598
18364SOL     OW56224   7.207   4.602   0.439  0.2067  0.1187 -0.0056
18364SOL    HW156225   7.186   4.537   0.372 -1.0495  2.4393 -2.0257
18364SOL    HW256226   7.169   4.683   0.407 -0.7163  1.3595  3.7066
18365SOL     OW56227   4.630   6.744   2.452 -0.3235 -0.0849 -0.3481
18365SOL    HW156228   4.615   6.767   2.544 -1.6844  1.3336 -0.8884
18365SOL    HW256229   4.722   6.768   2.436 -0.5078  1.0775  0.2487
18366SOL     OW56230   7.432   6.686   7.303  0.1769 -0.2027 -0.1643
18366SOL    HW156231   7.362   6.627   7.330  0.0495 -0.4275 -0.9754
18366SOL    HW256232   7.387   6.767   7.278  0.3940  0.4990  1.5575
18367SOL     OW56233   3.657   8.857   4.574 -0.4121 -0.0968  0.0554
18367SOL    HW156234   3.693   8.873   4.661 -1.9972  0.3288  0.6744
18367SOL    HW256235   3.703   8.919   4.516 -0.2351  0.4934  0.8168
18368SOL     OW56236   1.431   2.261   2.456  0.1521 -0.5875 -0.4064
18368SOL    HW156237   1.356   2.202   2.452 -0.1069 -0.3312  0.5805
18368SOL    HW256238   1.458   2.261   2.547  1.2813 -0.5749 -0.7200
18369SOL     OW56239   8.120   5.511   6.738 -0.4934 -0.4373  0.3917
18369SOL    HW156240   8.064   5.490   6.813  1.1480 -0.2397  1.7404
18369SOL    HW256241   8.204   5.471   6.760  0.0407 -0.3281 -1.3491
18370SOL     OW56242   7.256   1.499   1.770  0.2241 -0.0761  0.5676
18370SOL    HW156243   7.259   1.411   1.733  1.2472  0.0701  0.2507
18370SOL    HW256244   7.337   1.506   1.820  0.3719  0.8314  0.2195
18371SOL     OW56245   5.148   2.907   2.888 -0.2625  0.3716 -0.0921
18371SOL    HW156246   5.223   2.918   2.830  1.1717 -0.1605  1.5653
18371SOL    HW256247   5.081   2.866   2.833  0.5653  1.0576 -1.6751
18372SOL     OW56248   6.160   3.136   2.818  0.1481 -0.3970 -0.7741
18372SOL    HW156249   6.068   3.127   2.843  0.1547 -0.8481 -0.9023
18372SOL    HW256250   6.188   3.218   2.857  0.1622 -1.0711  0.7057
18373SOL     OW56251   6.020   0.764   3.196  0.0897 -0.6480 -0.0527
18373SOL    HW156252   6.033   0.677   3.234  1.0600 -0.2204  0.6409
18373SOL    HW256253   5.926   0.780   3.203 -0.1373 -1.7509 -0.4461
18374SOL     OW56254   2.457   8.686   6.051 -0.1966 -0.2195  0.0389
18374SOL    HW156255   2.465   8.604   6.098 -1.9139  0.1628  1.0856
18374SOL    HW256256   2.524   8.743   6.089  0.4666 -0.8685 -0.1444
18375SOL     OW56257   0.049   2.115   6.439 -0.3235  0.2715  0.4148
18375SOL    HW156258   0.137   2.101   6.405 -0.0614 -1.7206  1.7654
18375SOL    HW256259   0.039   2.050   6.509 -2.2464  1.5761  1.4622
18376SOL     OW56260   0.228   1.588   4.042  0.8745 -0.0820 -0.1870
18376SOL    HW156261   0.284   1.580   4.119  1.1832  0.4341 -0.3520
18376SOL    HW256262   0.141   1.605   4.077  1.2108  1.2907  0.0475
18377SOL     OW56263   6.332   8.840   0.215 -0.2740  0.0414  0.1797
18377SOL    HW156264   6.351   8.928   0.184 -3.0211  1.1580  1.4165
18377SOL    HW256265   6.268   8.805   0.153 -1.2501 -0.0095  1.1824
18378SOL     OW56266   7.234   4.509   2.365 -0.0773 -0.1195 -0.0072
18378SOL    HW156267   7.202   4.584   2.315 -0.8381 -0.0394  0.5976
18378SOL    HW256268   7.291   4.463   2.303  0.7283  1.1665 -0.2635
18379SOL     OW56269   5.643   0.836   5.791  0.1836 -0.2701 -0.0470
18379SOL    HW156270   5.637   0.802   5.880  0.1124  0.0927  0.0893
18379SOL    HW256271   5.715   0.787   5.751  1.0180  0.4063  0.5862
18380SOL     OW56272   8.204   8.764   0.780 -0.1638  0.1813  0.0303
18380SOL    HW156273   8.161   8.697   0.834  0.4165  0.6741  1.1360
18380SOL    HW256274   8.253   8.714   0.714 -2.7662 -0.4019 -1.6140
18381SOL     OW56275   2.039   7.535   0.412 -0.2015  0.8772 -0.0148
18381SOL    HW156276   2.041   7.523   0.317  0.3806  0.7333  0.0132
18381SOL    HW256277   2.131   7.535   0.439 -0.3820 -0.9784  0.7968
18382SOL     OW56278   2.304   5.630   7.979 -0.3004  0.4365  0.4663
18382SOL    HW156279   2.335   5.683   7.905  0.2505  1.0774  1.1495
18382SOL    HW256280   2.374   5.635   8.044 -1.4759  1.2534  1.7212
18383SOL     OW56281   0.227   7.631   3.118 -0.0281 -0.0101  0.0938
18383SOL    HW156282   0.184   7.553   3.083  1.5845 -0.7978 -0.2810
18383SOL    HW256283   0.298   7.596   3.172 -0.1537  1.2124  1.0881
18384SOL     OW56284   3.034   5.766   3.207 -0.4837  0.1484  0.3854
18384SOL    HW156285   2.970   5.835   3.189 -1.6589 -1.3844 -1.8461
18384SOL    HW256286   3.001   5.722   3.285  0.0092  1.7299  1.5327
18385SOL     OW56287   8.113   4.119   3.491  0.0748  0.1665 -0.2063
18385SOL    HW156288   8.110   4.024   3.484  1.0185  0.1135  0.0290
18385SOL    HW256289   8.148   4.148   3.406  3.0743  0.0624  0.8772
18386SOL     OW56290   3.102   1.022   7.409 -0.6344  0.4259 -0.0652
18386SOL    HW156291   3.183   1.062   7.377 -1.1719 -0.2958 -2.5219
18386SOL    HW256292   3.121   0.928   7.410 -1.0216  0.3506  0.6611
18387SOL     OW56293   3.911   1.084   5.230  0.0318 -0.4908  0.2897
18387SOL    HW156294   3.897   1.009   5.289  0.8663  0.5547  1.8884
18387SOL    HW256295   3.863   1.156   5.272 -2.5209 -0.5351 -2.2934
18388SOL     OW56296   8.722   1.569   2.678  0.1320 -0.8796 -0.1444
18388SOL    HW156297   8.724   1.480   2.711 -0.2044 -0.9526 -0.3202
18388SOL    HW256298   8.672   1.619   2.743 -2.2232 -1.4108 -1.4562
18389SOL     OW56299   5.992   2.511   1.106  0.5337 -0.4144  0.2116
18389SOL    HW156300   6.027   2.427   1.136 -1.0572 -2.0817 -2.2666
18389SOL    HW256301   5.898   2.504   1.119  0.0771 -0.1406 -2.4095
18390SOL     OW56302   5.545   6.804   8.966  0.1881  0.0853  0.0574
18390SOL    HW156303   5.452   6.812   8.988 -0.0547 -2.0470 -0.0327
18390SOL    HW256304   5.570   6.718   8.999  2.6156  1.3168  1.6486
18391SOL     OW56305   4.850   4.705   5.929 -0.1162  0.0262  0.0400
18391SOL    HW156306   4.839   4.741   6.018  0.5292 -2.0239  1.0064
18391SOL    HW256307   4.819   4.615   5.936 -1.0350  0.1178 -2.1200
18392SOL     OW56308   6.189   4.213   7.196  0.4289 -0.2216  0.1264
18392SOL    HW156309   6.169   4.206   7.289  0.9332 -1.6731  0.1536
18392SOL    HW256310   6.204   4.306   7.181  5.3297 -0.2939  2.6076
18393SOL     OW56311   6.937   8.722   3.284 -0.1787  0.1526 -0.3995
18393SOL    HW156312   6.892   8.639   3.274 -1.1076  0.3083  1.8588
18393SOL    HW256313   6.915   8.772   3.205 -1.9248 -0.7053 -0.4958
18394SOL     OW56314   6.683   5.100   7.287  0.3432  0.9981 -0.4658
18394SOL    HW156315   6.732   5.118   7.207  2.5423  0.7469  0.7241
18394SOL    HW256316   6.721   5.018   7.319  0.8938  2.0628  1.7954
18395SOL     OW56317   4.817   5.713   8.855 -0.1188  0.1997 -0.2738
18395SOL    HW156318   4.903   5.755   8.862  0.2514 -0.6145  0.1959
18395SOL    HW256319   4.834   5.630   8.811 -0.3376 -0.8385  1.5119
18396SOL     OW56320   3.289   3.245   5.188  0.6483 -0.2479 -0.2192
18396SOL    HW156321   3.325   3.168   5.144  0.5756  0.7186 -2.0772
18396SOL    HW256322   3.364   3.287   5.229  0.8641 -0.7114 -0.1375
18397SOL     OW56323   3.855   5.156   7.090 -0.7595  0.0803  0.6912
18397SOL    HW156324   3.837   5.173   6.998  0.7948  0.1672  0.3860
18397SOL    HW256325   3.843   5.062   7.100 -1.3207  0.1269  0.4998
18398SOL     OW56326   7.866   7.538   1.990  0.0798  0.4632 -0.4165
18398SOL    HW156327   7.953   7.499   1.998 -0.4101 -0.4560  0.6905
18398SOL    HW256328   7.825   7.521   2.075 -0.2825  3.1216  0.0153
18399SOL     OW56329   6.773   4.585   8.322 -0.1010 -0.4390 -0.4174
18399SOL    HW156330   6.805   4.654   8.264 -1.7695  1.1526  0.4564
18399SOL    HW256331   6.732   4.522   8.262  2.2921 -1.2757 -1.3114
18400SOL     OW56332   0.373   7.142   4.591  0.1489  0.3332 -0.1592
18400SOL    HW156333   0.425   7.157   4.670 -0.0692  1.5521 -0.2249
18400SOL    HW256334   0.431   7.165   4.519  0.8209 -2.0900 -0.4890
18401SOL     OW56335   0.761   1.928   3.906 -0.3612 -0.1464  0.2493
18401SOL    HW156336   0.676   1.884   3.899 -1.3577  1.4619  1.6747
18401SOL    HW256337   0.740   2.020   3.923  1.6314 -0.0128  2.5866
18402SOL     OW56338   2.618   8.895   2.469  0.5297 -0.4669 -0.0179
18402SOL    HW156339   2.706   8.901   2.431  0.3438  0.4567 -0.3336
18402SOL    HW256340   2.599   8.983   2.500 -1.0030 -0.1632 -1.5972
18403SOL     OW56341   6.188   8.470   0.758 -0.0866  0.4138 -0.1197
18403SOL    HW156342   6.116   8.521   0.723  0.4609 -0.0066 -1.9718
18403SOL    HW256343   6.147   8.389   0.788 -0.4325  0.2350 -1.0323
18404SOL     OW56344   6.267   2.927   1.720  0.0482 -0.0935 -0.1712
18404SOL    HW156345   6.299   2.841   1.746  0.3352 -0.4289 -1.5727
18404SOL    HW256346   6.174   2.915   1.703 -0.3483  0.3309  1.4854
18405SOL     OW56347   2.840   6.971   4.657  0.3376 -0.4539  0.0888
18405SOL    HW156348   2.793   6.894   4.691 -0.9305  0.5852  0.7627
18405SOL    HW256349   2.843   6.956   4.562 -2.3007 -0.1110 -0.1246
18406SOL     OW56350   8.480   0.388   5.915  0.0430  0.2501  0.1595
18406SOL    HW156351   8.541   0.333   5.965 -1.2778 -2.0376 -0.5783
18406SOL    HW256352   8.419   0.325   5.875 -1.4023  2.2774 -0.9915
18407SOL     OW56353   7.607   1.672   3.697 -0.5263  0.0669  0.1578
18407SOL    HW156354   7.666   1.667   3.622  0.0062  0.5371  0.5340
18407SOL    HW256355   7.629   1.595   3.750 -0.8751 -0.2438 -0.1447
18408SOL     OW56356   8.835   0.706   7.603  0.1037 -0.5332 -0.5650
18408SOL    HW156357   8.873   0.628   7.642 -2.3571  0.0573  3.5790
18408SOL    HW256358   8.890   0.778   7.633 -0.9658 -0.2200  0.7815
18409SOL     OW56359   0.042   7.515   2.244  1.0757  0.6364  0.1124
18409SOL    HW156360   0.061   7.475   2.159  1.1930  1.6848 -0.3687
18409SOL    HW256361   0.124   7.508   2.293  0.8317 -0.5300  0.3922
18410SOL     OW56362   4.306   3.606   5.771  0.2549 -0.2839  0.5636
18410SOL    HW156363   4.401   3.594   5.768  0.4721  1.0936  0.8707
18410SOL    HW256364   4.270   3.527   5.732  1.5888  0.1058 -1.6017
18411SOL     OW56365   6.607   2.370   0.445  0.1756 -0.1230  0.4866
18411SOL    HW156366   6.532   2.317   0.469  1.0709 -1.9450 -0.4691
18411SOL    HW256367   6.616   2.357   0.350  0.6635  1.4594  0.2849
18412SOL     OW56368   2.055   8.876   4.488 -0.4211  0.4190  0.2703
18412SOL    HW156369   2.123   8.809   4.480  0.7671  1.1277  3.1590
18412SOL    HW256370   2.096   8.956   4.455 -0.2320  0.6054  0.9383
18413SOL     OW56371   2.393   7.936   2.187  0.2113 -0.4069  0.3383
18413SOL    HW156372   2.342   7.918   2.266 -0.1543 -1.4007 -0.1028
18413SOL    HW256373   2.383   7.857   2.134  1.6987 -0.3667 -0.0493
18414SOL     OW56374   0.120   0.379   2.261 -0.6496  0.3468 -0.8017
18414SOL    HW156375   0.127   0.318   2.334 -1.7851  0.7352 -0.3422
18414SOL    HW256376   0.075   0.330   2.192 -1.7817  0.7134 -0.3454
18415SOL     OW56377   8.836   7.264   0.034  0.3687  0.0881  0.0720
18415SOL    HW156378   8.838   7.172   0.060  1.5600  0.0442 -0.1215
18415SOL    HW256379   8.896   7.308   0.095 -0.9984  0.9456  0.8571
18416SOL     OW56380   0.180   6.623   6.749 -0.2229 -0.9876 -0.0749
18416SOL    HW156381   0.268   6.593   6.769 -0.0482 -2.6333 -2.8147
18416SOL    HW256382   0.189   6.668   6.664 -1.9529 -0.8554 -0.2243
18417SOL     OW56383   1.736   4.354   7.445  0.2261  0.6307  0.2771
18417SOL    HW156384   1.830   4.353   7.430  0.0910 -0.9732 -0.7817
18417SOL    HW256385   1.716   4.265   7.475 -0.9886  0.8599  0.1919
18418SOL     OW56386   5.647   7.076   2.317 -0.4836 -0.4855  0.1539
18418SOL    HW156387   5.603   7.141   2.373 -0.7656 -1.4750  1.1066
18418SOL    HW256388   5.639   7.112   2.229 -1.2575  0.4411  0.5754
18419SOL     OW56389   0.354   2.894   4.768 -0.4325 -0.0608  0.0601
18419SOL    HW156390   0.324   2.911   4.858 -0.0384 -1.1174  0.4120
18419SOL    HW256391   0.324   2.970   4.718 -1.3039  0.1972  0.9362
18420SOL     OW56392   4.734   8.303   3.341 -0.1593 -0.4982  0.2678
18420SOL    HW156393   4.829   8.307   3.337 -0.0531 -1.5689  1.1995
18420SOL    HW256394   4.715   8.260   3.425 -1.4438 -0.8801 -0.1906
18421SOL     OW56395   1.827   7.564   8.735 -0.5408  0.3100 -0.2389
18421SOL    HW156396   1.850   7.483   8.689 -1.3816  0.4119 -0.8481
18421SOL    HW256397   1.870   7.555   8.820  1.8990  0.5593 -1.3582
18422SOL     OW56398   3.821   6.729   4.000 -0.3512 -0.1785 -0.1572
18422SOL    HW156399   3.875   6.652   3.983  1.5535  0.6605  1.6230
18422SOL    HW256400   3.853   6.795   3.937  0.2489  0.0909  0.4117
18423SOL     OW56401   6.835   5.040   0.992  0.0103  0.0062 -0.0546
18423SOL    HW156402   6.823   5.013   1.084  0.1903 -0.2646 -0.1093
18423SOL    HW256403   6.920   5.004   0.968  0.3913  0.8811 -0.0473
18424SOL     OW56404   0.501   3.387   6.311 -0.2064 -0.3775  0.3042
18424SOL    HW156405   0.529   3.322   6.376  2.5797 -0.7612 -1.1265
18424SOL    HW256406   0.529   3.470   6.348  2.9786 -0.7388 -1.0040
18425SOL     OW56407   1.391   6.580   2.235 -0.2857 -0.1087 -0.6556
18425SOL    HW156408   1.432   6.507   2.280  1.3533  1.7873  1.1324
18425SOL    HW256409   1.442   6.591   2.155  0.9213  0.3920  0.1460
18426SOL     OW56410   3.846   6.320   8.220  0.2594 -0.4222  0.6805
18426SOL    HW156411   3.805   6.358   8.143 -0.4146 -1.0333  0.7189
18426SOL    HW256412   3.852   6.391   8.283  1.0865  0.1535 -0.0316
18427SOL     OW56413   1.946   7.950   3.028  0.2589 -0.1844  0.0979
18427SOL    HW156414   1.862   7.994   3.017  1.2746  1.7892 -0.0863
18427SOL    HW256415   1.983   7.986   3.108  0.6794 -1.5106  0.5322
18428SOL     OW56416   4.539   3.887   8.712  1.2497 -0.3398 -0.0201
18428SOL    HW156417   4.587   3.923   8.787  1.0106 -3.0798  1.5938
18428SOL    HW256418   4.602   3.889   8.640  1.8432  1.3763  0.5006
18429SOL     OW56419   3.478   5.637   1.409  0.3726 -0.2859  0.4801
18429SOL    HW156420   3.471   5.730   1.385 -0.0814  0.0309  1.7802
18429SOL    HW256421   3.400   5.620   1.461 -0.6894 -1.9777 -1.4896
18430SOL     OW56422   7.542   5.882   4.587  0.4273 -0.3035 -0.2898
18430SOL    HW156423   7.587   5.827   4.523 -1.7832 -2.2732 -0.2760
18430SOL    HW256424   7.467   5.918   4.540 -0.8886 -1.2857  0.9717
18431SOL     OW56425   7.255   0.717   4.244 -0.3406  0.7995  0.1423
18431SOL    HW156426   7.294   0.658   4.180 -2.0938 -1.2908  0.8731
18431SOL    HW256427   7.320   0.785   4.257  1.8198 -0.9815 -0.7344
18432SOL     OW56428   8.836   5.327   3.204 -0.0860 -0.3436  0.4440
18432SOL    HW156429   8.864   5.379   3.279 -1.6751 -0.3571  1.0829
18432SOL    HW256430   8.788   5.254   3.241 -1.9677  0.3064 -0.5782
18433SOL     OW56431   4.934   3.460   6.859  0.4232  0.3636  0.2443
18433SOL    HW156432   4.941   3.527   6.927  0.3753  1.8546 -1.1594
18433SOL    HW256433   4.996   3.487   6.791 -1.3696  0.4233 -1.4840
18434SOL     OW56434   4.728   8.399   7.688 -0.2268 -0.4973 -0.1934
18434SOL    HW156435   4.657   8.448   7.730  1.0331 -0.5116  2.1182
18434SOL    HW256436   4.690   8.368   7.605 -2.2524  1.1501  0.0252
18435SOL     OW56437   1.893   6.302   0.368 -0.3360 -0.1414 -0.0042
18435SOL    HW156438   1.942   6.375   0.330 -0.6158 -0.0722 -0.2362
18435SOL    HW256439   1.801   6.328   0.358 -0.4276  1.0172  2.8862
18436SOL     OW56440   0.463   6.178   5.498 -0.0523 -0.1627 -0.3713
18436SOL    HW156441   0.452   6.102   5.555  0.7519 -0.1893 -0.2353
18436SOL    HW256442   0.385   6.179   5.443 -2.9306  2.0501  3.2179
18437SOL     OW56443   8.564   4.904   2.459 -0.2493  0.0850  0.0956
18437SOL    HW156444   8.480   4.882   2.418  0.1896 -2.1597  0.3095
18437SOL    HW256445   8.630   4.868   2.400  0.4557 -1.1141  1.5513
18438SOL     OW56446   7.979   1.085   2.666  0.0607  0.3276 -0.3206
18438SOL    HW156447   7.938   1.033   2.735  1.3278  1.3586  1.3101
18438SOL    HW256448   8.071   1.058   2.667  0.0667  0.2442 -1.7497
18439SOL     OW56449   7.452   7.016   0.129 -0.0757  0.3743  0.3418
18439SOL    HW156450   7.417   6.951   0.068 -1.7152  2.3848 -0.9857
18439SOL    HW256451   7.546   6.996   0.133 -0.3795 -1.5020 -0.7009
18440SOL     OW56452   9.055   7.544   1.455 -0.0245  0.3759 -0.2226
18440SOL    HW156453   9.124   7.477   1.456 -0.7044 -0.3578  1.2426
18440SOL    HW256454   9.101   7.627   1.468  0.5660 -0.1561  1.3468
18441SOL     OW56455   4.961   4.072   8.534  0.3763 -0.4587 -0.2336
18441SOL    HW156456   4.990   4.163   8.528 -1.3629  0.0736 -1.5303
18441SOL    HW256457   4.953   4.055   8.628 -0.9177  1.3251  0.0259
18442SOL     OW56458   7.088   5.347   3.310 -0.5746  0.0811  0.3951
18442SOL    HW156459   7.148   5.275   3.290 -0.2471  0.9177 -1.8920
18442SOL    HW256460   7.144   5.415   3.348 -0.0913  0.6557 -1.2475
18443SOL     OW56461   2.485   0.432   1.428  0.6345  0.1504  0.2106
18443SOL    HW156462   2.452   0.514   1.391 -1.7406 -1.0411 -0.4790
18443SOL    HW256463   2.475   0.443   1.523 -1.7338 -0.0637  0.0511
18444SOL     OW56464   3.786   3.260   5.422  0.3131  0.2398  0.5145
18444SOL    HW156465   3.814   3.290   5.336  0.7031  0.5411  0.7477
18444SOL    HW256466   3.764   3.340   5.470 -0.2632  0.0521  0.5725
18445SOL     OW56467   8.050   1.437   4.851  0.1999  0.6862  0.2906
18445SOL    HW156468   8.081   1.424   4.941  0.8311  2.2352  0.3313
18445SOL    HW256469   7.975   1.496   4.860  0.3105  0.9081 -0.1872
18446SOL     OW56470   7.366   7.167   1.334  0.0154  0.1207 -0.2214
18446SOL    HW156471   7.454   7.141   1.362 -0.3900 -1.2043 -0.0696
18446SOL    HW256472   7.329   7.087   1.294 -1.0688  0.6818 -0.3877
18447SOL     OW56473   4.939   4.322   3.846  0.3115  0.5054  0.2134
18447SOL    HW156474   4.997   4.361   3.781 -0.0895  3.0614  1.2640
18447SOL    HW256475   4.996   4.270   3.902  1.0343  0.2930 -0.7010
18448SOL     OW56476   9.050   4.239   1.110 -0.4126  0.2809  0.0148
18448SOL    HW156477   9.036   4.146   1.130  0.5815  0.0678 -0.2170
18448SOL    HW256478   9.072   4.279   1.194  0.1666  0.0981 -0.0443
18449SOL     OW56479   4.566   4.525   0.351 -0.9565  0.0404  0.2818
18449SOL    HW156480   4.602   4.613   0.341  0.7772 -0.5801  0.7600
18449SOL    HW256481   4.556   4.513   0.445  0.4386 -0.8620  0.3428
18450SOL     OW56482   6.796   1.621   3.731 -0.3178 -0.3377  0.4569
18450SOL    HW156483   6.714   1.614   3.780 -0.8955  1.2653 -0.2038
18450SOL    HW256484   6.842   1.540   3.751 -1.3936 -0.6238  2.0573
18451SOL     OW56485   3.049   1.892   0.956  0.2494  0.1005  0.1294
18451SOL    HW156486   3.105   1.965   0.929  0.5153  0.0549  0.5375
18451SOL    HW256487   3.063   1.886   1.051  0.1964 -0.4542  0.1040
18452SOL     OW56488   4.256   6.684   0.703 -0.4792  1.1847 -0.3369
18452SOL    HW156489   4.312   6.675   0.780 -1.2348  3.6802  0.5765
18452SOL    HW256490   4.206   6.602   0.701  1.6557 -0.2407 -0.0202
18453SOL     OW56491   1.130   6.379   8.150 -0.0236 -0.0973  0.3089
18453SOL    HW156492   1.204   6.332   8.188  1.0068 -0.0058 -1.4432
18453SOL    HW256493   1.080   6.312   8.104 -1.2860 -0.2201  1.7842
18454SOL     OW56494   5.254   5.296   1.284 -0.0644  0.0041  0.3232
18454SOL    HW156495   5.212   5.376   1.313  0.5974  0.4572  0.0574
18454SOL    HW256496   5.182   5.240   1.256 -0.5225  0.5619  0.3723
18455SOL     OW56497   4.119   0.571   1.287  0.1260  0.0256  0.0796
18455SOL    HW156498   4.182   0.512   1.245 -0.1090 -0.1606 -0.0109
18455SOL    HW256499   4.148   0.575   1.378 -0.5195 -1.1369  0.3584
18456SOL     OW56500   1.810   9.041   8.293 -1.2304 -0.7165 -0.1878
18456SOL    HW156501   1.749   8.967   8.293 -2.3117  0.1075  1.7189
18456SOL    HW256502   1.806   9.075   8.382  0.7337  0.4601 -0.4878
18457SOL     OW56503   4.392   6.920   1.545  0.5108 -0.1039  0.3765
18457SOL    HW156504   4.360   6.840   1.502  0.2979  0.5093 -0.6530
18457SOL    HW256505   4.411   6.894   1.635 -0.8100 -1.0121  0.4205
18458SOL     OW56506   7.238   5.224   5.818  0.0907 -0.2279 -0.7815
18458SOL    HW156507   7.327   5.207   5.847  0.7954  2.6572 -0.9387
18458SOL    HW256508   7.248   5.256   5.728 -0.8458  1.8044 -0.2255
18459SOL     OW56509   3.478   0.400   7.756  0.5479 -0.0515 -0.2255
18459SOL    HW156510   3.480   0.305   7.745  1.2789 -0.1813  0.8842
18459SOL    HW256511   3.551   0.433   7.704  1.2775 -0.2530  0.6571
18460SOL     OW56512   4.076   5.046   0.082 -0.3677  0.4382  0.3187
18460SOL    HW156513   4.054   5.087   0.166 -1.9628  1.3068 -0.4680
18460SOL    HW256514   4.114   5.117   0.030  2.4973 -0.5463  0.9002
18461SOL     OW56515   3.257   8.202   4.069 -0.1628  0.8676  0.1532
18461SOL    HW156516   3.211   8.276   4.108  0.2855 -0.1643  2.7929
18461SOL    HW256517   3.348   8.230   4.064 -0.3728  1.4012 -1.3008
18462SOL     OW56518   2.021   0.638   5.457 -0.1552 -0.2421 -0.1604
18462SOL    HW156519   2.045   0.571   5.393 -1.0527  0.0025 -0.7548
18462SOL    HW256520   2.038   0.721   5.413 -1.1299 -0.0711 -0.2197
18463SOL     OW56521   3.833   0.291   2.867 -0.2308  0.0960  0.3058
18463SOL    HW156522   3.753   0.238   2.877  0.3708 -0.8922  0.0540
18463SOL    HW256523   3.858   0.278   2.776  0.5044 -0.0217  0.5197
18464SOL     OW56524   6.967   6.856   0.122 -0.6702  0.1706  0.3052
18464SOL    HW156525   6.925   6.789   0.177 -0.8260  0.5506  0.6564
18464SOL    HW256526   6.945   6.939   0.165  0.6141  0.3707  0.6231
18465SOL     OW56527   8.649   3.827   6.900 -0.3109  0.2315 -0.2957
18465SOL    HW156528   8.561   3.799   6.928  0.0541 -0.5923  0.0792
18465SOL    HW256529   8.639   3.849   6.807 -0.5400 -1.7225 -0.7845
18466SOL     OW56530   2.488   1.578   3.536 -0.0705 -0.0043 -0.0820
18466SOL    HW156531   2.500   1.639   3.609 -0.4976 -2.7010  2.4237
18466SOL    HW256532   2.393   1.562   3.534  0.2299 -2.6140  1.2902
18467SOL     OW56533   3.439   6.295   0.886 -0.6568 -0.1641 -0.0514
18467SOL    HW156534   3.491   6.261   0.958  0.1640  2.9935  1.0013
18467SOL    HW256535   3.359   6.328   0.927 -0.5453  0.9304 -0.6721
18468SOL     OW56536   5.070   4.057   3.616  0.5829  0.6146 -0.0705
18468SOL    HW156537   5.058   4.081   3.708 -0.4178 -0.7422  0.1942
18468SOL    HW256538   5.152   4.097   3.591  1.7170 -0.3106  1.8997
18469SOL     OW56539   0.346   8.636   7.179 -0.1950 -0.4323  0.3915
18469SOL    HW156540   0.410   8.702   7.206 -0.5708 -0.5172  1.5706
18469SOL    HW256541   0.370   8.614   7.089  1.2468 -0.2533  0.7061
18470SOL     OW56542   5.489   3.188   2.426 -0.7582 -0.1784 -0.5195
18470SOL    HW156543   5.511   3.109   2.475 -1.8062 -0.5334 -0.5918
18470SOL    HW256544   5.554   3.253   2.454 -0.3330 -0.8474  0.0848
18471SOL     OW56545   0.997   1.594   1.935  0.1486 -0.2615  0.7336
18471SOL    HW156546   0.921   1.645   1.963 -1.0047 -2.1382  1.1640
18471SOL    HW256547   1.021   1.632   1.850 -2.0877 -0.4180 -0.0333
18472SOL     OW56548   6.740   8.750   7.061 -1.0431  0.0191 -0.2047
18472SOL    HW156549   6.693   8.773   7.141  0.3048 -2.4100  1.4232
18472SOL    HW256550   6.832   8.769   7.081 -0.8979  1.4794 -2.0535
18473SOL     OW56551   4.981   7.614   6.207  0.2498  0.2302 -0.3761
18473SOL    HW156552   5.052   7.675   6.188  0.6090  0.2167  0.8433
18473SOL    HW256553   4.901   7.665   6.193  0.5234  0.6523 -0.4224
18474SOL     OW56554   3.780   2.436   6.440 -0.2649  0.1870 -0.0131
18474SOL    HW156555   3.773   2.488   6.360 -3.5215  0.6745  0.4405
18474SOL    HW256556   3.689   2.420   6.466  0.6616 -1.9765  2.3174
18475SOL     OW56557   0.135   4.723   7.594  0.1580  0.6058  0.5260
18475SOL    HW156558   0.135   4.653   7.529 -1.3869  2.2032 -1.3339
18475SOL    HW256559   0.210   4.778   7.571  0.1927  0.6444  0.7264
18476SOL     OW56560   6.550   1.881   2.539 -0.4229  0.4609  0.7783
18476SOL    HW156561   6.624   1.853   2.593 -0.5183  1.3560  1.3914
18476SOL    HW256562   6.479   1.822   2.564 -0.5436  1.0317  1.8559
18477SOL     OW56563   9.019   6.996   1.570 -0.2943 -0.2640 -0.1918
18477SOL    HW156564   9.028   6.987   1.665 -1.3416 -0.3351 -0.0909
18477SOL    HW256565   9.058   6.916   1.535 -0.3166 -0.4515  0.2045
18478SOL     OW56566   4.829   6.631   0.501  0.1526 -0.2106  0.5655
18478SOL    HW156567   4.809   6.699   0.565  0.0536  1.3138 -1.0203
18478SOL    HW256568   4.750   6.624   0.448  0.5087 -0.8914  0.1122
18479SOL     OW56569   7.091   3.015   2.219  0.3943 -0.0438  0.1126
18479SOL    HW156570   7.073   3.049   2.132  1.2441  0.6099  0.1789
18479SOL    HW256571   7.063   2.924   2.216 -1.2675  0.4520 -0.2897
18480SOL     OW56572   5.869   3.206   3.713  0.1354 -0.1227  0.1539
18480SOL    HW156573   5.827   3.255   3.783  3.4654  0.4222  2.0101
18480SOL    HW256574   5.822   3.123   3.710 -1.7403  0.8341  1.1865
18481SOL     OW56575   5.222   8.915   6.998  0.1719 -0.3652 -0.2236
18481SOL    HW156576   5.150   8.949   6.946 -0.4060 -0.0898  0.7428
18481SOL    HW256577   5.300   8.957   6.962 -0.4290  1.3250  0.3897
18482SOL     OW56578   1.057   3.380   0.302 -0.1191 -0.1084 -0.3153
18482SOL    HW156579   1.122   3.449   0.317 -0.1102 -0.0831 -0.4645
18482SOL    HW256580   1.095   3.327   0.232  0.6650 -1.2642  0.9294
18483SOL     OW56581   7.983   8.172   5.762 -0.2556 -0.3788 -0.0152
18483SOL    HW156582   7.965   8.177   5.856  0.6865  1.6313  0.1229
18483SOL    HW256583   8.079   8.175   5.755 -0.3189  1.6240 -1.0388
18484SOL     OW56584   5.504   0.822   7.008  0.5966  0.2919  0.1767
18484SOL    HW156585   5.575   0.881   6.985  2.5414 -1.7341  0.6064
18484SOL    HW256586   5.509   0.813   7.103 -0.2828  0.1553  0.2249
18485SOL     OW56587   5.735   8.212   1.825 -0.3668  0.1192  0.3283
18485SOL    HW156588   5.750   8.291   1.773  1.5621 -1.0891 -1.1213
18485SOL    HW256589   5.818   8.198   1.871 -0.0621 -1.8416 -0.6876
18486SOL     OW56590   1.219   4.649   6.280 -0.0704  0.3949 -0.5473
18486SOL    HW156591   1.137   4.695   6.262 -1.3744 -1.7957 -0.5970
18486SOL    HW256592   1.271   4.661   6.201  0.0777  2.5559 -0.1806
18487SOL     OW56593   3.674   2.788   7.277 -0.4603  0.4366  0.4264
18487SOL    HW156594   3.627   2.713   7.313 -1.0341  0.9959  0.8689
18487SOL    HW256595   3.753   2.750   7.237 -0.7241 -0.3901  0.6658
18488SOL     OW56596   3.108   2.617   1.168 -0.2279 -0.5027  0.4394
18488SOL    HW156597   3.180   2.614   1.230 -1.2080  0.9857  1.7240
18488SOL    HW256598   3.114   2.535   1.119  1.9943 -0.6359  0.8585
18489SOL     OW56599   3.530   1.289   2.232 -0.2463  0.0567 -0.5756
18489SOL    HW156600   3.580   1.360   2.193 -1.5099  2.4259  1.7466
18489SOL    HW256601   3.459   1.273   2.170  0.6594  0.0363 -1.6334
18490SOL     OW56602   3.586   4.376   1.176 -0.4036  0.4913 -0.3548
18490SOL    HW156603   3.548   4.412   1.256  1.9863  1.5451  0.3947
18490SOL    HW256604   3.569   4.443   1.109  1.2764  1.6181  0.3019
18491SOL     OW56605   0.070   1.018   1.885  0.5173  0.1491  0.0587
18491SOL    HW156606   0.086   1.110   1.907  2.6618 -0.3102  0.6126
18491SOL    HW256607   0.135   0.998   1.817  0.3643 -1.0681  0.2463
18492SOL     OW56608   0.766   7.903   1.228 -0.4031 -0.3594  0.6987
18492SOL    HW156609   0.837   7.967   1.227 -1.0127  0.3340 -0.5355
18492SOL    HW256610   0.774   7.858   1.143 -1.3952 -0.3236  0.5852
18493SOL     OW56611   3.717   6.080   5.595  0.0452 -0.5408 -0.3701
18493SOL    HW156612   3.736   5.986   5.602  0.9483 -0.2735  1.4736
18493SOL    HW256613   3.793   6.115   5.548  0.7532 -0.4689  0.7855
18494SOL     OW56614   3.918   5.922   8.037  0.3940  0.5120  0.1937
18494SOL    HW156615   3.823   5.916   8.044  0.1465 -0.3533 -2.5989
18494SOL    HW256616   3.938   6.014   8.051 -0.8624  0.7150  0.7260
18495SOL     OW56617   2.816   6.492   2.299  0.0880 -0.2277  0.1465
18495SOL    HW156618   2.909   6.471   2.307  0.3365  1.2233  1.6480
18495SOL    HW256619   2.809   6.540   2.216  0.4550 -1.2605 -0.5061
18496SOL     OW56620   5.566   7.156   0.582  0.2349 -0.0963 -1.3307
18496SOL    HW156621   5.584   7.173   0.489  0.8892 -0.5836 -1.3047
18496SOL    HW256622   5.511   7.078   0.582  0.4156 -0.2238 -1.2999
18497SOL     OW56623   5.069   0.145   2.669 -0.3464  0.1161  0.4699
18497SOL    HW156624   5.047   0.182   2.754 -1.6733 -1.4528  0.8530
18497SOL    HW256625   5.024   0.201   2.606  1.7458  2.1116  0.6427
18498SOL     OW56626   3.604   4.867   3.457 -0.0411  0.7036 -0.6421
18498SOL    HW156627   3.652   4.921   3.521 -2.7973  0.9257  1.3943
18498SOL    HW256628   3.641   4.779   3.467 -0.4889  0.7018  1.4306
18499SOL     OW56629   1.198   2.093   1.199  0.3130 -0.4540 -0.4408
18499SOL    HW156630   1.190   2.137   1.115 -0.2563  0.9162  0.3046
18499SOL    HW256631   1.290   2.103   1.223  0.4008 -0.5507 -0.7384
18500SOL     OW56632   6.555   7.036   3.719 -0.4369  0.2946  0.0212
18500SOL    HW156633   6.521   7.027   3.808  1.4983  1.1511  0.8821
18500SOL    HW256634   6.607   6.957   3.705  0.2358  0.7160  0.1101
18501SOL     OW56635   2.572   1.309   2.263  0.7021 -0.0056  0.0976
18501SOL    HW156636   2.564   1.345   2.351 -1.2888  2.0056 -0.8084
18501SOL    HW256637   2.526   1.225   2.267 -0.0064  0.4017  0.8249
18502SOL     OW56638   8.971   6.935   8.140 -0.6125  0.0210 -0.3485
18502SOL    HW156639   9.012   6.983   8.068  0.3289  0.0666  0.2037
18502SOL    HW256640   8.973   6.996   8.214 -1.8437  0.0844 -0.3567
18503SOL     OW56641   5.884   7.209   4.829 -0.0969 -0.2421  0.2712
18503SOL    HW156642   5.978   7.211   4.811 -0.1990  0.9266 -0.2454
18503SOL    HW256643   5.854   7.127   4.789  0.2233  0.8005 -2.3471
18504SOL     OW56644   5.316   1.985   8.456 -0.9226  0.0191 -0.0342
18504SOL    HW156645   5.383   2.040   8.416 -2.2479  1.0283 -0.9271
18504SOL    HW256646   5.266   2.044   8.512 -1.6152 -0.5385 -0.0514
18505SOL     OW56647   3.089   3.432   5.144 -0.7236  0.6952 -0.5678
18505SOL    HW156648   3.039   3.388   5.075 -1.4322  0.4560  0.0848
18505SOL    HW256649   3.145   3.363   5.180 -1.7193  0.3354  0.3479
18506SOL     OW56650   7.884   1.725   7.792 -0.6132 -0.1069  0.0112
18506SOL    HW156651   7.965   1.742   7.841 -1.0325  1.2976  0.2653
18506SOL    HW256652   7.883   1.630   7.780  0.1360 -0.3580  1.6291
18507SOL     OW56653   5.264   4.908   4.173 -0.7114  0.4338  0.2933
18507SOL    HW156654   5.295   4.992   4.138  1.3462  0.4408  1.9843
18507SOL    HW256655   5.170   4.908   4.155 -0.1488  1.2386 -3.4685
18508SOL     OW56656   6.748   7.738   6.391  0.3388  0.0695 -0.0388
18508SOL    HW156657   6.738   7.647   6.416 -0.7732  0.1261 -0.2442
18508SOL    HW256658   6.808   7.775   6.456 -0.5746 -0.3803  1.0894
18509SOL     OW56659   5.837   7.082   4.374 -0.4727  0.1781  0.3381
18509SOL    HW156660   5.820   7.072   4.467  0.8014 -0.2659  0.5433
18509SOL    HW256661   5.928   7.110   4.369 -0.2510 -0.6584 -0.8032
18510SOL     OW56662   5.027   2.115   7.871  0.0961 -0.3255 -0.6480
18510SOL    HW156663   5.089   2.043   7.884  0.4809  0.2608  0.9291
18510SOL    HW256664   4.943   2.073   7.856  0.4481 -1.0992 -0.4764
18511SOL     OW56665   7.530   8.454   1.544  0.0048  0.3006 -0.1805
18511SOL    HW156666   7.504   8.375   1.498 -0.6839 -0.3984  1.3330
18511SOL    HW256667   7.585   8.423   1.616 -1.8681  0.9496  1.6287
18512SOL     OW56668   2.710   5.319   6.879  0.1712 -0.0792  0.0805
18512SOL    HW156669   2.650   5.300   6.808  0.2086  1.0103 -0.2516
18512SOL    HW256670   2.658   5.309   6.959 -0.1962 -0.0848 -0.1603
18513SOL     OW56671   1.191   3.626   4.654 -0.0570 -0.1086  0.0787
18513SOL    HW156672   1.099   3.647   4.636  0.2207  0.1299 -1.1250
18513SOL    HW256673   1.187   3.562   4.725 -1.1091  0.6457  0.7347
18514SOL     OW56674   1.260   2.677   4.628 -0.2505 -0.1537  0.2884
18514SOL    HW156675   1.227   2.670   4.718  1.2088  0.5501  0.9244
18514SOL    HW256676   1.229   2.762   4.598  0.5445  0.3014  0.7154
18515SOL     OW56677   5.004   5.324   8.179  0.2979 -0.0965  0.0433
18515SOL    HW156678   4.974   5.408   8.146  1.5384  0.2218 -0.3244
18515SOL    HW256679   5.032   5.276   8.101 -1.9171 -1.5297  0.0473
18516SOL     OW56680   1.123   2.380   1.879  0.1617  0.2461 -0.0637
18516SOL    HW156681   1.162   2.309   1.829 -0.3743 -1.5669  1.9586
18516SOL    HW256682   1.034   2.388   1.845  0.0771 -0.3805  0.0063
18517SOL     OW56683   8.969   1.206   3.309  0.0703  0.0041  0.7439
18517SOL    HW156684   8.989   1.273   3.243  1.2067  1.3946  2.4019
18517SOL    HW256685   8.889   1.237   3.351  0.4898  0.2422  1.3841
18518SOL     OW56686   2.267   8.150   1.714  0.1509 -0.6317 -0.1145
18518SOL    HW156687   2.284   8.142   1.808 -0.9573 -1.8354  0.0109
18518SOL    HW256688   2.234   8.064   1.688 -1.7233  0.3278 -1.1320
18519SOL     OW56689   0.286   6.477   0.492 -0.0250  0.0565 -0.2034
18519SOL    HW156690   0.211   6.537   0.491 -0.7809 -0.8539 -1.6099
18519SOL    HW256691   0.362   6.534   0.506 -0.9319  1.0219  1.0297
18520SOL     OW56692   8.766   1.321   2.754  0.0949  0.6820  0.3225
18520SOL    HW156693   8.788   1.232   2.725  1.5213  0.7574  1.0675
18520SOL    HW256694   8.748   1.311   2.848  0.8741  1.2535  0.5431
18521SOL     OW56695   6.026   8.472   8.876 -0.2146  0.0992  0.1385
18521SOL    HW156696   6.009   8.489   8.969  1.9549  0.2387  0.5675
18521SOL    HW256697   6.064   8.553   8.843  1.6677 -0.8373 -0.1303
18522SOL     OW56698   3.633   1.113   8.268  0.1198  0.7657  0.4299
18522SOL    HW156699   3.656   1.205   8.279 -2.3598  1.3070  2.0304
18522SOL    HW256700   3.545   1.106   8.306  0.3245 -2.3201  0.5868
18523SOL     OW56701   5.812   3.333   7.907 -0.0505 -0.5509  0.2817
18523SOL    HW156702   5.756   3.389   7.961 -1.6202  0.2221 -1.9942
18523SOL    HW256703   5.779   3.345   7.818  3.4920 -0.3337 -1.1916
18524SOL     OW56704   4.258   0.533   7.087  0.4115 -0.0064 -0.5290
18524SOL    HW156705   4.315   0.609   7.084 -0.0092  0.2907 -2.3883
18524SOL    HW256706   4.203   0.541   7.009 -0.4626 -1.5860 -0.1239
18525SOL     OW56707   9.071   3.958   1.125 -0.2450  0.7543  0.5128
18525SOL    HW156708   9.008   3.886   1.114 -1.4738  2.0163 -1.2864
18525SOL    HW256709   9.090   3.959   1.219 -1.9781 -0.4457  0.9342
18526SOL     OW56710   7.293   6.421   9.024  0.0911  0.5618  0.0102
18526SOL    HW156711   7.336   6.349   8.978 -0.3891 -0.1963  0.7210
18526SOL    HW256712   7.237   6.461   8.958 -0.4507 -0.3935 -0.1290
18527SOL     OW56713   2.801   1.404   8.527 -0.3215  0.4415 -0.1848
18527SOL    HW156714   2.784   1.450   8.445 -0.7683  1.3262  0.3850
18527SOL    HW256715   2.886   1.362   8.513 -0.4669  0.4510 -1.1516
18528SOL     OW56716   3.925   4.043   8.575  0.0123 -0.0971 -0.1995
18528SOL    HW156717   3.937   3.951   8.553  0.5997  0.1115 -0.8011
18528SOL    HW256718   3.999   4.087   8.533  1.6094  0.2783  2.7913
18529SOL     OW56719   1.737   1.283   1.007 -0.0952  0.1399 -0.0930
18529SOL    HW156720   1.801   1.272   0.937  1.4958 -0.8406  1.4470
18529SOL    HW256721   1.667   1.221   0.985  0.5399 -0.3870 -0.6642
18530SOL     OW56722   7.621   3.189   8.634  0.5439  0.3685 -0.2981
18530SOL    HW156723   7.696   3.218   8.583  1.1122  0.2780  0.4627
18530SOL    HW256724   7.631   3.094   8.642  0.5927  0.4084  0.1729
18531SOL     OW56725   5.750   3.921   4.806  0.0722 -0.3502  0.4214
18531SOL    HW156726   5.788   3.964   4.729  0.5487 -2.6868 -0.7257
18531SOL    HW256727   5.671   3.971   4.825  0.5593  0.9708 -0.8652
18532SOL     OW56728   7.163   6.750   5.070  0.1845 -0.1915  0.2016
18532SOL    HW156729   7.186   6.834   5.030 -0.8007 -0.3202 -0.6974
18532SOL    HW256730   7.070   6.758   5.091  0.1810 -0.9112  0.4987
18533SOL     OW56731   7.719   8.505   1.309  0.3569  0.3369 -0.2393
18533SOL    HW156732   7.757   8.462   1.386 -0.8363 -0.0012  0.1930
18533SOL    HW256733   7.704   8.595   1.337  1.4217  0.6527 -0.6327
18534SOL     OW56734   3.277   6.680   7.066  0.1365  0.3937  0.8934
18534SOL    HW156735   3.221   6.700   7.141 -0.4576 -0.5825  0.7297
18534SOL    HW256736   3.247   6.594   7.036  0.7383  0.5238 -0.1230
18535SOL     OW56737   4.513   1.267   6.320  0.2549  0.2879  0.2248
18535SOL    HW156738   4.547   1.308   6.241  2.3293 -0.3341  0.7347
18535SOL    HW256739   4.588   1.265   6.380 -0.7325 -1.0575  1.4821
18536SOL     OW56740   8.591   4.058   0.334  0.4707 -0.1982  0.3785
18536SOL    HW156741   8.632   4.142   0.314 -0.2275  0.1577  0.4263
18536SOL    HW256742   8.603   4.006   0.254  2.4150 -0.6837  0.9243
18537SOL     OW56743   3.426   5.255   5.118  0.0953 -0.4189 -0.4540
18537SOL    HW156744   3.457   5.306   5.192  0.4259 -0.6173 -0.4547
18537SOL    HW256745   3.501   5.249   5.059 -0.0401 -0.6189 -0.6117
18538SOL     OW56746   1.050   8.014   3.379  0.4687  0.6842 -0.5980
18538SOL    HW156747   1.013   8.014   3.467  0.5151  1.7162 -0.5691
18538SOL    HW256748   1.078   7.923   3.365  0.0613  0.4133  0.2731
18539SOL     OW56749   7.567   6.058   6.694 -0.1186  0.6634 -0.0332
18539SOL    HW156750   7.493   6.030   6.640 -1.5887  0.5187  1.9705
18539SOL    HW256751   7.635   5.992   6.678 -1.4627 -0.8401  0.2856
18540SOL     OW56752   6.613   2.332   6.612 -0.3275  0.0535  0.0967
18540SOL    HW156753   6.518   2.331   6.598 -0.4703  0.0884  0.9970
18540SOL    HW256754   6.649   2.282   6.539 -0.8643  1.7086 -1.3724
18541SOL     OW56755   4.184   7.992   2.261 -0.0695  0.0620  0.0611
18541SOL    HW156756   4.157   7.905   2.290 -0.8349 -0.1424 -1.1845
18541SOL    HW256757   4.264   8.010   2.310 -0.2074 -1.0970  0.7481
18542SOL     OW56758   3.983   5.522   2.132 -0.1193 -0.0437  0.0701
18542SOL    HW156759   3.983   5.608   2.175 -0.7026 -0.3820  0.7645
18542SOL    HW256760   3.901   5.522   2.081  0.0163 -0.0848 -0.1483
18543SOL     OW56761   6.388   4.685   3.581  0.1620  0.2883 -0.1566
18543SOL    HW156762   6.323   4.756   3.576 -1.0896 -0.6962  1.1205
18543SOL    HW256763   6.436   4.690   3.499 -0.4924  2.0518 -0.4647
18544SOL     OW56764   2.677   1.296   0.661  0.4075 -0.3407 -0.2670
18544SOL    HW156765   2.717   1.224   0.611  0.1775  0.2135 -1.2745
18544SOL    HW256766   2.591   1.262   0.686 -0.1610 -0.0231 -1.7251
18545SOL     OW56767   7.773   6.687   2.857  0.3325  0.0073 -0.0426
18545SOL    HW156768   7.723   6.727   2.786  1.0858  1.1779  0.0581
18545SOL    HW256769   7.864   6.689   2.826  0.7861  1.2855  1.2606
18546SOL     OW56770   2.394   1.736   1.780 -0.3233 -0.7069 -0.4076
18546SOL    HW156771   2.333   1.684   1.834 -1.3316 -0.5428 -1.3524
18546SOL    HW256772   2.337   1.794   1.730  0.7886  2.0488  1.2779
18547SOL     OW56773   5.002   5.829   2.072 -0.1509 -0.0532 -0.7848
18547SOL    HW156774   4.939   5.758   2.082  1.0025 -1.2516 -1.7689
18547SOL    HW256775   5.073   5.807   2.132 -0.9578  1.7134  0.9377
18548SOL     OW56776   4.619   6.773   7.638 -0.5056 -0.0745 -0.2365
18548SOL    HW156777   4.700   6.817   7.663  0.5478 -1.9293 -0.1682
18548SOL    HW256778   4.575   6.835   7.580  1.1750  0.8223 -0.6213
18549SOL     OW56779   7.293   1.723   3.806 -0.0597 -0.1720 -0.0254
18549SOL    HW156780   7.346   1.767   3.739  0.5560 -0.7230  0.0960
18549SOL    HW256781   7.357   1.680   3.862 -0.6361 -0.7344  0.2024
18550SOL     OW56782   8.370   4.578   1.632 -0.2995 -0.5858  0.2670
18550SOL    HW156783   8.316   4.566   1.710 -0.7301 -1.1852 -0.1105
18550SOL    HW256784   8.307   4.578   1.559  0.3076 -2.8156 -0.3236
18551SOL     OW56785   6.155   5.968   9.072 -0.6650 -0.9756 -0.3165
18551SOL    HW156786   6.245   5.956   9.040 -0.2478 -1.0266  0.8175
18551SOL    HW256787   6.138   5.890   9.126 -0.2429  0.4130  1.9618
18552SOL     OW56788   5.540   1.480   3.292 -0.1395 -0.1125 -0.7378
18552SOL    HW156789   5.478   1.407   3.296  1.0526 -1.1305 -0.1097
18552SOL    HW256790   5.619   1.446   3.334  0.3504  1.6569 -0.1796
18553SOL     OW56791   8.519   9.056   7.652 -0.2339 -0.0473  0.0613
18553SOL    HW156792   8.580   8.983   7.650 -1.1969 -0.9031 -2.5187
18553SOL    HW256793   8.510   9.078   7.745  5.1594  1.2811  0.5968
18554SOL     OW56794   5.736   6.351   8.369 -0.3917  0.4595 -0.6406
18554SOL    HW156795   5.711   6.262   8.343  0.0070  0.7079 -1.9157
18554SOL    HW256796   5.798   6.338   8.441 -1.6149 -0.2346  0.3326
18555SOL     OW56797   5.334   5.963   2.159 -0.8009 -0.1484 -0.3743
18555SOL    HW156798   5.280   6.023   2.210  0.1199  0.4057 -0.0241
18555SOL    HW256799   5.358   6.013   2.081  3.8343  1.8678  1.9605
18556SOL     OW56800   4.824   1.594   8.532 -0.3699 -0.2644  0.3770
18556SOL    HW156801   4.798   1.507   8.499 -1.6733 -0.0815  0.8540
18556SOL    HW256802   4.848   1.578   8.623 -1.0130 -0.0718  0.5870
18557SOL     OW56803   3.165   2.465   3.084 -0.1325  0.1868 -0.2458
18557SOL    HW156804   3.200   2.445   2.998  0.4580 -0.1571  0.0680
18557SOL    HW256805   3.166   2.561   3.089  0.9067  0.1840 -0.1892
18558SOL     OW56806   0.765   7.005   0.266  0.7962 -0.0443 -0.0960
18558SOL    HW156807   0.715   7.010   0.347  0.3433  1.8094 -0.4511
18558SOL    HW256808   0.714   6.948   0.209  0.2558  0.0003  0.3416
18559SOL     OW56809   6.319   3.649   8.481  0.8123  0.3711  0.0210
18559SOL    HW156810   6.272   3.717   8.529  2.0112  0.8542  0.5514
18559SOL    HW256811   6.374   3.697   8.419  2.5936  0.0142  1.2200
18560SOL     OW56812   5.930   5.366   5.242  0.1950  0.3732 -0.0601
18560SOL    HW156813   5.953   5.407   5.325 -1.6735 -0.6060  0.9772
18560SOL    HW256814   5.967   5.278   5.248 -0.2793  0.1708 -0.1004
18561SOL     OW56815   8.845   4.696   8.330  0.6579 -0.3882  0.1523
18561SOL    HW156816   8.917   4.710   8.391  0.5230 -2.6223  0.9164
18561SOL    HW256817   8.876   4.628   8.270 -0.2394 -0.2374 -0.5214
18562SOL     OW56818   3.507   4.737   7.489  0.2051  0.0852 -0.1244
18562SOL    HW156819   3.500   4.833   7.488  0.7241  0.1442  0.7654
18562SOL    HW256820   3.598   4.720   7.515  0.3116 -0.6536 -0.9384
18563SOL     OW56821   9.083   2.137   0.438  0.0088  0.4431 -0.0625
18563SOL    HW156822   9.158   2.086   0.406  1.1392  3.0964 -1.9562
18563SOL    HW256823   9.008   2.101   0.391  0.2184 -1.4415  0.9447
18564SOL     OW56824   0.752   4.801   3.864 -0.1182 -0.0785  0.4388
18564SOL    HW156825   0.683   4.797   3.799  0.4531  0.3560 -0.2104
18564SOL    HW256826   0.820   4.742   3.831 -0.9003 -1.9316  1.9814
18565SOL     OW56827   7.851   2.537   6.688  0.1443  0.2926  0.1427
18565SOL    HW156828   7.775   2.507   6.737  0.6312  1.4526  1.7054
18565SOL    HW256829   7.926   2.507   6.740  0.6844  1.1756 -0.1017
18566SOL     OW56830   0.030   5.855   0.721 -0.0239 -0.3160 -0.2093
18566SOL    HW156831  -0.040   5.823   0.778  0.3826 -1.7846 -0.4837
18566SOL    HW256832   0.010   5.947   0.706 -1.4146 -0.5053  0.4164
18567SOL     OW56833   8.465   8.389   2.375 -0.8190  0.3722  0.4350
18567SOL    HW156834   8.543   8.445   2.383 -0.2101 -0.2050 -1.0267
18567SOL    HW256835   8.401   8.428   2.434  0.0847  1.7384  0.5566
18568SOL     OW56836   6.435   8.326   1.075 -0.4573  0.1860  0.2202
18568SOL    HW156837   6.353   8.299   1.115  0.2610 -0.6503  1.1702
18568SOL    HW256838   6.412   8.404   1.024 -2.0846 -0.7640 -0.5862
18569SOL     OW56839   2.636   2.370   8.822 -0.5931  0.7244  0.4777
18569SOL    HW156840   2.609   2.413   8.741 -0.6355 -2.4758 -1.3750
18569SOL    HW256841   2.732   2.373   8.819 -0.5362 -0.8068 -0.6398
18570SOL     OW56842   0.449   0.948   6.287  0.3575  0.1521  0.3596
18570SOL    HW156843   0.514   0.976   6.222 -0.3809  1.0883 -0.0023
18570SOL    HW256844   0.472   0.857   6.306  0.1629 -0.4074 -1.7887
18571SOL     OW56845   7.924   4.594   1.172  0.3699 -0.2383  0.5073
18571SOL    HW156846   7.886   4.578   1.086  0.8075  0.0058  0.2679
18571SOL    HW256847   7.917   4.510   1.218 -1.2939  0.0152  0.8027
18572SOL     OW56848   6.268   0.353   3.236 -0.1748  0.2492  0.7206
18572SOL    HW156849   6.186   0.403   3.244  0.7738  2.2861 -1.2356
18572SOL    HW256850   6.259   0.308   3.152 -0.3893 -1.8040  1.7887
18573SOL     OW56851   2.528   4.052   7.677  0.0668  0.1010  0.8944
18573SOL    HW156852   2.435   4.045   7.702  0.7819 -2.2180  3.2986
18573SOL    HW256853   2.538   3.989   7.606 -0.1132  0.1404  0.8307
18574SOL     OW56854   3.707   1.110   2.937 -0.2765  0.4413  0.0244
18574SOL    HW156855   3.613   1.119   2.949 -0.6271 -2.0979 -0.2837
18574SOL    HW256856   3.724   1.016   2.947  1.9450  0.5642 -1.7701
18575SOL     OW56857   8.246   5.260   3.125  0.4462  0.0410 -0.0533
18575SOL    HW156858   8.190   5.188   3.154  0.5056 -0.3143 -0.8061
18575SOL    HW256859   8.192   5.338   3.140  0.2826 -0.1776  0.5210
18576SOL     OW56860   5.223   5.002   0.632  0.2796  0.0444 -0.3859
18576SOL    HW156861   5.312   4.996   0.597  0.6379  0.8603  0.3577
18576SOL    HW256862   5.208   5.096   0.644 -0.4506 -0.1247  0.0786
18577SOL     OW56863   2.491   4.556   5.378  0.0483 -0.1787 -0.1280
18577SOL    HW156864   2.484   4.478   5.324 -1.7110  0.0763 -0.3299
18577SOL    HW256865   2.572   4.598   5.350  0.2920 -1.2053 -0.9938
18578SOL     OW56866   0.665   6.379   2.546 -0.1605  0.6958 -0.4890
18578SOL    HW156867   0.727   6.362   2.617 -0.2335 -1.0537 -0.7829
18578SOL    HW256868   0.641   6.291   2.514 -1.6823  1.3760 -1.3291
18579SOL     OW56869   0.838   3.368   3.566 -0.0021 -0.0220 -0.4435
18579SOL    HW156870   0.753   3.325   3.572  0.4393 -1.5838 -3.2926
18579SOL    HW256871   0.902   3.299   3.582  0.7235  0.4252 -1.2910
18580SOL     OW56872   4.407   3.235   4.721  0.1807 -0.6791 -0.2861
18580SOL    HW156873   4.345   3.192   4.779 -0.2855  3.6762  2.8908
18580SOL    HW256874   4.492   3.198   4.745 -0.3169 -0.8338  1.3600
18581SOL     OW56875   7.792   4.739   4.722  0.4405  0.5445 -0.0980
18581SOL    HW156876   7.721   4.795   4.754 -0.4482 -0.9220  0.5946
18581SOL    HW256877   7.748   4.673   4.668  0.8767 -1.7472  2.1147
18582SOL     OW56878   6.162   7.276   0.183  0.2708  0.5555  0.3328
18582SOL    HW156879   6.186   7.186   0.208 -1.6400  0.1240  0.7442
18582SOL    HW256880   6.216   7.331   0.241  0.3152 -0.3539  1.1920
18583SOL     OW56881   2.343   1.864   8.993 -0.3181 -0.2664 -0.0974
18583SOL    HW156882   2.425   1.823   9.022 -0.2743 -0.6952 -0.8069
18583SOL    HW256883   2.371   1.946   8.952 -0.3332  0.0626  0.5353
18584SOL     OW56884   5.753   1.333   3.346 -0.1219  0.2894 -0.1917
18584SOL    HW156885   5.828   1.319   3.403 -0.7009 -0.1980  0.4699
18584SOL    HW256886   5.685   1.277   3.382 -0.3107 -0.5402 -1.7543
18585SOL     OW56887   6.164   0.029   7.499 -0.2671 -0.3591  0.9435
18585SOL    HW156888   6.109   0.075   7.563  0.1240  1.6769 -0.1041
18585SOL    HW256889   6.244   0.008   7.547  0.4206  2.0208  0.9163
18586SOL     OW56890   8.931   6.016   3.988 -0.3210 -0.3458  0.5973
18586SOL    HW156891   8.888   6.044   3.908 -0.9536 -0.3393  0.9330
18586SOL    HW256892   8.963   5.928   3.969  1.7101  0.5625 -0.4838
18587SOL     OW56893   4.172   3.353   5.376  0.1172  0.3791  0.5139
18587SOL    HW156894   4.266   3.350   5.393  0.6263 -1.1424 -1.9251
18587SOL    HW256895   4.158   3.438   5.334  0.1502  1.0874  1.8835
18588SOL     OW56896   1.003   6.161   7.583 -0.0403 -0.4199 -0.1672
18588SOL    HW156897   0.964   6.118   7.659  0.1703  1.9169  1.3593
18588SOL    HW256898   0.928   6.199   7.537 -0.0335 -0.6488 -0.3730
18589SOL     OW56899   6.276   0.323   4.392 -0.2904  0.1290 -0.0945
18589SOL    HW156900   6.354   0.300   4.443  0.2429 -0.4115 -1.1339
18589SOL    HW256901   6.211   0.348   4.458  0.3638 -0.6088  0.8561
18590SOL     OW56902   0.977   5.302   3.246 -0.0218 -0.1843 -0.4553
18590SOL    HW156903   0.937   5.275   3.329 -1.7705 -0.2806 -1.2781
18590SOL    HW256904   1.061   5.256   3.243  0.9221  1.1807  2.0382
18591SOL     OW56905   1.189   4.346   2.487  0.4684 -0.2586 -1.3421
18591SOL    HW156906   1.202   4.426   2.538 -0.4399 -1.4016  0.8002
18591SOL    HW256907   1.095   4.329   2.491  0.3794 -0.5086 -3.3195
18592SOL     OW56908   4.235   7.573   4.088  0.3600 -0.1313 -0.2509
18592SOL    HW156909   4.145   7.549   4.110 -0.2599  1.8588 -0.4132
18592SOL    HW256910   4.264   7.504   4.028 -0.9556 -0.9402 -0.0019
18593SOL     OW56911   0.198   2.342   5.869 -0.2357 -0.0192  0.0219
18593SOL    HW156912   0.266   2.282   5.839  1.0074  1.4129 -0.1389
18593SOL    HW256913   0.218   2.425   5.826 -1.4104  0.7520  0.8852
18594SOL     OW56914   4.793   8.659   6.839  0.2778  0.7929  0.5674
18594SOL    HW156915   4.823   8.682   6.927  2.2949  0.4383  0.0309
18594SOL    HW256916   4.871   8.667   6.785  0.4069 -3.7921 -0.3000
18595SOL     OW56917   0.224   5.049   3.398  0.3283 -0.1573  0.2865
18595SOL    HW156918   0.301   5.079   3.447 -0.5901 -0.2905  1.8679
18595SOL    HW256919   0.260   4.990   3.332  1.4367 -2.6035  2.8633
18596SOL     OW56920   3.036   6.134   6.674 -0.1758 -0.4257 -0.1251
18596SOL    HW156921   3.099   6.169   6.612  0.4511 -0.6776  0.3630
18596SOL    HW256922   3.053   6.040   6.676  1.6663 -0.1552  2.4062
18597SOL     OW56923   0.508   7.115   4.348 -0.4730  0.0161 -0.1347
18597SOL    HW156924   0.581   7.132   4.408  0.0842 -0.2533 -0.7259
18597SOL    HW256925   0.512   7.021   4.332  1.5476  0.4736 -3.2549
18598SOL     OW56926   8.049   0.398   8.805 -0.5117  0.5973 -0.1666
18598SOL    HW156927   8.085   0.310   8.793  0.4367  0.9407  0.0840
18598SOL    HW256928   8.007   0.395   8.891 -0.5477  0.3774 -0.1901
18599SOL     OW56929   7.290   6.714   2.422  0.2790  0.2303  0.0582
18599SOL    HW156930   7.351   6.669   2.364  0.3255  1.9168 -1.3160
18599SOL    HW256931   7.298   6.807   2.398 -2.9498  0.5412 -0.3862
18600SOL     OW56932   1.942   3.562   1.523 -0.0930 -0.1409 -0.3022
18600SOL    HW156933   1.987   3.480   1.504  0.3699  0.2180 -0.7742
18600SOL    HW256934   1.971   3.622   1.454  1.1958  1.0346  1.1792
18601SOL     OW56935   3.211   5.650   7.858  0.5914  0.3632  0.5237
18601SOL    HW156936   3.260   5.712   7.804 -1.1122  0.9024 -0.4883
18601SOL    HW256937   3.274   5.620   7.923  2.4249  0.5277 -1.0825
18602SOL     OW56938   3.385   2.376   5.647  0.3685 -0.0967  0.4054
18602SOL    HW156939   3.370   2.469   5.664 -0.2710 -0.1118 -0.0161
18602SOL    HW256940   3.308   2.332   5.684  1.1682 -0.5759  1.5590
18603SOL     OW56941   1.653   3.488   1.271 -0.1690  0.3155 -0.1830
18603SOL    HW156942   1.580   3.519   1.326  0.4162 -2.3472  2.3264
18603SOL    HW256943   1.721   3.554   1.283 -0.0948 -0.1223  2.3697
18604SOL     OW56944   3.628   2.444   8.581  0.2464  0.0462  0.2123
18604SOL    HW156945   3.690   2.426   8.511  0.4453 -1.9339  0.8228
18604SOL    HW256946   3.678   2.425   8.661 -1.3933 -2.8941  0.6943
18605SOL     OW56947   8.145   3.499   2.138  0.0773 -0.1953 -0.2509
18605SOL    HW156948   8.146   3.472   2.230  2.4044  1.8879  0.4354
18605SOL    HW256949   8.091   3.578   2.137  1.1911  0.5731 -0.3934
18606SOL     OW56950   8.399   2.420   1.100 -0.2042 -0.4964  0.5668
18606SOL    HW156951   8.476   2.458   1.058  0.8208 -1.8040  1.1980
18606SOL    HW256952   8.431   2.338   1.139 -1.8552 -0.9353  1.0647
18607SOL     OW56953   1.044   3.420   7.518 -0.2064  0.6991 -0.5878
18607SOL    HW156954   1.088   3.364   7.454  0.1185  1.7352 -1.3009
18607SOL    HW256955   0.958   3.438   7.480  0.1315  1.6377 -0.9487
18608SOL     OW56956   1.323   4.072   0.268  0.1027 -0.8727 -0.0817
18608SOL    HW156957   1.297   4.054   0.178  1.8806 -2.5673 -0.3340
18608SOL    HW256958   1.364   4.159   0.264 -1.3784 -0.1679 -0.5240
18609SOL     OW56959   8.025   0.575   3.103  0.1521  0.0309 -0.0694
18609SOL    HW156960   7.973   0.585   3.183 -0.5237 -1.0724 -0.3511
18609SOL    HW256961   8.089   0.507   3.125 -0.5174 -0.8246 -0.6728
18610SOL     OW56962   4.819   4.490   8.146 -0.3332 -0.3382  0.2891
18610SOL    HW156963   4.776   4.407   8.165 -0.0692 -0.2167  1.5011
18610SOL    HW256964   4.913   4.471   8.153 -0.2142 -0.2152 -0.6991
18611SOL     OW56965   2.895   3.137   1.988 -0.1500  0.3541  0.4006
18611SOL    HW156966   2.873   3.230   1.991 -1.7220  0.0227  0.4731
18611SOL    HW256967   2.889   3.115   1.895 -0.2737  0.2203  0.4409
18612SOL     OW56968   2.730   2.932   8.492 -0.0822 -0.4061 -0.1809
18612SOL    HW156969   2.807   2.919   8.437 -0.9268  0.3601 -1.5911
18612SOL    HW256970   2.663   2.874   8.456  0.1332 -1.9774  1.7761
18613SOL     OW56971   3.217   5.752   1.740 -0.1785  0.0076 -0.2289
18613SOL    HW156972   3.223   5.661   1.713 -0.4186 -1.3882  3.8063
18613SOL    HW256973   3.307   5.779   1.756  0.0497  1.1147 -2.7988
18614SOL     OW56974   3.093   8.563   0.524 -0.0677 -0.3283 -0.5411
18614SOL    HW156975   3.115   8.550   0.616  2.3700  1.0013 -0.8838
18614SOL    HW256976   3.158   8.512   0.476 -0.6119 -0.0965 -1.5551
18615SOL     OW56977   8.147   0.876   7.373 -0.5900  0.0206 -0.6222
18615SOL    HW156978   8.223   0.818   7.379 -0.3890  0.2437 -0.9709
18615SOL    HW256979   8.185   0.963   7.359 -0.9274 -0.0547 -2.2467
18616SOL     OW56980   4.832   7.590   3.746 -0.2417  0.6163  0.0562
18616SOL    HW156981   4.879   7.655   3.694  1.1071  0.5167  1.1104
18616SOL    HW256982   4.780   7.641   3.808 -0.7136  0.7063 -0.4054
18617SOL     OW56983   2.395   7.541   5.960 -0.3901  0.8577 -0.3191
18617SOL    HW156984   2.388   7.465   5.901  0.9260  1.2238 -0.9982
18617SOL    HW256985   2.434   7.505   6.040 -2.0684  0.3819  0.3263
18618SOL     OW56986   1.383   1.298   4.431 -0.5508  0.6647  0.4856
18618SOL    HW156987   1.426   1.377   4.399  1.3966 -0.6920 -0.4087
18618SOL    HW256988   1.348   1.255   4.353  0.8879 -0.7372  0.5543
18619SOL     OW56989   2.917   7.247   0.565 -0.0743 -0.2960 -0.4592
18619SOL    HW156990   2.919   7.202   0.649 -0.3336 -0.4181 -0.5170
18619SOL    HW256991   3.009   7.268   0.547  0.2536 -2.0006 -1.0530
18620SOL     OW56992   3.181   3.574   2.903 -0.4089 -0.4773 -0.1146
18620SOL    HW156993   3.114   3.561   2.836 -0.9185 -1.0545  0.4880
18620SOL    HW256994   3.235   3.646   2.870 -2.8651  1.8333  0.5780
18621SOL     OW56995   3.651   4.768   1.372 -0.7801 -0.1086  0.5673
18621SOL    HW156996   3.688   4.764   1.284  1.6144  0.9654  1.4431
18621SOL    HW256997   3.581   4.834   1.366  0.1513  0.8369 -0.2885
18622SOL     OW56998   3.861   2.396   1.919 -0.5688  0.3337  0.8055
18622SOL    HW156999   3.887   2.388   2.011  0.5322  3.2624  0.8658
18622SOL    HW257000   3.771   2.428   1.922 -0.4950  0.5339  0.8478
18623SOL     OW57001   0.416   4.978   1.781  0.4116 -0.3751  0.8638
18623SOL    HW157002   0.419   4.910   1.848 -1.1562 -0.8805  0.4601
18623SOL    HW257003   0.374   5.053   1.824  1.4460  0.1030  1.0822
18624SOL     OW57004   0.383   3.669   1.122  0.7259 -0.2643  0.4363
18624SOL    HW157005   0.472   3.691   1.094  0.7016 -1.0402 -0.2684
18624SOL    HW257006   0.395   3.621   1.204  0.9526 -0.3315  0.3643
18625SOL     OW57007   4.707   7.344   6.411  0.5035 -0.2418  0.5858
18625SOL    HW157008   4.668   7.392   6.338  2.7657  1.0220  0.1071
18625SOL    HW257009   4.769   7.284   6.370  1.7801  0.4618  1.3939
18626SOL     OW57010   0.577   3.030   4.952 -0.1868  0.7618 -0.1906
18626SOL    HW157011   0.628   2.957   4.916  1.2724  0.5526  2.1026
18626SOL    HW257012   0.493   2.992   4.976  0.2522  0.0202  0.1969
18627SOL     OW57013   1.905   3.484   3.938  0.2945  0.1658  0.3600
18627SOL    HW157014   1.933   3.517   4.023  1.0315  1.3463 -0.3051
18627SOL    HW257015   1.971   3.419   3.914  0.8204  0.7687  0.1345
18628SOL     OW57016   3.831   6.324   8.784 -0.0429  0.1354 -0.1291
18628SOL    HW157017   3.789   6.239   8.772  2.0826 -1.5493  2.8915
18628SOL    HW257018   3.829   6.338   8.879  1.1652  2.6383 -0.4099
18629SOL     OW57019   4.464   8.834   5.666  0.0695  0.5153  0.0722
18629SOL    HW157020   4.556   8.858   5.680  1.0097 -1.9108 -1.3145
18629SOL    HW257021   4.428   8.827   5.754  1.4200  0.7529  0.6758
18630SOL     OW57022   0.325   5.208   3.025  0.0616 -0.2455  0.8096
18630SOL    HW157023   0.292   5.124   3.056 -0.7779  0.4691  1.8967
18630SOL    HW257024   0.257   5.241   2.966 -0.5647  0.5666  1.9410
18631SOL     OW57025   0.088   3.407   0.040  0.4162  0.0644  0.2099
18631SOL    HW157026   0.129   3.381   0.122 -0.3960 -2.3093 -0.0552
18631SOL    HW257027   0.032   3.333   0.016  1.1242  0.3461 -2.8243
18632SOL     OW57028   6.243   7.956   6.070  0.4507  0.0456  0.5617
18632SOL    HW157029   6.263   8.047   6.091  0.9630  0.1637 -0.3866
18632SOL    HW257030   6.326   7.919   6.040 -0.2394 -0.0661 -1.3403
18633SOL     OW57031   3.796   4.379   0.413  0.5471 -0.1571 -0.2850
18633SOL    HW157032   3.764   4.320   0.481 -0.2805 -0.8925 -1.2747
18633SOL    HW257033   3.717   4.424   0.383  1.1062  1.1854  0.1718
18634SOL     OW57034   5.379   7.746   8.481  0.3090 -0.6791  0.3754
18634SOL    HW157035   5.437   7.813   8.445 -1.1388 -0.3710 -1.5615
18634SOL    HW257036   5.434   7.667   8.486  1.4265  0.0986  0.5445
18635SOL     OW57037   3.684   4.153   4.914  0.0692  0.3770  0.2849
18635SOL    HW157038   3.661   4.215   4.983 -0.0709  0.2703  0.3338
18635SOL    HW257039   3.655   4.196   4.833  2.3166  1.5613  0.0269
18636SOL     OW57040   0.717   0.915   5.758  0.3206  0.1680 -0.0299
18636SOL    HW157041   0.623   0.903   5.752  0.2801  0.5725 -0.2909
18636SOL    HW257042   0.755   0.833   5.726  0.0709 -0.8861  2.1711
18637SOL     OW57043   2.684   4.230   2.942 -0.1709  0.2628 -0.3087
18637SOL    HW157044   2.645   4.301   2.890  0.1265  0.5975 -0.0731
18637SOL    HW257045   2.723   4.274   3.017  0.6754 -0.0718 -0.5455
18638SOL     OW57046   4.800   0.744   0.122 -0.0223  0.1248 -0.2053
18638SOL    HW157047   4.730   0.799   0.087 -1.2361 -1.6392 -0.7260
18638SOL    HW257048   4.856   0.726   0.048  1.2056  1.7542  0.2681
18639SOL     OW57049   0.308   6.496   5.700  0.3222  0.7789 -0.0718
18639SOL    HW157050   0.378   6.431   5.696 -2.4997 -2.5918  0.3008
18639SOL    HW257051   0.327   6.547   5.778  2.9472  0.8553 -0.6730
18640SOL     OW57052   1.018   6.137   5.040  0.5673  0.1187  0.1036
18640SOL    HW157053   0.947   6.201   5.037 -0.5861 -1.1219 -2.9441
18640SOL    HW257054   1.098   6.190   5.035 -0.3618  1.4541 -3.7057
18641SOL     OW57055   1.626   1.463   9.003  0.3801 -0.4589 -0.5559
18641SOL    HW157056   1.553   1.410   9.033  1.5027 -1.2412  0.9268
18641SOL    HW257057   1.626   1.539   9.060 -0.3279  0.4665 -1.7264
18642SOL     OW57058   5.669   8.541   4.042  0.2990  0.3361  0.2356
18642SOL    HW157059   5.634   8.626   4.067  0.1619  0.1596  0.6575
18642SOL    HW257060   5.760   8.559   4.017 -0.1065  0.8176 -1.0011
18643SOL     OW57061   4.492   3.821   1.550  0.3075 -0.1315 -0.4929
18643SOL    HW157062   4.532   3.734   1.558  1.8763  0.6591  1.5070
18643SOL    HW257063   4.549   3.868   1.489  0.1090 -0.1781 -0.7144
18644SOL     OW57064   6.358   1.890   0.200  0.4994 -0.0332  0.1169
18644SOL    HW157065   6.350   1.836   0.279 -0.4251  0.2441  0.2222
18644SOL    HW257066   6.401   1.832   0.136  0.6234 -0.4888  0.6008
18645SOL     OW57067   2.943   0.072   5.308  0.0583 -0.2510  0.4356
18645SOL    HW157068   3.013   0.058   5.372  0.5862  2.3377  0.4986
18645SOL    HW257069   2.968   0.018   5.233  1.2634 -0.6131  1.0759
18646SOL     OW57070   1.059   1.972   8.774 -0.6355 -0.0053 -0.2346
18646SOL    HW157071   1.033   2.010   8.858  0.0403  0.1341 -0.0885
18646SOL    HW257072   1.027   1.882   8.778 -1.5450  0.3024 -0.2625
18647SOL     OW57073   0.172   8.707   6.834  0.0838  0.0200  0.4371
18647SOL    HW157074   0.259   8.719   6.873  1.0758 -3.0339 -0.5254
18647SOL    HW257075   0.131   8.793   6.840  2.4574  1.1432  2.5974
18648SOL     OW57076   6.521   5.460   8.127 -0.1762 -0.0753  0.0025
18648SOL    HW157077   6.491   5.551   8.131  1.0820  0.4969 -1.9668
18648SOL    HW257078   6.614   5.464   8.148  0.0254 -0.7918 -0.6885
18649SOL     OW57079   1.156   4.788   0.374  0.3353  0.1359 -1.0033
18649SOL    HW157080   1.155   4.734   0.295 -1.3730 -1.1450 -0.1949
18649SOL    HW257081   1.248   4.812   0.386  0.8638 -0.9709 -2.4891
18650SOL     OW57082   6.383   2.437   8.907  0.2155 -0.2410  0.0435
18650SOL    HW157083   6.454   2.380   8.879 -0.9563 -1.6604 -0.1692
18650SOL    HW257084   6.426   2.509   8.953  1.7221 -1.4420  0.5809
18651SOL     OW57085   2.647   0.302   3.261  0.4291 -0.4970 -0.2246
18651SOL    HW157086   2.587   0.251   3.206  1.1458  0.0466 -1.5637
18651SOL    HW257087   2.669   0.243   3.333 -0.4882 -1.2653 -0.5452
18652SOL     OW57088   2.553   7.482   6.206  0.6549  0.1758 -0.2121
18652SOL    HW157089   2.631   7.435   6.235  0.6888  1.1815  1.4163
18652SOL    HW257090   2.519   7.524   6.284  0.5266  2.7322 -1.5266
18653SOL     OW57091   8.150   5.915   0.215 -0.1684 -0.1510 -0.1153
18653SOL    HW157092   8.123   5.981   0.151 -0.3357 -1.1617 -1.1356
18653SOL    HW257093   8.074   5.857   0.222  1.1811 -2.3477 -2.1058
18654SOL     OW57094   5.906   1.793   1.152  0.0425 -0.1153  0.5927
18654SOL    HW157095   5.857   1.874   1.168  0.6107  0.1333  1.1063
18654SOL    HW257096   5.849   1.724   1.185  0.6382  0.2862  2.5919
18655SOL     OW57097   8.489   7.788   6.538  0.2896  0.2545 -0.5671
18655SOL    HW157098   8.528   7.850   6.476  0.6511  0.6906  0.0744
18655SOL    HW257099   8.553   7.718   6.546 -0.7457 -0.9573 -2.3790
18656SOL     OW57100   8.055   3.783   3.346 -0.1177  0.2389 -0.3744
18656SOL    HW157101   8.130   3.723   3.341  0.3424  0.7061  0.6656
18656SOL    HW257102   8.058   3.831   3.263  1.2479  0.8208 -0.0250
18657SOL     OW57103   7.953   3.361   1.572  0.6255 -0.0631 -0.3952
18657SOL    HW157104   7.925   3.448   1.600 -0.4415 -0.4768 -0.1180
18657SOL    HW257105   7.988   3.374   1.483  1.9069  0.8786  0.2121
18658SOL     OW57106   2.679   0.093   3.485  0.4608  0.7076  0.1778
18658SOL    HW157107   2.652   0.029   3.551  1.8551  1.0346  1.1239
18658SOL    HW257108   2.707   0.169   3.537 -0.3458  1.7705 -0.8879
18659SOL     OW57109   5.650   7.331   6.512 -0.1837  0.1769  0.3209
18659SOL    HW157110   5.650   7.291   6.425 -0.6854  0.3282  0.2516
18659SOL    HW257111   5.558   7.347   6.532 -0.2403 -1.4419  1.6004
18660SOL     OW57112   2.155   3.611   7.708 -0.0041 -0.1865 -0.5759
18660SOL    HW157113   2.136   3.579   7.796  0.3403  0.0456 -0.4168
18660SOL    HW257114   2.069   3.615   7.665  0.0195 -2.3752 -0.9790
18661SOL     OW57115   0.007   0.771   3.999 -0.3603  0.2159  0.2645
18661SOL    HW157116   0.011   0.703   4.066 -2.2947 -0.4982 -0.2584
18661SOL    HW257117  -0.006   0.852   4.048 -0.3132 -0.1005  0.8100
18662SOL     OW57118   2.669   7.314   8.396 -0.2910  0.1587  0.5022
18662SOL    HW157119   2.699   7.370   8.468 -0.1835  0.6687  0.0701
18662SOL    HW257120   2.710   7.229   8.413  0.1626  0.4236  0.7539
18663SOL     OW57121   6.510   2.096   4.289 -0.4196  0.0950 -0.5500
18663SOL    HW157122   6.418   2.088   4.266 -0.6666  1.3365 -0.1194
18663SOL    HW257123   6.513   2.171   4.349  0.9114  0.2746 -0.8063
18664SOL     OW57124   2.585   8.771   0.043 -0.4859 -0.1134 -0.1077
18664SOL    HW157125   2.594   8.804   0.133 -0.3517  1.6467 -0.7403
18664SOL    HW257126   2.500   8.802   0.014 -0.7080 -1.0258 -0.4763
18665SOL     OW57127   2.337   2.113   4.780 -0.4904 -0.1662  0.5583
18665SOL    HW157128   2.298   2.038   4.826  0.6331 -0.6013  0.8547
18665SOL    HW257129   2.279   2.186   4.799 -0.8355 -0.6635  1.4761
18666SOL     OW57130   0.811   3.414   0.408 -0.4299 -0.5358 -0.0906
18666SOL    HW157131   0.894   3.402   0.363 -0.3069 -1.3810  0.3499
18666SOL    HW257132   0.833   3.470   0.483 -0.3072 -0.5701 -0.1009
18667SOL     OW57133   1.316   3.667   7.259  0.2661  0.3839 -0.1482
18667SOL    HW157134   1.347   3.708   7.178  0.4241  0.1232 -0.2208
18667SOL    HW257135   1.221   3.678   7.255  0.3227  0.9516 -0.0503
18668SOL     OW57136   4.458   3.744   3.910 -0.3631  0.4739 -0.2323
18668SOL    HW157137   4.461   3.669   3.851 -0.9216  0.1429  0.1516
18668SOL    HW257138   4.543   3.745   3.953  0.0137  0.6573 -0.9553
18669SOL     OW57139   2.490   7.255   5.551  0.4795 -0.6107  0.1295
18669SOL    HW157140   2.539   7.211   5.621  1.6689 -0.3750 -0.5391
18669SOL    HW257141   2.416   7.197   5.533  0.7903 -1.2232  0.7994
18670SOL     OW57142   1.764   7.402   5.007  0.3025  0.3141  0.0068
18670SOL    HW157143   1.686   7.428   5.055  1.0844  1.3609  0.7620
18670SOL    HW257144   1.837   7.421   5.067  1.0159 -3.9034  0.7874
18671SOL     OW57145   4.041   7.940   3.335 -0.8360 -0.1618  0.3827
18671SOL    HW157146   3.951   7.962   3.359 -0.8101 -0.6977  1.0314
18671SOL    HW257147   4.049   7.847   3.357 -0.0254 -0.0389  0.6537
18672SOL     OW57148   0.929   4.358   5.687  0.5513 -0.0877 -0.2164
18672SOL    HW157149   0.954   4.451   5.686 -1.6274  0.6036  1.4562
18672SOL    HW257150   0.867   4.351   5.759 -1.9439 -2.1647 -2.3605
18673SOL     OW57151   7.927   8.902   9.104  0.0274 -0.6329  0.3375
18673SOL    HW157152   7.890   8.946   9.028  1.2713 -0.2238 -0.0500
18673SOL    HW257153   8.012   8.869   9.074  1.5011  1.3296  2.0720
18674SOL     OW57154   1.357   8.788   2.947  0.2671 -0.6117 -0.0932
18674SOL    HW157155   1.302   8.717   2.981  0.6293 -0.8476  0.0060
18674SOL    HW257156   1.378   8.762   2.857 -1.3764  0.4074 -0.8182
18675SOL     OW57157   0.177   7.699   7.084 -0.6270 -0.7006  0.0948
18675SOL    HW157158   0.120   7.685   7.160 -0.0873  0.7563  0.8213
18675SOL    HW257159   0.188   7.794   7.080  2.3272 -0.9170  0.4630
18676SOL     OW57160   0.696   3.276   8.765  0.1912 -0.2435  0.1830
18676SOL    HW157161   0.635   3.318   8.705 -1.7125  1.1704  2.8643
18676SOL    HW257162   0.662   3.188   8.776 -0.0951 -0.1557  0.0181
18677SOL     OW57163   9.000   8.291   4.025 -0.0670  0.2743  0.6433
18677SOL    HW157164   8.935   8.237   4.070 -2.1428  1.8588 -0.2370
18677SOL    HW257165   9.012   8.366   4.084 -1.3964  1.4547 -0.5229
18678SOL     OW57166   8.174   1.533   5.332  0.3063 -0.1290  0.0528
18678SOL    HW157167   8.263   1.566   5.347  0.3954  0.0900 -0.8662
18678SOL    HW257168   8.157   1.474   5.405  0.8918  0.4659  0.6865
18679SOL     OW57169   8.263   2.703   5.669  0.2233 -0.0932  0.4924
18679SOL    HW157170   8.191   2.736   5.615  0.9790  0.5728 -0.1180
18679SOL    HW257171   8.221   2.680   5.752 -0.8381 -0.5170 -0.1379
18680SOL     OW57172   7.723   6.873   5.697  0.2660  0.1281  0.1284
18680SOL    HW157173   7.722   6.935   5.770  1.1440  0.2878  0.0197
18680SOL    HW257174   7.674   6.797   5.729 -0.5917  0.7737  0.3584
18681SOL     OW57175   3.802   5.558   5.669 -0.1007  0.1193 -0.3022
18681SOL    HW157176   3.840   5.617   5.735 -0.2412 -0.1398  0.0122
18681SOL    HW257177   3.873   5.499   5.646 -0.6090 -1.1459  1.1753
18682SOL     OW57178   5.775   5.198   4.224  0.4965  0.1832 -0.2242
18682SOL    HW157179   5.718   5.246   4.285  0.8591  0.7204 -0.3044
18682SOL    HW257180   5.863   5.210   4.258  0.6466  0.0318 -0.5522
18683SOL     OW57181   5.173   7.662   1.730  0.2070  0.3265  0.3623
18683SOL    HW157182   5.176   7.679   1.636  0.8246  1.8127  0.6262
18683SOL    HW257183   5.264   7.670   1.759 -0.0171  0.2163  1.1341
18684SOL     OW57184   6.515   2.365   2.921  0.1087 -0.2299 -0.1421
18684SOL    HW157185   6.554   2.360   3.008 -1.2035  0.4246  0.5277
18684SOL    HW257186   6.588   2.381   2.862  1.2214 -2.2510  0.6224
18685SOL     OW57187   2.826   8.476   7.474 -0.4863  0.0012  0.1562
18685SOL    HW157188   2.767   8.543   7.439  1.9519  2.6974  0.8127
18685SOL    HW257189   2.829   8.493   7.568  0.2128 -0.9968  0.3285
18686SOL     OW57190   6.437   1.667   4.990 -0.0404 -0.0190 -0.0205
18686SOL    HW157191   6.428   1.648   5.083 -0.2184  0.1564 -0.0004
18686SOL    HW257192   6.347   1.670   4.957  0.0370 -0.5591 -0.2980
18687SOL     OW57193   6.113   5.399   7.577  0.6037  0.1934  0.2521
18687SOL    HW157194   6.126   5.473   7.517 -1.5938  1.2540  0.9647
18687SOL    HW257195   6.074   5.331   7.523  1.1760  0.1349 -0.0877
18688SOL     OW57196   1.059   1.208   8.356  0.1983 -0.4757 -0.5206
18688SOL    HW157197   1.121   1.282   8.359  0.7528 -0.9431 -0.1655
18688SOL    HW257198   1.096   1.144   8.416  0.7731 -1.8534 -2.2690
18689SOL     OW57199   6.513   1.076   3.437  0.3390  0.2165  0.0662
18689SOL    HW157200   6.489   0.984   3.430 -1.2771  0.5668  0.5330
18689SOL    HW257201   6.505   1.096   3.530 -0.0890  1.0099 -0.1301
18690SOL     OW57202   6.297   6.853   8.980 -0.2162  0.2325 -0.3236
18690SOL    HW157203   6.354   6.807   9.042  0.7137  1.3580 -0.3236
18690SOL    HW257204   6.324   6.820   8.894 -1.6828 -1.5250 -0.1685
18691SOL     OW57205   1.691   7.174   2.952  0.0951  0.7000 -0.5886
18691SOL    HW157206   1.693   7.256   2.904  0.7032  1.6756  1.0321
18691SOL    HW257207   1.681   7.107   2.885  0.3779  2.0346 -2.0099
18692SOL     OW57208   4.827   7.741   7.306  0.5079  0.0961 -0.3460
18692SOL    HW157209   4.823   7.837   7.304 -0.3536  0.0670 -0.7554
18692SOL    HW257210   4.881   7.721   7.382  0.6486  0.9087 -0.2178
18693SOL     OW57211   7.346   3.072   6.780  0.1104 -0.2142 -0.2144
18693SOL    HW157212   7.388   3.129   6.715  0.4458  1.1376  1.1476
18693SOL    HW257213   7.256   3.103   6.786  0.0694 -0.3589 -0.0501
18694SOL     OW57214   1.057   3.369   2.611  0.3253 -0.3975 -0.0224
18694SOL    HW157215   0.991   3.366   2.542  0.3465  0.1335 -0.0660
18694SOL    HW257216   1.023   3.433   2.674  0.6814 -0.3059  0.0757
18695SOL     OW57217   8.906   6.770   4.754 -0.0928  0.2904  0.1521
18695SOL    HW157218   8.945   6.716   4.685 -1.0803  0.3352 -0.4504
18695SOL    HW257219   8.840   6.822   4.710  0.1295  1.2502  0.9200
18696SOL     OW57220   3.172   6.963   4.384  0.7095 -0.0161 -0.0629
18696SOL    HW157221   3.085   6.981   4.348  1.3905  2.2278 -0.8283
18696SOL    HW257222   3.212   6.904   4.321  0.2336  0.0997 -0.4811
18697SOL     OW57223   2.777   6.629   4.953  0.3418 -0.2719 -0.3180
18697SOL    HW157224   2.685   6.622   4.981 -0.7023  2.8371 -2.3034
18697SOL    HW257225   2.819   6.678   5.023 -0.0178 -0.1133 -0.2075
18698SOL     OW57226   3.325   3.913   8.462  0.1623  0.1595 -0.0547
18698SOL    HW157227   3.229   3.908   8.460  0.1601  0.3984 -1.5344
18698SOL    HW257228   3.353   3.860   8.387  1.2679 -1.0410  1.1506
18699SOL     OW57229   4.912   7.453   1.539  0.2713  0.1952  0.0188
18699SOL    HW157230   4.993   7.411   1.568  0.4013  0.9209  0.7118
18699SOL    HW257231   4.853   7.380   1.518  0.2720 -0.3467  1.8105
18700SOL     OW57232   1.462   2.713   4.355 -0.6750  0.3585 -0.6460
18700SOL    HW157233   1.513   2.736   4.432 -0.3155  1.5056 -1.2122
18700SOL    HW257234   1.437   2.621   4.370  0.5365  0.1374  0.1856
18701SOL     OW57235   0.121   6.698   0.448  0.4494  0.0202 -0.5017
18701SOL    HW157236   0.124   6.705   0.353 -0.4987 -1.0419 -0.6185
18701SOL    HW257237   0.055   6.761   0.475  1.7994  1.4595 -0.3837
18702SOL     OW57238   4.871   3.880   2.080  0.1286  0.0499  0.0640
18702SOL    HW157239   4.854   3.960   2.030  1.8014 -0.1663 -0.8984
18702SOL    HW257240   4.812   3.815   2.042  0.0761  0.3568 -0.3818
18703SOL     OW57241   4.472   2.619   4.838 -0.1499  0.3162  0.3886
18703SOL    HW157242   4.424   2.689   4.794 -2.4657 -1.8689 -0.8192
18703SOL    HW257243   4.413   2.544   4.836  2.8810 -2.2955 -0.1261
18704SOL     OW57244   6.802   7.730   5.352 -0.3341 -0.8222 -0.0777
18704SOL    HW157245   6.736   7.731   5.421 -0.7132  2.6950 -0.2783
18704SOL    HW257246   6.752   7.733   5.270 -0.1283  2.2613 -0.2253
18705SOL     OW57247   5.755   5.756   5.666 -0.3116  0.2557 -0.1694
18705SOL    HW157248   5.724   5.813   5.736 -0.3912  0.3935 -0.3165
18705SOL    HW257249   5.772   5.815   5.592 -1.6326 -0.0498 -0.7501
18706SOL     OW57250   8.679   2.164   3.442  0.2910  0.2422  0.1414
18706SOL    HW157251   8.634   2.166   3.357  0.1084 -0.7972  0.1968
18706SOL    HW257252   8.613   2.129   3.503  0.3603  1.1503  0.7552
18707SOL     OW57253   7.374   0.552   4.053 -0.2735 -0.0273  0.2247
18707SOL    HW157254   7.424   0.471   4.043 -1.8723 -0.9936 -0.3223
18707SOL    HW257255   7.289   0.533   4.012 -0.7074  1.9148  0.1215
18708SOL     OW57256   6.374   4.770   1.005  0.0714  0.0551 -0.1781
18708SOL    HW157257   6.390   4.833   1.075 -1.5367  1.3132 -0.8580
18708SOL    HW257258   6.318   4.703   1.046  0.2066  0.0951  0.0744
18709SOL     OW57259   8.450   5.784   5.705  0.0712  0.2779 -0.1984
18709SOL    HW157260   8.509   5.829   5.644 -0.4894 -0.5131 -1.3612
18709SOL    HW257261   8.364   5.822   5.688 -0.0153  0.3490  0.4032
18710SOL     OW57262   5.872   3.821   7.566 -0.2996 -0.1560  0.1036
18710SOL    HW157263   5.842   3.911   7.551 -0.8506 -0.4136 -0.3627
18710SOL    HW257264   5.824   3.769   7.502 -0.1185 -0.8120  0.4964
18711SOL     OW57265   1.263   3.064   7.616  0.4878 -0.1528 -0.0506
18711SOL    HW157266   1.252   3.043   7.523 -0.4970  1.0870 -0.2459
18711SOL    HW257267   1.281   2.980   7.657 -4.1849 -1.7644 -0.6478
18712SOL     OW57268   1.957   5.591   2.613 -0.1382 -0.2286 -0.0305
18712SOL    HW157269   2.002   5.552   2.689 -2.0466 -0.2387  1.1473
18712SOL    HW257270   1.895   5.523   2.585 -1.4202  0.8148  0.1982
18713SOL     OW57271   4.528   0.146   2.248  0.2836 -0.6191  0.1136
18713SOL    HW157272   4.446   0.096   2.241  1.4161 -2.5873  0.3243
18713SOL    HW257273   4.518   0.197   2.329 -1.4525  0.6191 -0.8206
18714SOL     OW57274   3.979   5.363   7.904  0.0090 -0.2116  0.5726
18714SOL    HW157275   3.934   5.409   7.975  0.1280 -0.3159  0.7174
18714SOL    HW257276   4.038   5.302   7.949 -0.4834 -0.8307  0.3760
18715SOL     OW57277   6.423   5.476   7.856 -0.2783  0.4506  0.3271
18715SOL    HW157278   6.368   5.497   7.931  1.0186 -0.2557  1.5159
18715SOL    HW257279   6.498   5.535   7.864  0.7242 -0.8120  0.6172
18716SOL     OW57280   1.110   3.897   6.926 -0.1334  0.0514 -0.9158
18716SOL    HW157281   1.180   3.962   6.926  0.0014 -0.0895 -1.3263
18716SOL    HW257282   1.041   3.935   6.982  0.4260  0.0176 -0.1857
18717SOL     OW57283   6.898   0.632   4.315  0.3222  0.0713 -0.4866
18717SOL    HW157284   6.821   0.646   4.370  0.1481  0.0499 -0.7220
18717SOL    HW257285   6.972   0.646   4.373  0.1441 -0.8271 -0.0194
18718SOL     OW57286   2.730   6.518   2.668  0.1533 -0.8941 -0.1513
18718SOL    HW157287   2.818   6.521   2.707  0.8765 -3.2812 -1.3425
18718SOL    HW257288   2.671   6.513   2.742  1.1003 -0.2496  0.6779
18719SOL     OW57289   4.949   8.418   5.418  0.3560  0.3700 -0.5163
18719SOL    HW157290   5.001   8.476   5.362  1.7375  0.6843  1.0415
18719SOL    HW257291   4.932   8.468   5.497 -1.3863 -0.1534 -0.5060
18720SOL     OW57292   8.891   8.434   8.921  0.0550  0.1281  0.1869
18720SOL    HW157293   8.821   8.377   8.953  1.6722 -1.1462  1.5966
18720SOL    HW257294   8.958   8.374   8.889  1.1743  1.2837  0.2996
18721SOL     OW57295   0.229   7.053   1.843 -0.0550 -0.4044 -0.1351
18721SOL    HW157296   0.276   7.004   1.775 -0.5474 -1.0743 -0.0021
18721SOL    HW257297   0.258   7.143   1.832 -0.5032 -0.4128 -1.5670
18722SOL     OW57298   6.449   0.500   5.531  0.1344  0.7669  0.2841
18722SOL    HW157299   6.461   0.406   5.540 -0.0291  0.6580 -0.5514
18722SOL    HW257300   6.406   0.511   5.446  2.2355  1.7639 -0.7158
18723SOL     OW57301   2.229   3.697   9.069  0.2790  0.0338 -0.2187
18723SOL    HW157302   2.228   3.611   9.109  0.2728  0.3792  0.5324
18723SOL    HW257303   2.140   3.731   9.082  0.8039  0.9431  1.2589
18724SOL     OW57304   1.012   6.703   7.870 -0.0436 -0.3256 -0.2858
18724SOL    HW157305   0.944   6.762   7.838 -0.0836  0.8765  1.8143
18724SOL    HW257306   1.004   6.625   7.815 -2.4996  0.1359 -0.7100
18725SOL     OW57307   8.434   8.793   5.891  0.6118  0.0736 -0.2289
18725SOL    HW157308   8.503   8.786   5.825  0.9371  1.1806 -0.0316
18725SOL    HW257309   8.477   8.771   5.973  0.6238  0.3366 -0.1638
18726SOL     OW57310   2.941   3.149   4.384  0.6858  0.1843  0.1253
18726SOL    HW157311   2.924   3.241   4.405  1.8060  0.1257  1.3999
18726SOL    HW257312   2.991   3.116   4.458 -1.7739 -2.1454  0.9062
18727SOL     OW57313   6.391   6.154   5.721 -0.5746 -0.0294  0.4532
18727SOL    HW157314   6.393   6.114   5.808 -4.0354  0.6805  1.0117
18727SOL    HW257315   6.362   6.084   5.663 -1.5473  0.3149  0.5062
18728SOL     OW57316   5.330   8.737   7.740 -0.2705  0.3139 -1.0124
18728SOL    HW157317   5.425   8.741   7.753 -0.3240 -1.6066  0.4197
18728SOL    HW257318   5.305   8.826   7.716  1.6467  1.3364  0.4930
18729SOL     OW57319   3.513   4.661   0.576 -0.2792  0.5629  0.6211
18729SOL    HW157320   3.480   4.744   0.540 -1.7929 -0.1005  0.4389
18729SOL    HW257321   3.467   4.593   0.527  1.1881 -0.4195  0.5359
18730SOL     OW57322   6.914   6.595   6.943  0.1211 -0.2645 -0.7494
18730SOL    HW157323   6.956   6.514   6.973 -0.5369 -0.3654 -0.0594
18730SOL    HW257324   6.980   6.638   6.888  1.5105  0.0559  1.0707
18731SOL     OW57325   8.686   1.114   4.546  0.2897 -0.2205 -0.0640
18731SOL    HW157326   8.607   1.165   4.531 -1.2438 -1.7177  2.3597
18731SOL    HW257327   8.719   1.144   4.631  3.4569  1.6056 -1.7123
18732SOL     OW57328   7.170   3.487   6.789 -0.2648 -0.4042  0.1568
18732SOL    HW157329   7.166   3.582   6.801  1.8543 -0.0628 -1.2921
18732SOL    HW257330   7.255   3.462   6.825  0.7706 -1.1572 -2.5448
18733SOL     OW57331   2.048   8.979   1.508 -0.6036  0.3203  0.3293
18733SOL    HW157332   2.035   8.890   1.477 -1.6391  1.0681 -1.5575
18733SOL    HW257333   1.983   8.990   1.578 -1.4454  0.0152 -0.3815
18734SOL     OW57334   0.463   5.430   7.121  0.2442 -0.6338 -0.4370
18734SOL    HW157335   0.557   5.428   7.140 -0.0174 -0.8589  0.9326
18734SOL    HW257336   0.425   5.371   7.185 -0.9428  0.2383 -0.3081
18735SOL     OW57337   7.105   8.239   6.797 -0.0081 -0.7678  0.5738
18735SOL    HW157338   7.108   8.236   6.893 -0.7125 -1.4059  0.5859
18735SOL    HW257339   7.050   8.164   6.772  0.7714 -1.0412 -0.3699
18736SOL     OW57340   9.085   2.757   4.861 -0.5088 -0.4238  0.1507
18736SOL    HW157341   9.180   2.763   4.855 -0.5261 -1.4410 -1.6373
18736SOL    HW257342   9.066   2.777   4.953  1.3578  0.4212  0.4031
18737SOL     OW57343   6.480   4.337   3.825  0.0186  0.0721 -0.0191
18737SOL    HW157344   6.509   4.410   3.880  0.5838 -0.2886  0.1693
18737SOL    HW257345   6.561   4.294   3.798 -0.3260 -0.9441  0.5052
18738SOL     OW57346   5.702   3.664   4.722 -0.2990  0.0461 -0.1438
18738SOL    HW157347   5.703   3.754   4.755  0.8634  0.1841 -0.4978
18738SOL    HW257348   5.622   3.626   4.759 -0.2668  0.9046  0.8756
18739SOL     OW57349   7.408   8.216   1.101  0.2189  0.0308 -0.1442
18739SOL    HW157350   7.470   8.146   1.120 -0.1423 -0.2446  0.0154
18739SOL    HW257351   7.332   8.172   1.063 -0.5277  0.1895  1.1267
18740SOL     OW57352   4.360   3.695   8.321  0.3443  0.7267  0.0001
18740SOL    HW157353   4.391   3.612   8.282 -1.6428 -0.0819  0.0182
18740SOL    HW257354   4.393   3.693   8.410  1.9453  0.9010 -0.5522
18741SOL     OW57355   3.007   8.074   4.039 -0.1477 -0.0285  0.4591
18741SOL    HW157356   3.009   7.984   4.072 -1.7451  0.3520  1.7393
18741SOL    HW257357   3.094   8.109   4.059  0.0967 -0.9295  1.0456
18742SOL     OW57358   2.940   4.466   5.912 -0.7909 -0.7561  0.7326
18742SOL    HW157359   2.864   4.439   5.963  0.6885 -0.7172  3.1088
18742SOL    HW257360   2.997   4.389   5.911 -0.4689 -0.5211 -0.2653
18743SOL     OW57361   5.388   5.939   7.226  0.4922  0.4232 -0.3128
18743SOL    HW157362   5.342   5.969   7.148  1.8882  1.4193 -0.7853
18743SOL    HW257363   5.463   5.998   7.234  0.2470  0.5258  1.9327
18744SOL     OW57364   4.648   4.663   5.004 -0.5451 -0.1144 -0.7245
18744SOL    HW157365   4.740   4.661   5.032 -0.5625 -1.4536 -0.7320
18744SOL    HW257366   4.652   4.654   4.909 -0.7670 -4.2154 -0.4905
18745SOL     OW57367   6.616   2.170   2.503  0.0390  0.5548  0.2068
18745SOL    HW157368   6.592   2.078   2.489  0.2328  0.2419  1.7713
18745SOL    HW257369   6.686   2.167   2.569 -0.0663  1.8376  0.4025
18746SOL     OW57370   6.391   3.127   3.343  0.8688  0.0112 -0.4842
18746SOL    HW157371   6.338   3.149   3.419  1.0603 -1.5568  0.1381
18746SOL    HW257372   6.329   3.092   3.278  0.9677 -0.6748 -0.2180
18747SOL     OW57373   6.987   3.204   6.338  0.0683  0.0181  0.4963
18747SOL    HW157374   7.027   3.225   6.254 -1.3728 -0.6949 -0.4112
18747SOL    HW257375   7.015   3.274   6.396 -1.1273  2.1383 -1.3010
18748SOL     OW57376   4.722   4.148   8.015 -0.0526  0.1887 -0.0612
18748SOL    HW157377   4.758   4.212   7.954 -2.7144  2.5689  0.6902
18748SOL    HW257378   4.751   4.063   7.980  1.4680  1.6024 -2.5497
18749SOL     OW57379   2.339   6.601   6.068  0.0784  0.3428  0.2453
18749SOL    HW157380   2.367   6.679   6.020  0.5042  0.4698  0.6962
18749SOL    HW257381   2.409   6.585   6.131  0.3754 -0.8815 -0.3686
18750SOL     OW57382   3.254   5.124   7.600  0.1911  0.0546  0.8920
18750SOL    HW157383   3.214   5.055   7.652 -0.5750  0.3573  0.7084
18750SOL    HW257384   3.183   5.185   7.580  1.1858  1.9625  2.6981
18751SOL     OW57385   6.073   1.819   4.328 -0.2471 -0.2089 -0.7150
18751SOL    HW157386   6.119   1.895   4.294  0.1568 -0.7720 -1.4652
18751SOL    HW257387   6.111   1.745   4.281 -0.1209 -0.9538  0.5350
18752SOL     OW57388   8.833   7.907   4.368  0.4994  0.2117  0.3372
18752SOL    HW157389   8.840   7.821   4.410 -0.5712 -0.0074  0.0841
18752SOL    HW257390   8.810   7.887   4.277 -1.4158  0.7867  0.6528
18753SOL     OW57391   6.827   6.780   2.920  0.0530  0.2828 -0.7282
18753SOL    HW157392   6.915   6.757   2.892  0.3976 -0.0534  0.5780
18753SOL    HW257393   6.823   6.754   3.012 -0.7905  1.9989 -0.2310
18754SOL     OW57394   2.947   2.934   7.895  0.3953  0.3268 -0.1493
18754SOL    HW157395   3.023   2.963   7.946  0.7529 -0.2777 -0.3255
18754SOL    HW257396   2.960   2.972   7.808  1.2937 -1.0052 -0.6234
18755SOL     OW57397   4.314   2.890   1.166  0.1880  0.3920 -0.9202
18755SOL    HW157398   4.410   2.885   1.159  0.2853 -0.3585  0.6168
18755SOL    HW257399   4.299   2.958   1.232 -0.3655  0.7948 -1.4525
18756SOL     OW57400   3.275   0.013   4.911  0.2037  0.5559  0.1714
18756SOL    HW157401   3.238   0.102   4.905 -0.3684  0.3974  1.1779
18756SOL    HW257402   3.361   0.020   4.870 -0.1270  1.4114 -0.4039
18757SOL     OW57403   5.210   4.636   0.948 -0.0609  0.1097  0.0086
18757SOL    HW157404   5.209   4.600   0.859  0.7467  0.5740 -0.2046
18757SOL    HW257405   5.157   4.715   0.943  1.4682  1.1558 -0.5447
18758SOL     OW57406   5.644   0.972   0.994  0.0087 -0.0711 -0.4019
18758SOL    HW157407   5.662   1.061   0.963  1.0931 -0.6441 -1.4890
18758SOL    HW257408   5.608   0.927   0.917  1.0086 -1.0147 -0.3315
18759SOL     OW57409   6.314   5.434   5.758 -0.3245 -0.1063 -0.3771
18759SOL    HW157410   6.323   5.354   5.810 -1.4476 -0.4356 -0.6616
18759SOL    HW257411   6.269   5.495   5.816 -1.5623 -0.4684 -0.9110
18760SOL     OW57412   5.307   5.343   5.589  0.5943 -0.2852  0.0395
18760SOL    HW157413   5.236   5.391   5.632 -0.1484  0.5341 -2.0054
18760SOL    HW257414   5.284   5.343   5.497  1.9315 -2.3405 -0.3672
18761SOL     OW57415   7.594   8.228   3.520 -0.7763  0.1525 -0.1979
18761SOL    HW157416   7.570   8.143   3.557 -0.3712 -0.0110 -0.3062
18761SOL    HW257417   7.629   8.278   3.594 -0.9458  0.2002 -0.1491
18762SOL     OW57418   3.709   2.122   7.102 -0.1918  0.4618  0.6199
18762SOL    HW157419   3.780   2.137   7.039  0.3984  0.4504  1.2799
18762SOL    HW257420   3.740   2.051   7.157 -1.7374 -1.2800 -0.6137
18763SOL     OW57421   8.196   4.281   7.417 -0.0119  0.3098 -0.2205
18763SOL    HW157422   8.115   4.328   7.397  0.0885  0.2377 -0.8255
18763SOL    HW257423   8.251   4.347   7.459 -0.2971  0.4248 -0.0240
18764SOL     OW57424   0.933   3.097   5.362  0.2822  0.0817 -0.3521
18764SOL    HW157425   0.968   3.128   5.446 -0.8538 -1.9578  0.9736
18764SOL    HW257426   1.011   3.075   5.311  1.0006  1.1522  0.2374
18765SOL     OW57427   1.830   3.179   8.114  0.2610 -0.4229  0.1936
18765SOL    HW157428   1.792   3.262   8.142 -2.0760 -1.2327 -0.3178
18765SOL    HW257429   1.908   3.169   8.168 -0.3527  1.2706  1.4988
18766SOL     OW57430   4.045   1.187   1.718  0.0606 -0.0615 -0.0590
18766SOL    HW157431   3.982   1.257   1.739 -2.0907 -2.1184  0.8596
18766SOL    HW257432   4.130   1.225   1.738 -1.0155  2.2181  0.6057
18767SOL     OW57433   4.853   0.961   5.282  0.3339 -0.0609  0.3635
18767SOL    HW157434   4.926   1.024   5.282  0.6642 -0.4371  0.5763
18767SOL    HW257435   4.775   1.015   5.273  0.7694  0.2127 -3.2656
18768SOL     OW57436   4.303   4.934   7.690  0.6682 -0.0291 -0.6017
18768SOL    HW157437   4.381   4.891   7.725 -1.2777 -2.2328  1.4544
18768SOL    HW257438   4.299   5.018   7.734  0.6612 -0.9266  1.1911
18769SOL     OW57439   8.469   7.057   0.891 -0.3962  0.0886  0.1531
18769SOL    HW157440   8.408   7.116   0.846  0.5045  0.9985  0.0737
18769SOL    HW257441   8.531   7.031   0.823 -0.1412 -0.0624  0.4405
18770SOL     OW57442   0.667   2.069   3.192 -1.3560  0.1854  0.0055
18770SOL    HW157443   0.680   2.015   3.113  0.1077 -1.8570  1.5433
18770SOL    HW257444   0.577   2.049   3.220 -1.4795  0.0365 -0.4874
18771SOL     OW57445   7.514   3.531   8.879 -0.3743  0.0012  0.1438
18771SOL    HW157446   7.484   3.459   8.824  2.8401 -1.0323 -0.4283
18771SOL    HW257447   7.594   3.562   8.838  1.0393  0.5906  3.0647
18772SOL     OW57448   6.487   3.077   0.227  0.2818  0.6892 -0.2600
18772SOL    HW157449   6.566   3.063   0.175 -1.3990  0.6114 -2.9504
18772SOL    HW257450   6.456   3.164   0.202  0.4279  1.5233  2.1609
18773SOL     OW57451   3.450   5.334   6.194  0.4833  0.7054  0.6841
18773SOL    HW157452   3.372   5.313   6.244 -0.3011 -0.9020 -1.0674
18773SOL    HW257453   3.420   5.396   6.128  0.0015 -1.5720 -1.4284
18774SOL     OW57454   3.444   3.060   7.507 -0.1458 -0.1328  0.2977
18774SOL    HW157455   3.369   3.086   7.561 -0.2454 -2.0730  1.2118
18774SOL    HW257456   3.407   2.999   7.444  0.7728 -2.0661  1.5243
18775SOL     OW57457   6.043   6.755   8.925 -0.0477 -0.4071 -0.0073
18775SOL    HW157458   6.126   6.798   8.945 -0.4318  0.0573  0.6216
18775SOL    HW257459   6.058   6.662   8.944  0.4297 -0.3692 -0.2174
18776SOL     OW57460   4.041   7.895   0.534  0.1176  0.6985 -0.3477
18776SOL    HW157461   4.001   7.912   0.448 -0.6875  1.1145  0.0998
18776SOL    HW257462   4.017   7.971   0.587  0.7339  0.5124  0.2141
18777SOL     OW57463   8.003   9.067   2.153 -0.1855 -0.2150  0.2018
18777SOL    HW157464   8.068   9.026   2.209 -0.7130 -0.4185  0.6792
18777SOL    HW257465   8.027   9.041   2.064 -1.0028 -2.3378  0.5377
18778SOL     OW57466   0.299   8.219   1.568  0.4280 -0.0640 -0.1330
18778SOL    HW157467   0.364   8.284   1.542  0.4988  0.2281  0.7302
18778SOL    HW257468   0.303   8.153   1.499  2.0055 -0.3127  0.1487
18779SOL     OW57469   8.856   8.884   4.145  0.7071 -0.9343  0.1186
18779SOL    HW157470   8.826   8.914   4.231  3.7358 -0.6617  1.2047
18779SOL    HW257471   8.812   8.799   4.133 -1.3039 -0.0926  0.9515
18780SOL     OW57472   5.995   4.223   3.032 -0.1218  0.0727 -0.1108
18780SOL    HW157473   5.970   4.190   2.945  0.3676 -1.5585  0.3406
18780SOL    HW257474   5.998   4.146   3.088  2.5135  0.6348  0.6836
18781SOL     OW57475   4.473   0.634   2.572 -0.0139 -0.2615  0.4082
18781SOL    HW157476   4.540   0.639   2.640  1.8212 -0.9338 -1.2365
18781SOL    HW257477   4.519   0.660   2.492 -1.7341 -0.7601 -0.7918
18782SOL     OW57478   3.367   1.772   6.850  0.3407 -0.2626 -0.8511
18782SOL    HW157479   3.307   1.698   6.843  2.5175 -2.2311 -0.0758
18782SOL    HW257480   3.350   1.825   6.772 -1.3654 -1.5185 -1.3761
18783SOL     OW57481   5.549   1.826   1.081 -0.3990 -0.1499  0.2700
18783SOL    HW157482   5.551   1.745   1.030 -0.6445 -1.2752  1.9761
18783SOL    HW257483   5.492   1.807   1.155  0.0131  1.3959  1.0422
18784SOL     OW57484   6.001   1.636   8.620 -0.1346  0.9163 -0.3849
18784SOL    HW157485   6.017   1.676   8.534  1.8620  1.1012  0.0307
18784SOL    HW257486   6.046   1.694   8.682  1.8747 -1.2798  0.3591
18785SOL     OW57487   8.588   1.509   7.711  0.0671  0.5354 -0.3973
18785SOL    HW157488   8.600   1.549   7.797  1.9513  0.6805 -0.6946
18785SOL    HW257489   8.633   1.569   7.651  0.4060 -0.5320 -1.2280
18786SOL     OW57490   3.707   1.192   2.668 -0.0436  0.0666 -0.1396
18786SOL    HW157491   3.713   1.105   2.629  1.6578  0.0832  0.0133
18786SOL    HW257492   3.688   1.175   2.761  0.5487 -0.1804 -0.0533
18787SOL     OW57493   3.772   6.892   1.686  0.0514  0.4072 -0.4857
18787SOL    HW157494   3.848   6.839   1.664 -0.3760 -0.6200  0.4153
18787SOL    HW257495   3.698   6.844   1.650 -0.2660  0.8864 -0.4867
18788SOL     OW57496   3.995   3.132   8.148  0.2197  1.0292  0.4674
18788SOL    HW157497   3.993   3.218   8.191 -3.6679  1.4405 -0.1569
18788SOL    HW257498   3.982   3.069   8.219  2.0997  0.9427  0.7948
18789SOL     OW57499   8.304   2.408   6.798  0.9186 -0.1014 -0.2792
18789SOL    HW157500   8.348   2.341   6.851  0.9411  1.1462  1.3522
18789SOL    HW257501   8.372   2.439   6.739  0.9150 -1.4664 -1.0511
18790SOL     OW57502   4.480   6.516   3.694  0.4471 -0.7848  0.2833
18790SOL    HW157503   4.431   6.444   3.733 -1.0141  0.5814  1.1009
18790SOL    HW257504   4.476   6.586   3.759  1.2204  0.2850 -0.7625
18791SOL     OW57505   6.782   8.207   0.012 -0.7816  0.0450 -0.2120
18791SOL    HW157506   6.775   8.137   0.076 -0.0437  0.9630  0.9171
18791SOL    HW257507   6.873   8.204  -0.018 -0.5592  0.8860  0.3236
18792SOL     OW57508   5.581   6.646   2.581 -0.1563  0.3955 -0.0616
18792SOL    HW157509   5.583   6.729   2.629  0.2551 -1.3135  3.1167
18792SOL    HW257510   5.491   6.615   2.591  0.0183 -0.1423 -0.1246
18793SOL     OW57511   2.159   0.510   6.609  0.1881 -0.1067 -0.8578
18793SOL    HW157512   2.169   0.417   6.629 -0.1371 -0.3085 -1.5975
18793SOL    HW257513   2.230   0.528   6.547  1.2362  0.5271  0.4707
18794SOL     OW57514   5.265   4.520   8.539  0.3235  0.0781 -0.5369
18794SOL    HW157515   5.357   4.511   8.513  0.0331  2.0752 -2.5258
18794SOL    HW257516   5.215   4.493   8.462 -0.9670 -3.7097  1.3881
18795SOL     OW57517   7.317   3.219   2.192  0.1882 -0.0035 -0.2802
18795SOL    HW157518   7.329   3.235   2.099 -0.2929  2.6548  0.0482
18795SOL    HW257519   7.244   3.158   2.197 -0.0782  0.1841 -1.6324
18796SOL     OW57520   8.114   8.361   6.047  0.5490  0.5770 -0.3152
18796SOL    HW157521   8.061   8.433   6.081 -0.9792 -0.6177 -0.0508
18796SOL    HW257522   8.196   8.402   6.019 -0.6130  2.5565 -1.0012
18797SOL     OW57523   7.897   7.061   3.303  0.4602  0.1607  0.4944
18797SOL    HW157524   7.968   6.999   3.286 -0.2710 -0.5120 -0.1980
18797SOL    HW257525   7.891   7.113   3.223  0.6981  0.7745  0.8629
18798SOL     OW57526   8.632   2.659   8.235  0.2192  0.3616 -0.1532
18798SOL    HW157527   8.598   2.710   8.161 -0.2658 -0.0644 -0.2371
18798SOL    HW257528   8.697   2.715   8.276 -1.6804  1.8943  0.9673
18799SOL     OW57529   6.824   2.467   4.432  0.0040 -0.2833 -0.4248
18799SOL    HW157530   6.876   2.401   4.386 -0.0514 -1.9940  1.7607
18799SOL    HW257531   6.859   2.467   4.521 -1.0329  1.5717  0.0375
18800SOL     OW57532   4.972   8.038   2.179 -0.1211  0.4189  0.2446
18800SOL    HW157533   4.920   8.021   2.100  1.5162  0.3051 -0.8477
18800SOL    HW257534   4.960   7.959   2.232  1.0295 -0.7911 -1.2038
18801SOL     OW57535   6.552   8.722   7.443  0.1942  0.0690  0.0814
18801SOL    HW157536   6.556   8.697   7.536  0.8864  1.4089  0.4392
18801SOL    HW257537   6.464   8.696   7.415 -0.4538  0.7006  1.4431
18802SOL     OW57538   1.387   2.024   0.159 -0.9420  0.0826  0.1590
18802SOL    HW157539   1.347   1.982   0.083 -0.9427 -1.0560  0.7641
18802SOL    HW257540   1.315   2.067   0.204 -1.4893 -1.7039  1.0825
18803SOL     OW57541   6.229   5.532   6.286 -0.5205 -0.4671  0.1619
18803SOL    HW157542   6.172   5.607   6.266  1.6231  0.9215 -1.0559
18803SOL    HW257543   6.217   5.518   6.380 -2.0925  0.4029  0.1328
18804SOL     OW57544   5.726   2.768   2.510 -0.2927  0.2658 -0.5118
18804SOL    HW157545   5.684   2.689   2.475 -0.3394  0.6100 -1.2676
18804SOL    HW257546   5.758   2.814   2.432  2.3904 -0.4487  0.0575
18805SOL     OW57547   5.617   0.711   6.038  0.3402  0.1131  0.4815
18805SOL    HW157548   5.541   0.669   6.077  0.4548  0.0166  0.6007
18805SOL    HW257549   5.686   0.645   6.041  0.3506  0.1027  0.1105
18806SOL     OW57550   8.451   5.441   2.164  0.0046  0.6188 -0.3836
18806SOL    HW157551   8.465   5.441   2.258 -0.5871  0.6315 -0.2922
18806SOL    HW257552   8.439   5.534   2.142  1.6106  0.7846 -0.7087
18807SOL     OW57553   4.885   8.337   3.990  0.0327  0.0121  0.1340
18807SOL    HW157554   4.895   8.318   4.084  1.1253 -0.3738 -0.0389
18807SOL    HW257555   4.791   8.352   3.978 -0.0018  1.0612  1.4692
18808SOL     OW57556   7.367   8.671   1.248  0.7506  0.1308 -0.3548
18808SOL    HW157557   7.339   8.750   1.294  1.2147 -0.2000  0.5070
18808SOL    HW257558   7.307   8.603   1.277  2.1687 -0.5116  1.2610
18809SOL     OW57559   7.731   0.353   7.569  0.0162 -0.1167 -0.4463
18809SOL    HW157560   7.731   0.279   7.508 -1.3443 -0.1841 -0.4083
18809SOL    HW257561   7.735   0.431   7.512 -1.2505 -0.1796 -0.6596
18810SOL     OW57562   0.911   7.485   5.073 -0.4355 -0.2500  0.4068
18810SOL    HW157563   0.984   7.517   5.021  0.6484 -1.4672  1.1313
18810SOL    HW257564   0.849   7.451   5.008  0.4598 -0.8721 -0.1400
18811SOL     OW57565   0.972   3.327   7.144  0.2856  0.0548 -0.2242
18811SOL    HW157566   1.054   3.371   7.122 -0.3848  2.4102  1.6299
18811SOL    HW257567   0.997   3.235   7.154  2.5436  0.5769 -0.4773
18812SOL     OW57568   7.225   1.832   2.257  0.0959 -0.1745  0.5628
18812SOL    HW157569   7.238   1.810   2.165 -1.5552 -1.2236  0.5545
18812SOL    HW257570   7.244   1.926   2.262  1.6286 -0.3923 -0.5375
18813SOL     OW57571   1.430   2.109   7.049  0.5178 -0.0616  0.3338
18813SOL    HW157572   1.456   2.193   7.009  0.9524 -0.5068 -0.3506
18813SOL    HW257573   1.349   2.085   7.004  0.9458 -0.5074 -0.2142
18814SOL     OW57574   0.057   5.775   2.192 -0.4315  0.5735 -0.2268
18814SOL    HW157575  -0.000   5.840   2.233 -1.1164 -0.6124  0.7458
18814SOL    HW257576   0.137   5.776   2.245 -0.3276  0.8105 -0.3848
18815SOL     OW57577   1.417   4.744   7.635  0.3499  0.2563 -0.1523
18815SOL    HW157578   1.328   4.709   7.627  0.5412 -0.2445 -0.1365
18815SOL    HW257579   1.428   4.802   7.560  0.3142 -0.3518 -0.6270
18816SOL     OW57580   1.904   2.542   5.883 -0.0987 -0.3656  0.2447
18816SOL    HW157581   1.930   2.451   5.892 -0.6923 -0.5111  0.6016
18816SOL    HW257582   1.986   2.591   5.885  0.4723 -1.0269 -2.5524
18817SOL     OW57583   3.098   1.400   3.169 -0.0818  0.0476 -0.1324
18817SOL    HW157584   3.009   1.434   3.160 -0.1967 -0.7644 -2.8535
18817SOL    HW257585   3.153   1.479   3.166 -0.5866  0.3820 -1.6277
18818SOL     OW57586   3.305   0.473   0.919 -0.2608 -0.3574 -0.5968
18818SOL    HW157587   3.339   0.384   0.929 -0.2363 -0.1266  2.4990
18818SOL    HW257588   3.222   0.473   0.968 -0.6271  1.1295 -1.1615
18819SOL     OW57589   4.299   4.195   8.064 -0.0527  0.2930  0.6137
18819SOL    HW157590   4.249   4.270   8.097  1.2376  0.8212  1.4450
18819SOL    HW257591   4.350   4.166   8.140  0.9425 -0.1904 -0.2288
18820SOL     OW57592   6.842   4.621   7.668 -0.0686  0.2595 -0.1201
18820SOL    HW157593   6.793   4.567   7.607 -1.8211 -0.7898  2.1073
18820SOL    HW257594   6.919   4.569   7.690  0.0293  0.2001 -0.5805
18821SOL     OW57595   7.184   4.727   5.967 -0.3809 -0.0105 -0.8595
18821SOL    HW157596   7.141   4.793   5.913 -1.4079  0.5311  0.5487
18821SOL    HW257597   7.112   4.678   6.006  0.3708 -1.8698 -1.7217
18822SOL     OW57598   8.705   1.046   3.022  0.4137  0.3958  0.2522
18822SOL    HW157599   8.750   1.131   3.017 -0.1763  0.6245 -2.4482
18822SOL    HW257600   8.623   1.066   3.066  0.2272  1.2707 -0.4641
18823SOL     OW57601   5.510   5.990   0.971  0.5240  0.9262  0.2447
18823SOL    HW157602   5.473   6.045   0.902 -2.0892 -0.2151  0.6336
18823SOL    HW257603   5.503   6.042   1.051  0.5201  1.0148  0.1870
18824SOL     OW57604   0.732   1.027   5.113 -0.2060 -0.3689  0.1956
18824SOL    HW157605   0.711   0.992   5.200  0.1663 -0.8893  0.0867
18824SOL    HW257606   0.663   0.993   5.056 -0.5515  0.1237  0.3230
18825SOL     OW57607   4.028   8.615   2.099  0.2333 -0.2652  0.4872
18825SOL    HW157608   4.103   8.674   2.108  0.9849 -0.8951 -1.2504
18825SOL    HW257609   3.989   8.638   2.015 -2.0664  0.5722  1.6714
18826SOL     OW57610   6.196   0.215   8.904  0.3981  0.1681  0.1741
18826SOL    HW157611   6.114   0.173   8.928  1.7972 -0.9032  3.5828
18826SOL    HW257612   6.209   0.283   8.970  2.9799 -0.7605  0.7406
18827SOL     OW57613   5.506   4.786   4.221 -0.3608 -0.4134  0.3370
18827SOL    HW157614   5.547   4.756   4.140  0.3609  0.5217  0.3424
18827SOL    HW257615   5.418   4.813   4.196 -0.3081 -0.5824 -0.0344
18828SOL     OW57616   3.589   3.459   2.888 -0.3614 -0.6401  0.2157
18828SOL    HW157617   3.579   3.540   2.939  0.2413  0.0518 -0.7343
18828SOL    HW257618   3.683   3.448   2.878 -0.4189 -1.7590  0.7763
18829SOL     OW57619   2.912   0.050   2.156  0.0625 -0.3130  0.2363
18829SOL    HW157620   2.888  -0.023   2.098  0.0715 -0.2180  0.1121
18829SOL    HW257621   3.007   0.051   2.156  0.0658 -0.5409  0.5412
18830SOL     OW57622   6.445   7.142   5.154  0.3709  0.5917 -0.2142
18830SOL    HW157623   6.480   7.182   5.075  0.3728  1.8649  0.4112
18830SOL    HW257624   6.504   7.068   5.170  1.2395  1.1695 -0.6136
18831SOL     OW57625   6.583   3.132   0.943  0.7180 -0.6504 -0.1880
18831SOL    HW157626   6.499   3.177   0.953  0.5950 -1.0203  0.4838
18831SOL    HW257627   6.582   3.063   1.009  2.2764  0.4407  1.0528
18832SOL     OW57628   0.547   0.448   0.132  0.2816 -0.3382  0.3086
18832SOL    HW157629   0.554   0.392   0.210 -1.0717 -2.4963 -1.0169
18832SOL    HW257630   0.634   0.487   0.123  0.3495  0.3873  3.1269
18833SOL     OW57631   5.172   4.535   9.021 -0.0233 -0.4383 -0.2753
18833SOL    HW157632   5.228   4.601   9.063 -0.4325 -0.9005  1.0127
18833SOL    HW257633   5.085   4.575   9.019  0.0099 -0.3864 -0.7691
18834SOL     OW57634   6.489   6.455   6.883  0.2266  0.3726 -0.1061
18834SOL    HW157635   6.573   6.411   6.866 -0.0264 -0.1844  0.0553
18834SOL    HW257636   6.424   6.386   6.874 -0.3787  1.1057 -1.7029
18835SOL     OW57637   9.065   4.791   4.911  0.2119 -0.4245 -0.3062
18835SOL    HW157638   9.069   4.835   4.827  2.5890 -0.4279 -0.2519
18835SOL    HW257639   8.976   4.757   4.916 -0.5566  1.1893 -1.9610
18836SOL     OW57640   0.979   7.346   3.435  0.3800 -0.4699  0.0202
18836SOL    HW157641   0.993   7.376   3.345  1.0636 -2.0523 -0.4382
18836SOL    HW257642   0.941   7.259   3.425  1.2893 -1.0308  1.2500
18837SOL     OW57643   2.637   7.131   6.178 -0.2493 -0.0073 -0.2692
18837SOL    HW157644   2.661   7.041   6.198 -0.5361  0.1013  0.6050
18837SOL    HW257645   2.637   7.136   6.082 -2.5660 -1.5965 -0.4382
18838SOL     OW57646   0.273   3.297   1.297 -0.2065 -0.4692  0.2222
18838SOL    HW157647   0.337   3.230   1.321 -0.4073 -0.6257  0.3296
18838SOL    HW257648   0.311   3.341   1.221 -0.0879 -0.7257  0.1316
18839SOL     OW57649   7.487   4.769   0.402  0.1269  0.2929  0.0323
18839SOL    HW157650   7.521   4.756   0.313 -0.4058  0.2977 -0.1737
18839SOL    HW257651   7.392   4.766   0.392  0.0692  0.1099  0.6335
18840SOL     OW57652   0.603   0.325   0.390 -0.5814  0.2438  0.0677
18840SOL    HW157653   0.520   0.287   0.420 -0.4242 -0.6364 -0.5765
18840SOL    HW257654   0.608   0.410   0.434 -1.9145  0.3888 -0.0145
18841SOL     OW57655   5.080   4.315   2.624 -0.1660  0.0700  0.8358
18841SOL    HW157656   5.151   4.273   2.673  0.8672  1.9269  1.0014
18841SOL    HW257657   5.031   4.242   2.585  1.9311 -1.2617  0.5658
18842SOL     OW57658   8.268   1.424   2.664 -0.0308  0.5062 -0.2855
18842SOL    HW157659   8.290   1.361   2.595  2.7692 -1.5422  2.2094
18842SOL    HW257660   8.179   1.400   2.691  0.5647 -1.7505 -0.1302
18843SOL     OW57661   0.143   0.047   6.433  0.0534 -0.8374  0.4420
18843SOL    HW157662   0.226   0.089   6.414 -0.6954  1.2101  1.4513
18843SOL    HW257663   0.119   0.003   6.351  1.0270  0.4280 -0.5628
18844SOL     OW57664   0.760   6.224   8.652  0.2700 -0.3597  0.3110
18844SOL    HW157665   0.837   6.273   8.623  0.6142 -2.1217 -2.0543
18844SOL    HW257666   0.775   6.209   8.745  2.2078  0.3389  0.1588
18845SOL     OW57667   0.945   0.503   5.724 -0.0031 -0.5463  0.2809
18845SOL    HW157668   0.863   0.548   5.702 -0.5881 -0.3780  2.5276
18845SOL    HW257669   1.003   0.573   5.755  0.3413 -0.9132  0.4705
18846SOL     OW57670   0.939   6.459   3.219 -0.2893 -0.3063 -0.2061
18846SOL    HW157671   0.910   6.416   3.139  0.2559 -1.4043  0.1723
18846SOL    HW257672   0.986   6.391   3.268 -0.2213  0.4642  0.8391
18847SOL     OW57673   3.964   5.835   5.719 -0.0968 -0.0594  0.5953
18847SOL    HW157674   3.884   5.838   5.666 -0.9335  1.0830  1.8645
18847SOL    HW257675   3.934   5.821   5.808  1.1552  0.0245  1.0538
18848SOL     OW57676   8.256   4.690   2.558  0.3444 -0.3089 -0.1985
18848SOL    HW157677   8.296   4.762   2.509  1.5620 -1.7031 -1.3766
18848SOL    HW257678   8.274   4.710   2.650 -0.1824  1.3323 -0.4195
18849SOL     OW57679   1.912   1.559   7.429  0.1851 -0.1479  0.7092
18849SOL    HW157680   1.946   1.473   7.404  1.6416  0.4096  0.6546
18849SOL    HW257681   1.844   1.578   7.366  0.6982 -0.7361 -0.0404
18850SOL     OW57682   8.678   7.602   4.649 -0.0553  0.0532 -0.3045
18850SOL    HW157683   8.683   7.697   4.659 -0.3315 -0.1245  1.8016
18850SOL    HW257684   8.698   7.567   4.735 -1.2912 -1.7714 -0.6961
18851SOL     OW57685   0.208   4.689   3.714  0.5552 -0.5328  0.1446
18851SOL    HW157686   0.136   4.738   3.674  0.3802  0.8857  2.0747
18851SOL    HW257687   0.182   4.597   3.705 -2.3822 -0.0474  2.2062
18852SOL     OW57688   3.261   0.580   5.457  0.1593  0.1235  0.3134
18852SOL    HW157689   3.222   0.649   5.404  2.4760  0.9549 -0.4518
18852SOL    HW257690   3.220   0.589   5.543 -1.5870  0.6108 -0.5416
18853SOL     OW57691   8.141   6.439   5.235 -0.8210  0.0001  0.0329
18853SOL    HW157692   8.183   6.354   5.254  0.6592  0.5200 -0.7950
18853SOL    HW257693   8.170   6.496   5.306  0.5384  0.5584 -0.9285
18854SOL     OW57694   5.056   2.726   0.531  0.2797 -0.0123  0.4240
18854SOL    HW157695   4.980   2.680   0.566 -1.0694  0.1996 -1.9361
18854SOL    HW257696   5.131   2.675   0.558 -0.8057 -0.9522  1.7799
18855SOL     OW57697   2.375   0.561   5.426  0.2209 -0.2317 -0.2040
18855SOL    HW157698   2.314   0.538   5.497  2.3957 -1.4995  1.3425
18855SOL    HW257699   2.460   0.569   5.469  1.3720  0.4523 -2.4674
18856SOL     OW57700   4.983   8.385   6.557 -0.3249 -0.2808  0.5884
18856SOL    HW157701   5.068   8.418   6.527  0.8999 -2.1088  1.7855
18856SOL    HW257702   4.931   8.376   6.478  2.0473 -2.9452 -0.8654
18857SOL     OW57703   4.987   4.652   0.403  0.5037 -0.1071 -0.3198
18857SOL    HW157704   5.076   4.644   0.367  0.4113 -0.6765 -0.4235
18857SOL    HW257705   4.998   4.711   0.478  0.7925  0.6466 -0.9336
18858SOL     OW57706   6.121   9.117   3.332  0.5079  0.0365 -0.3152
18858SOL    HW157707   6.064   9.150   3.263 -0.8583 -0.4231  0.5314
18858SOL    HW257708   6.209   9.128   3.298 -0.0547  1.2080 -1.4971
18859SOL     OW57709   7.849   1.814   0.147  0.5445 -0.9690 -0.1186
18859SOL    HW157710   7.906   1.762   0.203  1.2686  1.1660  1.2866
18859SOL    HW257711   7.829   1.892   0.200  0.5549  0.7769 -2.5235
18860SOL     OW57712   2.203   6.174   7.378 -0.3264 -0.4164 -0.3901
18860SOL    HW157713   2.116   6.143   7.402 -0.8348 -0.1363 -1.7414
18860SOL    HW257714   2.214   6.145   7.287  0.2197  1.1281 -0.8518
18861SOL     OW57715   3.995   2.857   4.103  0.0395 -0.2404  0.0643
18861SOL    HW157716   3.966   2.940   4.141  1.0385  0.8750 -1.4849
18861SOL    HW257717   4.059   2.823   4.165 -0.4063  0.1270  0.7351
18862SOL     OW57718   5.372   3.587   1.675  0.5836  0.0275  0.1239
18862SOL    HW157719   5.396   3.544   1.757  1.8032 -0.9458 -0.6995
18862SOL    HW257720   5.456   3.613   1.636  0.0282  0.4634 -0.8212
18863SOL     OW57721   6.365   9.063   4.118 -0.5304  0.2368  0.8778
18863SOL    HW157722   6.288   9.043   4.064 -0.0398 -1.2713  0.6992
18863SOL    HW257723   6.394   9.149   4.087 -1.9109  0.6629  0.6963
18864SOL     OW57724   5.102   4.947   7.795 -0.3084 -0.4947 -0.0698
18864SOL    HW157725   5.161   4.931   7.721  1.9148  2.0519  1.0054
18864SOL    HW257726   5.091   4.860   7.835  1.2379 -1.3517 -1.3714
18865SOL     OW57727   7.040   0.922   4.474  0.0827  0.2612  0.3772
18865SOL    HW157728   7.016   0.908   4.566 -1.1125  0.0138  0.0370
18865SOL    HW257729   7.056   1.016   4.468 -2.0346  0.6580  0.3610
18866SOL     OW57730   7.846   7.448   1.356 -0.4142  0.3145  0.3111
18866SOL    HW157731   7.818   7.358   1.373  0.6691  0.2025  1.6360
18866SOL    HW257732   7.873   7.448   1.264 -3.0176  0.0128 -0.5341
18867SOL     OW57733   7.685   5.044   4.171 -0.3455  0.2138 -0.0232
18867SOL    HW157734   7.733   4.982   4.227 -0.7374 -0.5295 -0.4946
18867SOL    HW257735   7.593   5.023   4.185 -0.4999  0.9544  0.1017
18868SOL     OW57736   1.635   2.487   3.144 -0.4328 -0.0580 -0.3849
18868SOL    HW157737   1.605   2.542   3.216 -0.0533  0.2219 -0.4397
18868SOL    HW257738   1.561   2.428   3.127 -0.1426 -0.8490  0.9313
18869SOL     OW57739   4.325   8.988   8.385  0.3732  0.0119  0.2478
18869SOL    HW157740   4.320   9.064   8.327 -1.7296 -0.5456 -0.3940
18869SOL    HW257741   4.397   8.936   8.350  0.5730  0.7569 -0.4951
18870SOL     OW57742   5.420   2.416   3.823  0.3940  0.2281 -0.1640
18870SOL    HW157743   5.417   2.505   3.859  0.8715  0.7123 -1.3030
18870SOL    HW257744   5.344   2.411   3.766  2.1894  1.1186 -2.8014
18871SOL     OW57745   2.568   4.008   1.473 -0.0368 -0.4450 -0.2926
18871SOL    HW157746   2.633   4.071   1.441  0.2605 -0.6192 -0.0437
18871SOL    HW257747   2.620   3.939   1.515 -0.3930 -0.4381  0.1743
18872SOL     OW57748   4.790   7.339   8.318 -0.4418 -0.4055 -0.5573
18872SOL    HW157749   4.881   7.308   8.321  0.4286  1.7413 -2.2432
18872SOL    HW257750   4.757   7.308   8.234 -0.7947  0.0454 -0.5885
18873SOL     OW57751   7.044   1.447   3.444 -0.1668  0.3240  0.1446
18873SOL    HW157752   7.062   1.526   3.495  1.3208  0.4436 -0.5029
18873SOL    HW257753   7.131   1.410   3.427 -0.8429 -1.6524  0.7269
18874SOL     OW57754   8.704   3.362   7.488  0.9458  0.4841 -0.3261
18874SOL    HW157755   8.737   3.433   7.434  0.8789  1.1826  0.5314
18874SOL    HW257756   8.626   3.398   7.531 -0.2917 -0.7595 -1.4089
18875SOL     OW57757   0.027   1.609   8.952  0.1107 -0.1632 -0.8554
18875SOL    HW157758  -0.005   1.618   9.042  0.1048  0.6786 -0.9395
18875SOL    HW257759   0.097   1.673   8.945 -0.8230  0.7772 -1.8776
18876SOL     OW57760   9.030   1.391   4.385 -0.5938 -0.5453  1.3900
18876SOL    HW157761   8.978   1.312   4.396 -1.0170 -0.2428  1.5983
18876SOL    HW257762   9.073   1.404   4.469 -0.8028 -0.3608  1.4696
18877SOL     OW57763   7.118   0.155   6.842 -0.0794  0.0988  0.4490
18877SOL    HW157764   7.125   0.072   6.794 -0.2393 -0.9087  2.0617
18877SOL    HW257765   7.208   0.183   6.854 -0.0028 -0.0290  0.1791
18878SOL     OW57766   5.686   8.019   1.541 -0.4052 -0.1297  0.2425
18878SOL    HW157767   5.763   8.064   1.576 -0.8469  0.9901 -0.1816
18878SOL    HW257768   5.716   7.984   1.457 -0.4681  0.6595 -0.1138
18879SOL     OW57769   5.543   2.981   8.096 -0.3579 -0.0972 -0.2567
18879SOL    HW157770   5.622   2.959   8.146 -0.2466  0.1997 -0.3031
18879SOL    HW257771   5.475   2.924   8.132  0.1495 -1.2333 -1.0315
18880SOL     OW57772   0.422   2.557   1.034 -0.0554  0.0403  0.0744
18880SOL    HW157773   0.494   2.512   1.078  0.4282  1.8172  1.2000
18880SOL    HW257774   0.346   2.539   1.090 -0.1609 -0.4735 -0.2232
18881SOL     OW57775   0.199   2.410   6.403 -0.1619  0.5618  0.2573
18881SOL    HW157776   0.224   2.382   6.491 -0.2159 -0.2448  0.0279
18881SOL    HW257777   0.180   2.503   6.411 -0.1184  0.5022  1.0880
18882SOL     OW57778   3.553   7.183   5.863  0.7889 -0.4622  0.1268
18882SOL    HW157779   3.628   7.189   5.804  0.4348 -1.7138 -0.4899
18882SOL    HW257780   3.485   7.139   5.811  0.6258 -2.0609  1.6095
18883SOL     OW57781   0.233   6.093   1.925 -0.2528 -0.0961  0.3071
18883SOL    HW157782   0.223   6.001   1.948 -0.9546 -0.2697 -0.6466
18883SOL    HW257783   0.144   6.125   1.912  0.0390  0.1699 -1.3712
18884SOL     OW57784   5.034   3.230   6.630  0.1124 -0.1918  0.0478
18884SOL    HW157785   4.977   3.306   6.642  1.3825  1.0215 -1.2198
18884SOL    HW257786   4.982   3.169   6.578  0.6296  1.8815 -3.1672
18885SOL     OW57787   4.689   7.745   3.945  0.1843  0.9243 -0.2887
18885SOL    HW157788   4.602   7.707   3.934  0.6829 -1.3836  2.5751
18885SOL    HW257789   4.673   7.839   3.956 -1.9767  0.5260  0.4131
18886SOL     OW57790   3.499   4.370   1.447 -0.7994 -0.4661 -0.0637
18886SOL    HW157791   3.411   4.398   1.470 -0.4908 -0.0910  0.7073
18886SOL    HW257792   3.500   4.276   1.467 -0.2925 -0.0183  2.4249
18887SOL     OW57793   1.684   6.232   3.567  0.4367  0.0918 -0.5406
18887SOL    HW157794   1.612   6.291   3.545 -1.3307 -0.8749  2.0899
18887SOL    HW257795   1.723   6.270   3.646  1.0365 -0.8451 -0.3663
18888SOL     OW57796   5.590   5.080   5.254 -0.0878  0.0148 -0.5001
18888SOL    HW157797   5.656   5.127   5.203  1.5484 -0.5300  1.0308
18888SOL    HW257798   5.506   5.114   5.221  0.9367  3.5724  0.0992
18889SOL     OW57799   0.739   6.417   1.186 -0.2693 -0.0330 -0.3882
18889SOL    HW157800   0.779   6.486   1.239  0.0179  0.0418 -0.6987
18889SOL    HW257801   0.658   6.395   1.231 -0.2286  0.3222 -0.1461
18890SOL     OW57802   7.803   0.174   4.736 -0.6964 -0.0027 -0.3862
18890SOL    HW157803   7.735   0.213   4.791  0.2642  0.8621  0.2329
18890SOL    HW257804   7.762   0.163   4.650 -2.4572 -2.0183  0.6236
18891SOL     OW57805   3.503   4.189   8.161 -0.4372 -0.1757 -0.2575
18891SOL    HW157806   3.587   4.142   8.159 -1.1672 -1.5083 -1.9668
18891SOL    HW257807   3.526   4.280   8.146  0.6453 -0.6855 -2.0690
18892SOL     OW57808   5.048   0.728   1.852 -0.0859  0.0699  0.0668
18892SOL    HW157809   5.107   0.801   1.833 -0.5573  0.2533 -0.7753
18892SOL    HW257810   5.104   0.650   1.848  0.2151  0.2934 -0.1575
18893SOL     OW57811   5.440   5.013   0.491 -0.1420  0.1943  0.0024
18893SOL    HW157812   5.534   4.995   0.496  0.3837  2.7139  0.2664
18893SOL    HW257813   5.432   5.083   0.427 -2.3368 -2.4995 -2.9424
18894SOL     OW57814   7.035   5.911   7.378 -0.4031 -0.2483 -0.2711
18894SOL    HW157815   6.988   5.834   7.348 -1.9609  0.0518  1.2640
18894SOL    HW257816   7.026   5.910   7.473 -0.5238  1.8335 -0.2126
18895SOL     OW57817   4.635   8.508   2.102 -0.1633 -0.2454 -0.4132
18895SOL    HW157818   4.580   8.462   2.038 -0.9889 -0.9558  0.7670
18895SOL    HW257819   4.722   8.508   2.062 -0.2853 -2.2035 -0.8180
18896SOL     OW57820   5.466   6.858   4.383  0.5033 -0.1230 -0.3228
18896SOL    HW157821   5.512   6.792   4.331  0.3626  0.2658 -0.9568
18896SOL    HW257822   5.493   6.942   4.344  1.2500  0.2499  0.9165
18897SOL     OW57823   5.997   2.360   3.693 -0.3493  0.1812  0.2109
18897SOL    HW157824   5.937   2.350   3.767  0.1024  0.9038  0.6820
18897SOL    HW257825   6.071   2.408   3.728  0.3321 -0.3499 -0.4695
18898SOL     OW57826   1.197   4.147   0.729 -0.6658 -0.7017 -0.0333
18898SOL    HW157827   1.175   4.213   0.795 -0.8079 -0.1757 -0.5976
18898SOL    HW257828   1.184   4.064   0.774 -1.0449 -0.3572  0.5183
18899SOL     OW57829   1.330   6.371   6.252  0.1557  0.2846  0.2320
18899SOL    HW157830   1.238   6.347   6.243  0.6397 -1.6735 -0.0049
18899SOL    HW257831   1.350   6.424   6.175 -0.7340  0.6019  0.2196
18900SOL     OW57832   7.644   6.790   4.268 -0.3065 -0.4562 -0.3620
18900SOL    HW157833   7.646   6.716   4.207  2.9408 -0.5409 -0.3236
18900SOL    HW257834   7.649   6.867   4.211 -0.9581 -0.3560 -0.2937
18901SOL     OW57835   7.278   7.399   2.839  0.3016 -0.0269  0.0004
18901SOL    HW157836   7.283   7.366   2.929  1.8704 -0.9586 -0.4039
18901SOL    HW257837   7.200   7.358   2.803  1.2498 -1.9670  0.0576
18902SOL     OW57838   3.531   2.292   4.072 -0.3712 -0.2094  0.6419
18902SOL    HW157839   3.556   2.383   4.086 -0.4196 -0.0489 -0.2313
18902SOL    HW257840   3.482   2.293   3.989 -2.1298 -0.7159  1.6202
18903SOL     OW57841   2.072   0.198   1.966  0.1619  0.6286 -0.1550
18903SOL    HW157842   2.044   0.193   1.875  0.3668  0.7709 -0.2258
18903SOL    HW257843   2.128   0.276   1.970 -0.3030  0.9528  0.2149
18904SOL     OW57844   1.318   3.439   8.991  0.0018  0.2725 -0.2836
18904SOL    HW157845   1.228   3.471   8.977 -0.0525  1.0298  1.5162
18904SOL    HW257846   1.319   3.353   8.949 -1.0720  0.9178 -1.7302
18905SOL     OW57847   1.773   6.382   8.983 -0.0839  0.4928 -0.1307
18905SOL    HW157848   1.864   6.377   8.955  0.2103 -0.9182  0.9364
18905SOL    HW257849   1.723   6.344   8.911  0.6317 -2.9031  1.0139
18906SOL     OW57850   7.167   2.450   3.066 -0.0906  0.4592  0.1214
18906SOL    HW157851   7.168   2.380   3.132 -3.1593 -0.2281 -0.4031
18906SOL    HW257852   7.156   2.530   3.117  1.6903  0.4213  0.6266
18907SOL     OW57853   8.966   7.564   7.737 -0.5884  0.0196  0.3210
18907SOL    HW157854   9.049   7.536   7.774 -0.9914 -2.1107 -0.2747
18907SOL    HW257855   8.901   7.544   7.804 -0.8398 -0.1467  0.0363
18908SOL     OW57856   7.021   6.212   4.428  0.0488  0.5437 -0.0128
18908SOL    HW157857   6.929   6.241   4.431  0.4257  1.7813  0.8176
18908SOL    HW257858   7.065   6.270   4.491  1.4518  0.1616 -0.6230
18909SOL     OW57859   2.278   0.348   1.917 -0.2645  0.2084 -0.1541
18909SOL    HW157860   2.300   0.428   1.964 -0.8340  0.4785 -0.3370
18909SOL    HW257861   2.347   0.286   1.940  0.4447  0.8994 -0.3909
18910SOL     OW57862   3.243   7.787   0.466 -0.3358  0.1791  0.1050
18910SOL    HW157863   3.189   7.735   0.526  0.5562 -0.4551  0.3771
18910SOL    HW257864   3.241   7.739   0.384 -0.6547  0.4686 -0.0612
18911SOL     OW57865   4.788   7.153   1.593  0.1309  0.0592 -0.0062
18911SOL    HW157866   4.763   7.061   1.603  0.3597 -0.0063 -0.0248
18911SOL    HW257867   4.833   7.174   1.675  0.3064  0.0789 -0.1066
18912SOL     OW57868   5.973   8.513   2.414  0.2943 -0.0747 -0.1875
18912SOL    HW157869   5.956   8.607   2.408  1.2031  0.0122 -2.4075
18912SOL    HW257870   5.938   8.477   2.333  0.9864 -1.4772  0.0997
18913SOL     OW57871   8.903   7.971   7.053  0.3945  0.3287 -0.1476
18913SOL    HW157872   8.958   8.034   7.006  1.7501 -0.1158  0.7769
18913SOL    HW257873   8.963   7.900   7.078 -1.0930 -1.4481 -1.2818
18914SOL     OW57874   2.192   1.635   8.364 -0.5774  0.8132 -0.1070
18914SOL    HW157875   2.280   1.611   8.392 -1.4766 -1.0469  1.3437
18914SOL    HW257876   2.204   1.677   8.279  1.6259 -0.0146 -0.2580
18915SOL     OW57877   1.887   8.932   7.273 -0.0271 -0.2310  0.0271
18915SOL    HW157878   1.895   9.015   7.320 -0.3358 -0.6434  0.8328
18915SOL    HW257879   1.827   8.950   7.201  1.9566  0.9251 -1.4530
18916SOL     OW57880   2.625   4.218   5.814  0.1003  0.3216  0.3496
18916SOL    HW157881   2.544   4.167   5.815  0.7539 -0.7399  1.3254
18916SOL    HW257882   2.691   4.160   5.852  0.8739  1.8673  1.5039
18917SOL     OW57883   7.000   4.052   6.693  0.4739  0.6785 -0.5059
18917SOL    HW157884   6.996   4.111   6.618 -1.1738 -0.4700 -1.3766
18917SOL    HW257885   6.980   4.108   6.768  0.6554  1.5599 -1.1047
18918SOL     OW57886   4.124   5.159   7.985  0.0835 -0.5333  0.0157
18918SOL    HW157887   4.075   5.085   8.023 -0.1282 -0.7556 -0.6649
18918SOL    HW257888   4.210   5.155   8.027  0.0805 -1.1858 -0.0165
18919SOL     OW57889   0.775   4.733   7.589 -0.6006 -0.0827 -0.0727
18919SOL    HW157890   0.765   4.808   7.530 -0.4531 -0.1275 -0.1537
18919SOL    HW257891   0.720   4.665   7.550  0.8941 -0.7120 -1.1519
18920SOL     OW57892   1.682   0.917   2.792 -0.0471 -0.0674 -0.3329
18920SOL    HW157893   1.738   0.859   2.843 -0.9578  0.4089  1.2957
18920SOL    HW257894   1.668   0.871   2.710  2.5923 -0.2504 -0.7621
18921SOL     OW57895   8.275   1.275   7.889 -0.3790  0.4277  0.0948
18921SOL    HW157896   8.330   1.213   7.841 -0.6765  0.9767 -0.9903
18921SOL    HW257897   8.214   1.309   7.824 -0.7853  1.2235  0.8580
18922SOL     OW57898   4.559   0.820   3.690 -0.7512  0.0669  0.3480
18922SOL    HW157899   4.576   0.831   3.597 -0.5460  0.6174  0.4484
18922SOL    HW257900   4.575   0.906   3.728 -2.3722  0.2569  0.6593
18923SOL     OW57901   6.946   0.891   6.398  0.3779  0.5513  0.3711
18923SOL    HW157902   6.988   0.891   6.312  0.0829  1.1534  0.2245
18923SOL    HW257903   6.906   0.804   6.405 -1.8190  1.3619 -1.2060
18924SOL     OW57904   2.948   7.389   3.997  0.3685 -0.1805  0.7284
18924SOL    HW157905   2.871   7.334   3.983  0.6981 -1.4720  3.2744
18924SOL    HW257906   2.916   7.478   3.991 -1.0679 -0.6893  0.5170
18925SOL     OW57907   4.586   7.046   8.241  0.0541  0.3511 -0.7458
18925SOL    HW157908   4.674   7.025   8.210 -0.2227 -0.0992 -1.2360
18925SOL    HW257909   4.563   6.975   8.300  0.9046  1.6205  1.2023
18926SOL     OW57910   3.513   3.731   1.964 -0.1659 -0.2568  0.9643
18926SOL    HW157911   3.561   3.813   1.971 -0.7597  0.1229  0.6313
18926SOL    HW257912   3.581   3.663   1.969  0.3462  0.2517  1.0341
18927SOL     OW57913   6.792   7.241   7.005 -0.3662 -0.5167 -0.4104
18927SOL    HW157914   6.849   7.166   6.987 -0.1956 -0.7308  0.9218
18927SOL    HW257915   6.706   7.214   6.975 -0.3043 -1.2473  0.0570
18928SOL     OW57916   1.950   4.737   0.062  0.4185 -0.0394 -0.1892
18928SOL    HW157917   1.962   4.765   0.153 -3.5168 -1.3658  0.9463
18928SOL    HW257918   1.974   4.644   0.063 -1.0418 -0.4463 -0.0361
18929SOL     OW57919   4.038   8.523   7.538 -0.2322  0.5018  0.5013
18929SOL    HW157920   3.994   8.448   7.577  0.9667 -0.3543  0.2881
18929SOL    HW257921   4.058   8.495   7.448  1.1811  0.6256  0.7400
18930SOL     OW57922   5.502   3.014   7.165 -0.1381  0.9455  0.4459
18930SOL    HW157923   5.562   2.944   7.138 -0.1966  1.4132 -0.9572
18930SOL    HW257924   5.456   3.039   7.085 -0.9734  1.7792  1.1632
18931SOL     OW57925   4.969   8.685   5.593 -0.5563 -0.7739  0.0112
18931SOL    HW157926   5.046   8.653   5.546 -1.2175 -2.5816  0.0896
18931SOL    HW257927   4.944   8.612   5.650 -2.1209 -0.0869  0.2440
18932SOL     OW57928   0.751   5.329   1.152  0.1310 -0.0324  0.0721
18932SOL    HW157929   0.791   5.244   1.168 -0.5171 -0.3765 -0.1107
18932SOL    HW257930   0.660   5.318   1.178 -0.6472 -0.2150 -2.3956
18933SOL     OW57931   2.725   3.763   0.753  0.1380  0.2761  0.1377
18933SOL    HW157932   2.693   3.699   0.818  1.1190 -0.3886 -0.0218
18933SOL    HW257933   2.647   3.813   0.730 -0.5557 -0.5179  0.6600
18934SOL     OW57934   6.022   3.437   1.036  0.0782 -0.4850  0.3456
18934SOL    HW157935   6.015   3.523   1.078  0.9433 -0.7786  1.1268
18934SOL    HW257936   5.932   3.414   1.014 -0.0900  0.9667 -0.6144
18935SOL     OW57937   2.111   8.175   8.330 -0.2535  0.6540 -0.2709
18935SOL    HW157938   2.061   8.255   8.344  2.3516  2.1251  1.3920
18935SOL    HW257939   2.063   8.108   8.378 -1.6694  1.5055 -0.4269
18936SOL     OW57940   0.279   4.966   2.192  0.1011  0.7051  0.2146
18936SOL    HW157941   0.326   4.929   2.117  0.3042  0.8327  0.2769
18936SOL    HW257942   0.348   4.991   2.253 -0.0655  0.5692  0.4602
18937SOL     OW57943   6.834   3.300   6.881  0.1577  0.0827 -0.6009
18937SOL    HW157944   6.858   3.326   6.970 -0.6232 -0.4375 -0.2270
18937SOL    HW257945   6.806   3.381   6.838 -0.7193  0.1312  0.0413
18938SOL     OW57946   0.712   8.570   0.173 -0.1988 -0.1040 -0.0099
18938SOL    HW157947   0.680   8.484   0.199 -0.4615  0.4347  1.5658
18938SOL    HW257948   0.734   8.614   0.256  0.5873  1.0883 -0.8175
18939SOL     OW57949   8.891   3.152   0.891  0.4227 -0.0410 -0.7094
18939SOL    HW157950   8.892   3.071   0.840  0.7786 -0.6087  0.1660
18939SOL    HW257951   8.812   3.198   0.863  0.4100 -0.5215 -1.4781
18940SOL     OW57952   2.087   8.951   8.214 -0.0719  0.0639 -0.0477
18940SOL    HW157953   2.003   8.991   8.237 -1.6263 -1.4929 -2.5250
18940SOL    HW257954   2.063   8.868   8.172  2.8562 -1.8563  1.7377
18941SOL     OW57955   0.213   0.705   8.405  0.3897  0.3056  0.5370
18941SOL    HW157956   0.255   0.774   8.457  1.1865 -0.8786  1.5261
18941SOL    HW257957   0.246   0.623   8.443 -1.3124 -0.6477  0.0575
18942SOL     OW57958   4.895   3.205   7.413 -0.0910 -0.1547 -0.2796
18942SOL    HW157959   4.904   3.151   7.334 -0.8502  0.9193 -1.1306
18942SOL    HW257960   4.973   3.184   7.465 -0.7022 -2.5917 -0.2101
18943SOL     OW57961   3.165   3.319   6.486 -0.1849 -0.3978 -0.2036
18943SOL    HW157962   3.192   3.232   6.455  0.0809  0.0191 -1.1726
18943SOL    HW257963   3.075   3.329   6.455 -1.4111 -1.5885  2.6164
18944SOL     OW57964   2.730   2.809   7.265 -0.0450 -0.0385  0.1166
18944SOL    HW157965   2.661   2.754   7.228 -0.1426  0.7225 -0.8536
18944SOL    HW257966   2.721   2.893   7.222  0.0067  0.8197  1.6898
18945SOL     OW57967   5.719   7.413   5.778 -0.2046  0.3126 -0.1787
18945SOL    HW157968   5.784   7.352   5.743  0.4045 -0.1840  1.6688
18945SOL    HW257969   5.692   7.466   5.703 -0.2794 -1.7801 -1.7114
18946SOL     OW57970   0.571   0.825   1.090 -0.2199 -0.1568  0.2846
18946SOL    HW157971   0.665   0.837   1.077 -0.5914  2.5316 -0.5344
18946SOL    HW257972   0.560   0.730   1.098  2.4279 -0.6227 -0.5040
18947SOL     OW57973   0.786   7.141   3.732 -0.6195 -0.6072  0.2231
18947SOL    HW157974   0.798   7.145   3.637 -0.8185  1.4429  0.2300
18947SOL    HW257975   0.698   7.175   3.747 -0.5340 -0.7684  1.1560
18948SOL     OW57976   3.174   7.363   0.768 -0.6229  0.5055  0.5220
18948SOL    HW157977   3.247   7.316   0.809 -0.5000 -1.1286 -1.3933
18948SOL    HW257978   3.197   7.365   0.675 -1.4966  2.8889  0.2872
18949SOL     OW57979   8.524   4.952   1.676  0.2473 -0.4499  0.2887
18949SOL    HW157980   8.477   4.917   1.752 -0.3106  2.5166  1.4467
18949SOL    HW257981   8.615   4.956   1.704  0.6037 -2.3875 -0.4615
18950SOL     OW57982   7.503   0.760   1.062 -0.4446 -0.2308 -0.4153
18950SOL    HW157983   7.565   0.695   1.094 -0.3032 -0.0658 -0.3575
18950SOL    HW257984   7.549   0.844   1.069 -0.6927 -0.1030 -0.3226
18951SOL     OW57985   6.621   4.020   5.055 -0.1383  0.2388  0.4424
18951SOL    HW157986   6.679   3.985   4.987 -0.5909 -1.3827  0.8683
18951SOL    HW257987   6.642   4.114   5.057  1.1878  0.0015 -0.6465
18952SOL     OW57988   5.363   3.356   2.244 -0.6789  0.0715  0.3120
18952SOL    HW157989   5.385   3.291   2.311  1.0076  0.1762 -0.0934
18952SOL    HW257990   5.349   3.304   2.165 -2.9720 -0.0808  0.7519
18953SOL     OW57991   0.215   2.425   7.259  0.5060  0.6249 -0.4057
18953SOL    HW157992   0.258   2.475   7.329 -0.6250  0.3589  0.4971
18953SOL    HW257993   0.180   2.348   7.302 -2.5263  1.7173 -0.7034
18954SOL     OW57994   5.272   5.402   3.355  0.0551 -0.3763 -0.0124
18954SOL    HW157995   5.303   5.449   3.433 -0.9515  0.3403 -0.0268
18954SOL    HW257996   5.213   5.463   3.311  0.5724 -0.7919 -1.3293
18955SOL     OW57997   6.478   2.540   4.242 -0.2788  0.6243  0.2368
18955SOL    HW157998   6.406   2.550   4.304 -0.4072  0.7796  0.0645
18955SOL    HW257999   6.544   2.603   4.272 -0.2499  0.5432  0.3441
18956SOL     OW58000   4.987   3.481   1.807  0.0848  0.4711  0.7903
18956SOL    HW158001   4.902   3.525   1.817  0.3816  1.2536  0.0040
18956SOL    HW258002   5.039   3.542   1.754  1.2406  0.1220  1.5042
18957SOL     OW58003   2.375   7.095   5.170 -0.2253  0.4658 -0.2873
18957SOL    HW158004   2.336   7.070   5.253  0.3196  0.2816 -0.0787
18957SOL    HW258005   2.465   7.119   5.192  0.8304 -2.2350 -1.1405
18958SOL     OW58006   1.422   3.675   1.369  0.2053 -0.1399 -0.2943
18958SOL    HW158007   1.337   3.630   1.370  0.2774 -0.2736  0.9594
18958SOL    HW258008   1.411   3.748   1.431 -0.0679  1.9278 -2.5891
18959SOL     OW58009   6.764   8.612   8.149 -0.0676 -0.0159  0.3484
18959SOL    HW158010   6.808   8.539   8.193 -0.2602 -1.1846 -1.2602
18959SOL    HW258011   6.670   8.591   8.156 -0.0857 -0.5242 -1.0130
18960SOL     OW58012   4.108   0.673   0.547  0.0754 -0.1606 -0.5900
18960SOL    HW158013   4.201   0.681   0.527  0.2754 -0.9463 -0.0271
18960SOL    HW258014   4.070   0.631   0.470  0.4143 -0.9526 -0.3406
18961SOL     OW58015   7.342   1.225   4.713  0.1387 -0.4576 -0.2668
18961SOL    HW158016   7.410   1.255   4.653  0.1811  4.1507  1.6622
18961SOL    HW258017   7.389   1.202   4.793 -0.3406 -0.2709  0.0755
18962SOL     OW58018   4.480   6.990   1.035  0.0268  0.0169  0.3047
18962SOL    HW158019   4.557   6.934   1.034 -0.2927 -0.4251  0.3202
18962SOL    HW258020   4.442   6.981   0.947 -0.0568  0.1608  0.3254
18963SOL     OW58021   0.138   5.561   8.640 -0.4614 -0.2554 -0.1040
18963SOL    HW158022   0.192   5.508   8.698  3.1457  1.2782 -1.8050
18963SOL    HW258023   0.117   5.502   8.566 -0.1844 -0.5388  0.0424
18964SOL     OW58024   8.813   3.506   0.798  0.5187  0.2684 -0.0491
18964SOL    HW158025   8.830   3.465   0.883 -1.5546  0.7640  0.6505
18964SOL    HW258026   8.718   3.504   0.788  0.7006  0.2755 -2.3595
18965SOL     OW58027   8.961   6.540   1.778 -0.0222  0.5752 -0.1867
18965SOL    HW158028   9.001   6.515   1.695 -2.2274  1.5794 -1.6426
18965SOL    HW258029   8.925   6.627   1.762  0.2671  1.1875  2.1370
18966SOL     OW58030   6.367   6.865   0.198  0.1489 -0.7718  0.4400
18966SOL    HW158031   6.315   6.917   0.259 -0.9272 -0.4747 -0.6885
18966SOL    HW258032   6.412   6.930   0.144  1.3086 -1.0310  1.0812
18967SOL     OW58033   1.771   4.771   3.103  0.0068 -0.2884  0.3469
18967SOL    HW158034   1.678   4.755   3.083 -0.3598  0.6959  1.1784
18967SOL    HW258035   1.770   4.845   3.164  1.4296  0.8566 -0.9290
18968SOL     OW58036   5.568   3.906   8.039  0.6628 -0.2334 -0.9410
18968SOL    HW158037   5.601   3.923   7.951  1.2476 -1.1551 -0.9207
18968SOL    HW258038   5.577   3.989   8.086 -0.0222  0.3730 -1.8536
18969SOL     OW58039   3.983   2.962   8.375  0.2812  0.0087  0.4411
18969SOL    HW158040   4.036   2.882   8.378 -0.2515 -0.4024 -0.5742
18969SOL    HW258041   3.987   2.996   8.464  0.5449 -1.1328  0.8892
18970SOL     OW58042   5.892   8.307   7.194 -0.0205  0.2842  0.2519
18970SOL    HW158043   5.982   8.337   7.211 -0.1133  0.6852  0.0506
18970SOL    HW258044   5.882   8.230   7.249  0.2125  0.6523  0.8220
18971SOL     OW58045   3.290   5.951   1.928 -0.3447  0.2435 -0.6487
18971SOL    HW158046   3.267   5.985   2.014  0.1952  1.2237 -0.8656
18971SOL    HW258047   3.212   5.903   1.899 -1.9739  2.8896 -1.0877
18972SOL     OW58048   2.828   1.387   0.858 -0.2261 -0.0501  0.0889
18972SOL    HW158049   2.772   1.331   0.805 -0.1563  0.4776 -0.5511
18972SOL    HW258050   2.795   1.475   0.843  0.6804  0.2530 -0.1882
18973SOL     OW58051   9.068   2.728   3.507  0.7346 -0.4311 -0.2069
18973SOL    HW158052   9.051   2.640   3.474  0.8794 -0.1832 -0.9626
18973SOL    HW258053   9.077   2.782   3.429 -0.4063  0.4672  0.2507
18974SOL     OW58054   3.017   6.721   3.751 -0.1417 -0.3910  0.3961
18974SOL    HW158055   2.941   6.663   3.761 -1.1459  0.8210 -0.0627
18974SOL    HW258056   3.007   6.787   3.819  1.1983 -0.9241  1.1536
18975SOL     OW58057   5.401   7.174   1.010 -0.0064  0.0828  0.7286
18975SOL    HW158058   5.438   7.091   0.981  1.4652  1.6812 -2.4191
18975SOL    HW258059   5.321   7.149   1.057  0.7715 -3.1053  0.5744
18976SOL     OW58060   5.295   0.598   3.797 -0.5083 -0.3961  0.6080
18976SOL    HW158061   5.231   0.552   3.743  1.7317 -1.1839 -1.5341
18976SOL    HW258062   5.314   0.538   3.869  1.0263 -2.1756 -1.1732
18977SOL     OW58063   6.046   6.517   5.265  0.3377  0.1512  0.5400
18977SOL    HW158064   6.013   6.575   5.334 -1.2516 -0.6633  0.5009
18977SOL    HW258065   6.005   6.550   5.185  1.0750  0.2292  0.1848
18978SOL     OW58066   6.186   3.861   8.571 -0.7100 -0.4527  0.0683
18978SOL    HW158067   6.247   3.889   8.639 -0.2163 -0.7986 -0.2270
18978SOL    HW258068   6.105   3.841   8.619 -0.1028 -1.5486  0.6754
18979SOL     OW58069   7.887   6.765   1.746  0.1664  0.1961  0.1814
18979SOL    HW158070   7.946   6.831   1.783  1.2824 -1.2181  1.0356
18979SOL    HW258071   7.941   6.686   1.739 -0.9939 -0.5204 -1.2663
18980SOL     OW58072   5.416   5.310   8.098  0.0842  0.5273  0.3684
18980SOL    HW158073   5.455   5.237   8.145  1.0174  0.8161  0.0867
18980SOL    HW258074   5.352   5.270   8.040  0.9901 -0.1520 -0.2008
18981SOL     OW58075   2.979   2.913   2.222 -0.1399 -0.5294 -0.9554
18981SOL    HW158076   2.969   3.008   2.233 -1.3955 -0.6862 -0.5912
18981SOL    HW258077   3.073   2.898   2.228 -0.0694  0.4416  1.2340
18982SOL     OW58078   1.321   6.059   8.872  0.5232  0.0079  0.3466
18982SOL    HW158079   1.344   6.012   8.791  1.1401 -0.4783  0.7854
18982SOL    HW258080   1.232   6.031   8.892 -0.0811  1.0274 -0.7750
18983SOL     OW58081   5.770   4.984   0.235 -0.6066 -0.2488 -0.9028
18983SOL    HW158082   5.741   5.074   0.251  1.4105  0.1179  1.3866
18983SOL    HW258083   5.826   4.990   0.158 -2.9209 -0.1908 -2.6702
18984SOL     OW58084   8.181   5.283   7.986 -0.1411 -0.3812  0.6376
18984SOL    HW158085   8.258   5.316   8.032  0.4771 -0.7077 -0.1294
18984SOL    HW258086   8.182   5.189   8.001 -0.7438 -0.3161  1.1252
18985SOL     OW58087   5.532   0.703   4.054  0.7337 -0.3600 -0.0065
18985SOL    HW158088   5.513   0.610   4.049 -0.6925 -0.1109  0.2570
18985SOL    HW258089   5.623   0.711   4.024  1.2167 -1.9324  0.9340
18986SOL     OW58090   1.006   1.722   1.700  0.1843 -0.1653  0.3753
18986SOL    HW158091   0.990   1.812   1.730 -1.5371 -0.7144  1.2363
18986SOL    HW258092   1.057   1.733   1.620  1.1828  1.5120  1.1721
18987SOL     OW58093   4.782   5.692   4.478 -0.4690 -0.2320 -0.0512
18987SOL    HW158094   4.727   5.755   4.525 -0.0471 -0.0730  0.2346
18987SOL    HW258095   4.779   5.720   4.387 -1.8725 -0.9569 -0.2586
18988SOL     OW58096   2.289   2.745   1.018  0.5990 -0.0390 -0.3020
18988SOL    HW158097   2.211   2.705   1.057 -0.2747  1.3448 -0.5840
18988SOL    HW258098   2.282   2.724   0.924 -0.6727  1.9710 -0.7135
18989SOL     OW58099   5.994   6.169   2.070 -0.7540  0.1355  0.0465
18989SOL    HW158100   6.026   6.151   2.158 -1.2269 -2.1625 -0.1823
18989SOL    HW258101   6.026   6.095   2.018 -0.3187  1.5326 -1.7811
18990SOL     OW58102   6.407   0.085   1.569  0.2106  0.0418 -0.0270
18990SOL    HW158103   6.396  -0.003   1.605 -3.2432  0.3919  0.1253
18990SOL    HW258104   6.426   0.071   1.477  0.4603 -0.8738  0.1530
18991SOL     OW58105   0.893   5.139   3.475 -0.2274 -0.1120 -0.0406
18991SOL    HW158106   0.980   5.106   3.497 -0.7000 -0.2245  1.8113
18991SOL    HW258107   0.880   5.212   3.535 -1.7848 -0.7021  0.3807
18992SOL     OW58108   7.849   3.507   1.136 -0.2973 -0.4569 -0.5990
18992SOL    HW158109   7.849   3.536   1.227  0.6899 -3.6214  0.5396
18992SOL    HW258110   7.800   3.425   1.137 -0.9663 -0.1651 -3.1053
18993SOL     OW58111   0.374   0.187   0.471  0.1914 -0.5842 -0.0666
18993SOL    HW158112   0.289   0.215   0.436 -0.8040 -3.0891  0.1263
18993SOL    HW258113   0.357   0.172   0.564  1.3005  0.4394  0.3186
18994SOL     OW58114   9.025   1.262   8.477 -0.5335  0.4058  0.0538
18994SOL    HW158115   8.978   1.298   8.551  0.3526  0.6684  0.5071
18994SOL    HW258116   8.982   1.178   8.459 -1.2145  0.6786  0.3940
18995SOL     OW58117   9.067   0.866   6.380 -0.5723  0.1940  0.1014
18995SOL    HW158118   9.124   0.838   6.452  0.4209  0.6821 -0.4686
18995SOL    HW258119   9.102   0.951   6.354 -0.9883  0.0783 -0.8762
18996SOL     OW58120   4.305   3.286   9.001 -0.3878  0.6201 -0.5157
18996SOL    HW158121   4.312   3.373   9.041 -1.3987  0.1232  0.8206
18996SOL    HW258122   4.389   3.244   9.021 -0.1633  1.0344 -0.5683
18997SOL     OW58123   1.016   7.498   0.615  0.5257  0.1006 -0.4365
18997SOL    HW158124   1.020   7.475   0.708  0.2559  0.6437 -0.2916
18997SOL    HW258125   1.060   7.583   0.610  1.7431 -0.5390 -1.0088
18998SOL     OW58126   8.925   5.008   4.103  0.0631 -0.2581 -0.1393
18998SOL    HW158127   8.869   4.978   4.031 -0.8966  1.7650 -0.3141
18998SOL    HW258128   8.923   5.104   4.096  1.2253 -0.0625  1.6364
18999SOL     OW58129   7.101   1.619   1.586 -0.4951 -0.2138 -0.1051
18999SOL    HW158130   7.061   1.698   1.623 -0.5649 -0.3856  0.1912
18999SOL    HW258131   7.150   1.581   1.659 -1.9748 -1.4532  0.2880
19000SOL     OW58132   6.561   5.067   7.599 -0.6840  0.0684  0.1556
19000SOL    HW158133   6.628   5.131   7.623 -0.0408 -0.5064 -0.0500
19000SOL    HW258134   6.566   5.061   7.503 -0.3988 -0.6287  0.2043
19001SOL     OW58135   3.731   1.796   7.825  0.2223  0.1370 -0.2690
19001SOL    HW158136   3.717   1.785   7.919  1.1633 -0.0264 -0.1430
19001SOL    HW258137   3.691   1.880   7.805 -1.0994 -0.3915  0.0304
19002SOL     OW58138   5.375   8.506   2.034 -0.4498 -0.2624 -0.5101
19002SOL    HW158139   5.445   8.490   2.097  0.3052 -0.8770 -1.4741
19002SOL    HW258140   5.322   8.426   2.037  0.2010 -0.7497 -1.3950
19003SOL     OW58141   5.343   7.919   7.938 -0.4294  0.0207 -0.1778
19003SOL    HW158142   5.437   7.930   7.955 -0.6346  0.5090  0.7219
19003SOL    HW258143   5.311   7.867   8.012 -0.9567  0.2648 -0.2288
19004SOL     OW58144   6.670   2.951   4.277  0.1215  0.6776 -0.5382
19004SOL    HW158145   6.587   2.981   4.313 -1.2324 -0.4333 -2.5708
19004SOL    HW258146   6.694   2.877   4.333 -1.2325 -0.1611 -1.0243
19005SOL     OW58147   6.906   6.210   7.593  0.6838  0.0302  0.2333
19005SOL    HW158148   6.927   6.291   7.546  0.3575  0.0323  0.0899
19005SOL    HW258149   6.936   6.227   7.683 -0.0794  0.6112  0.3961
19006SOL     OW58150   7.501   7.340   2.657 -0.3208  0.0725  0.0410
19006SOL    HW158151   7.413   7.352   2.621 -0.0709  0.6674 -0.3792
19006SOL    HW258152   7.491   7.356   2.750 -0.8911 -1.0460  0.1898
19007SOL     OW58153   7.308   4.842   4.701 -0.4487  0.0429  0.6497
19007SOL    HW158154   7.324   4.810   4.612 -2.1979 -0.0660  0.3412
19007SOL    HW258155   7.283   4.934   4.689  2.3079  0.9737  1.3388
19008SOL     OW58156   2.306   8.047   4.443 -0.0468 -0.0443 -0.5705
19008SOL    HW158157   2.276   7.964   4.480  0.2911 -0.1091 -0.4355
19008SOL    HW258158   2.362   8.084   4.511  0.4673 -0.0966 -0.9658
19009SOL     OW58159   9.108   0.544   4.189 -0.6590  0.2045 -0.0116
19009SOL    HW158160   9.042   0.522   4.123  0.9594 -2.8704 -0.7667
19009SOL    HW258161   9.086   0.490   4.265  0.6556 -0.4750 -0.0903
19010SOL     OW58162   0.498   7.042   3.954  0.5960  0.1153 -0.1229
19010SOL    HW158163   0.490   6.976   3.885 -2.0627  0.2632 -0.0598
19010SOL    HW258164   0.413   7.087   3.954  1.0225  1.0481  2.3000
19011SOL     OW58165   7.072   7.218   2.729 -0.4812  0.0931  0.0918
19011SOL    HW158166   6.984   7.246   2.755 -1.3572 -2.6583  0.3948
19011SOL    HW258167   7.070   7.123   2.737  1.9846 -0.1889 -1.6373
19012SOL     OW58168   7.027   8.275   0.275 -0.0635  0.2364 -0.3552
19012SOL    HW158169   7.080   8.355   0.272 -2.2232  1.7512 -1.4679
19012SOL    HW258170   6.968   8.289   0.349 -0.0779 -0.6121 -0.2025
19013SOL     OW58171   5.354   2.568   4.069 -0.3468 -0.7402  0.5067
19013SOL    HW158172   5.412   2.556   4.144  1.4258 -2.3629 -1.0186
19013SOL    HW258173   5.364   2.661   4.047 -0.8353 -0.2525  2.1814
19014SOL     OW58174   8.271   1.250   3.838  0.1463  0.4942  0.2725
19014SOL    HW158175   8.196   1.220   3.889  2.1224 -1.4268  2.2558
19014SOL    HW258176   8.334   1.280   3.904  1.5002  1.1963 -1.2763
19015SOL     OW58177   6.803   3.022   5.594  0.5710 -0.4394  0.6723
19015SOL    HW158178   6.818   3.037   5.501  0.8473 -1.0678  0.6083
19015SOL    HW258179   6.790   3.109   5.631  0.3452 -0.1951  0.0269
19016SOL     OW58180   4.662   2.459   7.048 -1.0626 -0.1973 -0.1639
19016SOL    HW158181   4.596   2.494   7.108 -3.0018 -1.7696 -1.2762
19016SOL    HW258182   4.666   2.523   6.977 -1.8359 -0.3694 -0.3688
19017SOL     OW58183   5.378   2.820   7.585 -0.3477 -0.3355 -0.1235
19017SOL    HW158184   5.334   2.800   7.502  2.0053 -1.2333 -1.2218
19017SOL    HW258185   5.387   2.915   7.585 -1.3767 -0.2178 -0.3043
19018SOL     OW58186   0.941   3.641   5.280 -0.3858 -0.1813 -0.5253
19018SOL    HW158187   0.978   3.554   5.289 -0.1969 -0.1508 -0.9457
19018SOL    HW258188   1.015   3.700   5.299 -0.0020 -0.1189 -2.0667
19019SOL     OW58189   7.409   1.225   7.557  0.3626 -0.5115 -0.1292
19019SOL    HW158190   7.338   1.286   7.576 -0.1417 -0.8775 -0.8227
19019SOL    HW258191   7.429   1.185   7.642  1.5070  1.4381  0.5976
19020SOL     OW58192   3.581   5.098   6.212 -0.1860 -0.2705 -0.4197
19020SOL    HW158193   3.533   5.179   6.199  1.1247  0.4230 -1.1602
19020SOL    HW258194   3.655   5.104   6.152  0.1602 -1.8382 -0.1954
19021SOL     OW58195   4.878   3.327   3.426 -0.1918 -0.0800  0.2728
19021SOL    HW158196   4.792   3.294   3.454  0.5531 -2.8504 -0.3523
19021SOL    HW258197   4.885   3.300   3.334  1.7174 -0.8039  0.5910
19022SOL     OW58198   8.669   4.447   2.494 -0.0697  0.1341 -0.6948
19022SOL    HW158199   8.611   4.492   2.432 -0.2566  1.2687  0.2757
19022SOL    HW258200   8.618   4.439   2.574  0.3418 -0.8806 -0.5158
19023SOL     OW58201   6.363   5.476   5.000  0.0795  0.1169 -0.2183
19023SOL    HW158202   6.315   5.510   4.924 -0.7528  0.2253  0.3366
19023SOL    HW258203   6.370   5.382   4.984  0.0033  0.1568 -0.4905
19024SOL     OW58204   2.823   8.099   6.459  0.1808 -0.7785 -0.1554
19024SOL    HW158205   2.829   8.079   6.366  0.5548  1.5467 -0.7136
19024SOL    HW258206   2.855   8.021   6.504 -0.4116 -2.0963 -1.9422
19025SOL     OW58207   1.409   1.898   8.730  0.2763 -0.3825 -0.5189
19025SOL    HW158208   1.484   1.861   8.684  1.1234  0.1638  0.3627
19025SOL    HW258209   1.332   1.869   8.681  0.9865 -2.0398 -0.6893
19026SOL     OW58210   2.064   6.434   1.864  0.5152 -0.0709 -0.0774
19026SOL    HW158211   2.043   6.505   1.804  0.0119  0.6502  0.9205
19026SOL    HW258212   2.090   6.478   1.945  2.0068 -0.9974 -0.0030
19027SOL     OW58213   3.728   8.666   2.884 -0.8897 -0.3300  0.1761
19027SOL    HW158214   3.811   8.675   2.837 -1.7877  2.4815 -1.1039
19027SOL    HW258215   3.751   8.681   2.976  0.3407 -2.2189  0.2419
19028SOL     OW58216   7.045   2.946   6.204  0.2360  0.4686  0.1460
19028SOL    HW158217   6.981   2.982   6.266  0.7306  0.9063  0.4051
19028SOL    HW258218   7.064   2.858   6.238 -0.4391  0.2237 -0.0911
19029SOL     OW58219   1.251   6.576   1.187 -0.2456 -0.5801 -0.1332
19029SOL    HW158220   1.331   6.594   1.238  0.0016  1.2638 -1.0938
19029SOL    HW258221   1.180   6.590   1.250 -0.0124  2.9514 -0.4626
19030SOL     OW58222   4.961   5.559   3.830 -0.0058  0.2711 -0.1222
19030SOL    HW158223   4.874   5.593   3.811 -0.1471 -0.3310 -0.5869
19030SOL    HW258224   4.992   5.523   3.747  1.0982  1.3467 -0.2214
19031SOL     OW58225   6.824   5.949   7.710  0.6141 -0.4786  0.0885
19031SOL    HW158226   6.729   5.933   7.715  0.6163 -0.1941  1.2129
19031SOL    HW258227   6.831   6.045   7.706  0.8546 -0.4988  0.0539
19032SOL     OW58228   3.162   0.191   8.524 -0.1832 -0.3540 -0.0687
19032SOL    HW158229   3.083   0.194   8.578  0.3303  0.6098  0.6676
19032SOL    HW258230   3.142   0.247   8.449 -0.5854 -1.0044 -0.4593
19033SOL     OW58231   7.338   4.626   8.337  0.3246 -0.0520 -0.5079
19033SOL    HW158232   7.305   4.537   8.344  0.2787 -0.0065 -0.1492
19033SOL    HW258233   7.284   4.677   8.398  1.2991 -0.0444  0.3732
19034SOL     OW58234   6.228   2.124   5.047  0.0123  0.0394  0.1213
19034SOL    HW158235   6.240   2.118   5.142 -1.1485  2.1965  0.4773
19034SOL    HW258236   6.314   2.148   5.014 -0.3063  3.0463  1.1545
19035SOL     OW58237   5.382   7.937   4.847  0.2633 -0.4404 -0.1296
19035SOL    HW158238   5.432   7.860   4.874  0.8960  0.9517  3.2313
19035SOL    HW258239   5.425   8.011   4.891 -1.6458  1.5329 -1.3443
19036SOL     OW58240   3.838   1.241   1.407 -0.3996  0.2963  0.2496
19036SOL    HW158241   3.929   1.266   1.392 -0.2620  0.2832  1.0490
19036SOL    HW258242   3.798   1.318   1.447 -0.4298 -0.1181  1.0297
19037SOL     OW58243   4.108   2.004   5.994  0.5554 -0.8203  0.0705
19037SOL    HW158244   4.165   1.966   5.927  3.9264  1.0686  1.5894
19037SOL    HW258245   4.092   2.093   5.965 -0.8208 -0.9969  0.2064
19038SOL     OW58246   7.236   0.732   8.113 -0.7024 -0.2584 -0.2236
19038SOL    HW158247   7.189   0.702   8.191 -0.0677  0.1821  0.3378
19038SOL    HW258248   7.316   0.680   8.110 -0.6173 -0.1198 -0.4538
19039SOL     OW58249   8.039   8.259   0.437  0.0105  0.6818 -0.3739
19039SOL    HW158250   8.069   8.273   0.527 -0.3341  0.2016 -0.1792
19039SOL    HW258251   8.038   8.164   0.427 -2.0393  0.6270 -0.1391
19040SOL     OW58252   1.735   8.084   0.462 -0.6728 -0.2643  0.1966
19040SOL    HW158253   1.786   8.120   0.389 -3.1586  0.9218 -1.1007
19040SOL    HW258254   1.800   8.053   0.525  1.5813  0.0485 -1.8536
19041SOL     OW58255   0.193   3.899   2.431  0.2232 -1.1741 -0.3469
19041SOL    HW158256   0.228   3.985   2.406 -0.0111 -1.4187 -1.5715
19041SOL    HW258257   0.270   3.848   2.457  0.3145 -0.4590  0.9080
19042SOL     OW58258   2.079   4.237   4.915 -0.0473  0.2131 -0.0757
19042SOL    HW158259   2.083   4.231   5.011 -0.2313 -1.4646 -0.1390
19042SOL    HW258260   1.986   4.243   4.895 -0.2745 -2.3855 -0.2076
19043SOL     OW58261   6.073   3.810   9.020 -0.1861  0.0659 -0.0197
19043SOL    HW158262   5.978   3.820   9.009 -0.1853  0.9160  0.6097
19043SOL    HW258263   6.092   3.721   8.990 -1.1765 -0.0955 -0.1967
19044SOL     OW58264   6.151   3.209   0.599 -0.2477  0.8790 -0.0446
19044SOL    HW158265   6.146   3.273   0.670 -1.0609  1.1044 -0.2962
19044SOL    HW258266   6.079   3.149   0.615  0.2045  0.3050 -0.0944
19045SOL     OW58267   2.241   4.744   3.250  0.0984 -0.7065 -0.2182
19045SOL    HW158268   2.184   4.810   3.289  0.1138  0.9322 -2.7677
19045SOL    HW258269   2.284   4.702   3.325  1.5872  3.4869  1.5699
19046SOL     OW58270   0.614   8.846   4.517  0.3666 -0.1217  0.2594
19046SOL    HW158271   0.613   8.866   4.610  0.9945  0.8806  0.0642
19046SOL    HW258272   0.658   8.761   4.512  1.5310  0.4215  0.7927
19047SOL     OW58273   2.203   3.311   0.900 -0.1248 -0.1984  0.6987
19047SOL    HW158274   2.284   3.333   0.945 -0.0246 -0.5094  0.6741
19047SOL    HW258275   2.186   3.219   0.923  0.7826 -0.8899 -1.1570
19048SOL     OW58276   1.315   7.288   1.001 -0.6069 -0.5674 -0.5595
19048SOL    HW158277   1.373   7.286   0.925  1.3994  0.5583  0.8746
19048SOL    HW258278   1.295   7.196   1.018  0.9432 -1.0088 -0.9616
19049SOL     OW58279   1.976   3.074   7.491 -0.5060  0.2130  0.3374
19049SOL    HW158280   1.888   3.055   7.524 -1.0440 -1.3864 -1.8069
19049SOL    HW258281   1.965   3.082   7.397  2.0065 -2.6811 -0.3538
19050SOL     OW58282   5.500   2.909   1.047 -0.0410 -0.3657 -0.3563
19050SOL    HW158283   5.524   2.954   1.128 -1.6140 -1.5122  0.8177
19050SOL    HW258284   5.431   2.964   1.009 -1.5434 -1.4031  0.7709
19051SOL     OW58285   3.290   2.503   4.565 -0.6932  0.3300 -0.7159
19051SOL    HW158286   3.275   2.427   4.508  1.9242  0.1829 -1.3281
19051SOL    HW258287   3.381   2.526   4.550 -0.4963  1.5746  1.9418
19052SOL     OW58288   4.476   5.469   6.878 -0.1758  0.4808 -0.2007
19052SOL    HW158289   4.408   5.411   6.845 -0.4047  0.8918 -0.4533
19052SOL    HW258290   4.468   5.464   6.973 -2.2721  2.4849 -0.1765
19053SOL     OW58291   3.894   0.378   0.539  0.3586  0.3920 -0.4672
19053SOL    HW158292   3.808   0.343   0.514  0.5132 -0.4671  0.1346
19053SOL    HW258293   3.949   0.363   0.463 -0.0886  1.2030 -0.9608
19054SOL     OW58294   5.722   3.785   3.227  0.6293  0.1527  0.0536
19054SOL    HW158295   5.712   3.781   3.132 -1.7585 -1.7094  0.2659
19054SOL    HW258296   5.674   3.863   3.254 -2.5849 -1.6179 -0.0521
19055SOL     OW58297   2.220   2.191   5.253 -0.0742  0.5521 -0.4605
19055SOL    HW158298   2.250   2.187   5.344 -1.9061  0.2787  0.1760
19055SOL    HW258299   2.227   2.284   5.229 -1.4752  0.9901  0.6818
19056SOL     OW58300   9.035   3.921   4.405 -0.0874  0.2375 -0.2797
19056SOL    HW158301   9.075   3.846   4.362  0.1426  0.9404 -1.3389
19056SOL    HW258302   9.107   3.963   4.453 -0.0584  0.1705 -0.2648
19057SOL     OW58303   5.217   3.129   2.420 -0.2275  0.0638  0.2708
19057SOL    HW158304   5.190   3.037   2.419  2.3496 -0.8038  1.8708
19057SOL    HW258305   5.311   3.127   2.404  0.0792  2.3268  1.3700
19058SOL     OW58306   5.904   3.598   0.556 -0.0228  0.2647 -0.0888
19058SOL    HW158307   5.853   3.549   0.620 -1.3626  0.5002 -0.9356
19058SOL    HW258308   5.930   3.532   0.491  1.1843  0.0593  0.5613
19059SOL     OW58309   0.984   2.407   3.969 -0.2023 -0.3325  0.1399
19059SOL    HW158310   1.013   2.334   3.914  0.2807  1.8049 -2.7139
19059SOL    HW258311   0.889   2.400   3.970 -0.1846 -0.7684 -0.4869
19060SOL     OW58312   6.379   0.074   6.429 -0.1693  0.2607 -0.5387
19060SOL    HW158313   6.309   0.111   6.483 -0.2552 -0.1968 -0.3365
19060SOL    HW258314   6.454   0.131   6.447 -0.0423 -0.1976  0.4922
19061SOL     OW58315   6.803   6.267   7.919 -0.6734 -0.2729 -0.2720
19061SOL    HW158316   6.777   6.280   8.010  1.1796  0.1881  0.2412
19061SOL    HW258317   6.766   6.342   7.872 -0.5414  0.1881  0.3533
19062SOL     OW58318   1.502   1.094   9.086 -0.7190 -0.7770  0.0109
19062SOL    HW158319   1.492   1.122   9.177 -0.8719 -0.6502 -0.0441
19062SOL    HW258320   1.578   1.142   9.054 -1.3513  0.0585 -0.2675
19063SOL     OW58321   2.116   2.404   3.303 -0.2311 -0.2683  0.5790
19063SOL    HW158322   2.187   2.450   3.348  0.5782 -1.5660  0.7035
19063SOL    HW258323   2.042   2.410   3.363  0.3572 -0.5595  1.3604
19064SOL     OW58324   2.983   5.067   5.506 -0.3088 -0.0339 -0.1725
19064SOL    HW158325   2.981   4.971   5.507 -0.3781 -0.0401 -0.6797
19064SOL    HW258326   3.020   5.089   5.421 -1.7049  0.4122 -0.6846
19065SOL     OW58327   2.028   5.317   5.500  0.1552  0.4722  0.1426
19065SOL    HW158328   2.003   5.346   5.587 -1.3233 -0.0192 -0.0945
19065SOL    HW258329   1.949   5.327   5.447  0.9608  0.5573 -1.1027
19066SOL     OW58330   2.342   0.884   5.497  0.0343  0.6625 -0.6809
19066SOL    HW158331   2.387   0.806   5.463 -0.3624 -0.7951  1.8434
19066SOL    HW258332   2.269   0.897   5.437 -0.7029 -1.8347 -0.4736
19067SOL     OW58333   1.476   6.854   6.614  0.0625  0.5969 -0.0364
19067SOL    HW158334   1.494   6.877   6.523  1.4230  0.8530  0.2751
19067SOL    HW258335   1.511   6.766   6.624 -0.8711  0.2259  0.0168
19068SOL     OW58336   0.601   8.381   2.747  0.5035  0.0179 -0.6825
19068SOL    HW158337   0.635   8.431   2.673  2.3475 -1.8431 -1.1817
19068SOL    HW258338   0.639   8.294   2.736 -0.7289 -0.8416  1.4155
19069SOL     OW58339   5.718   0.146   3.410  0.5511  0.6927 -0.1278
19069SOL    HW158340   5.712   0.242   3.408 -1.7384  0.6138 -0.0983
19069SOL    HW258341   5.645   0.119   3.465  0.5214 -1.1156 -0.9812
19070SOL     OW58342   6.616   6.784   7.201  0.1439  0.3082 -0.4518
19070SOL    HW158343   6.528   6.810   7.173  0.8873  2.3471 -1.0134
19070SOL    HW258344   6.604   6.696   7.236 -2.1580  0.5861 -0.3695
19071SOL     OW58345   5.336   2.849   0.120  0.3099  0.2255 -0.0158
19071SOL    HW158346   5.345   2.823   0.028  2.4366 -0.0343  0.2161
19071SOL    HW258347   5.351   2.943   0.120 -0.7998  0.4069 -0.0605
19072SOL     OW58348   6.098   2.827   5.038  0.1193  0.3668 -1.1836
19072SOL    HW158349   6.163   2.857   5.101 -0.0684  1.8177 -1.6292
19072SOL    HW258350   6.130   2.860   4.954  0.0248 -0.9650 -1.7672
19073SOL     OW58351   3.147   8.856   4.162  0.1230 -0.4610 -0.0794
19073SOL    HW158352   3.136   8.908   4.083  1.5755 -0.7509 -0.4909
19073SOL    HW258353   3.179   8.771   4.132  1.1941 -0.4041  0.8339
19074SOL     OW58354   5.126   5.005   3.022 -0.3415 -0.1109  0.4632
19074SOL    HW158355   5.154   5.032   3.110  1.3871  0.9522 -0.3562
19074SOL    HW258356   5.039   5.043   3.012  0.2664  1.5093  0.9804
19075SOL     OW58357   5.413   5.595   5.956  0.2008 -0.7506 -0.6234
19075SOL    HW158358   5.348   5.634   6.014 -1.3186 -1.4826 -1.7699
19075SOL    HW258359   5.451   5.523   6.008 -1.2065 -1.4664 -0.5565
19076SOL     OW58360   2.290   1.498   6.071  0.1493  0.0066  0.2405
19076SOL    HW158361   2.231   1.574   6.075  0.8683  0.6382 -0.8056
19076SOL    HW258362   2.247   1.438   6.010 -0.3377 -0.3837  0.9435
19077SOL     OW58363   3.157   6.009   0.882 -0.5330 -0.0817  0.1310
19077SOL    HW158364   3.069   6.023   0.849 -0.5254 -1.4404 -0.5241
19077SOL    HW258365   3.212   6.008   0.804  0.0831  0.7763  0.5333
19078SOL     OW58366   7.150   1.735   3.120 -0.0101  0.3937  0.8364
19078SOL    HW158367   7.100   1.661   3.154  0.6938 -0.1427  0.7220
19078SOL    HW258368   7.091   1.810   3.130 -0.6651 -0.1460  1.1147
19079SOL     OW58369   0.513   7.180   2.975  0.5032 -0.7656 -0.2921
19079SOL    HW158370   0.492   7.173   2.882  0.9754 -0.4830 -0.4187
19079SOL    HW258371   0.594   7.230   2.978 -0.3655  0.6412  0.3535
19080SOL     OW58372   2.941   6.068   2.847  0.3417  0.0450  0.7487
19080SOL    HW158373   2.925   6.143   2.904  0.3292  0.9084 -0.3559
19080SOL    HW258374   2.869   6.070   2.783 -0.3173 -1.5955  1.3705
19081SOL     OW58375   8.174   0.540   7.229  0.1346 -0.0419 -0.6263
19081SOL    HW158376   8.145   0.512   7.142  0.8270 -0.5080 -0.7154
19081SOL    HW258377   8.260   0.501   7.239  0.1103  0.1090  0.2303
19082SOL     OW58378   8.464   2.625   0.040  0.0673 -0.2474  0.2010
19082SOL    HW158379   8.435   2.715   0.054 -2.0081 -0.6571 -1.0516
19082SOL    HW258380   8.541   2.633  -0.016  0.6520  0.7782  1.1201
19083SOL     OW58381   0.154   1.743   2.133  0.6230  0.0399 -0.1430
19083SOL    HW158382   0.176   1.720   2.043  0.8352  0.5442 -0.2199
19083SOL    HW258383   0.058   1.738   2.135  0.6129  0.0867 -0.4116
19084SOL     OW58384   5.856   4.090   7.291  0.6377  0.7117  0.4879
19084SOL    HW158385   5.892   4.171   7.326  0.7390  0.3782  1.1765
19084SOL    HW258386   5.797   4.058   7.360  0.8956  0.0034  0.3888
19085SOL     OW58387   8.328   2.905   7.061  0.1371 -0.5024  0.2411
19085SOL    HW158388   8.318   2.931   7.153 -1.3032 -0.7130  0.1667
19085SOL    HW258389   8.300   2.981   7.011 -0.8372 -0.9944  0.0045
19086SOL     OW58390   8.934   6.190   5.693  0.0720 -0.1521 -0.3552
19086SOL    HW158391   8.940   6.284   5.678 -2.2532 -0.0886 -1.2662
19086SOL    HW258392   8.929   6.181   5.788  2.2693  0.4428 -0.1365
19087SOL     OW58393   6.744   1.759   8.735 -0.4403 -0.5608 -0.2457
19087SOL    HW158394   6.784   1.707   8.805 -0.6584  0.3498  0.5847
19087SOL    HW258395   6.787   1.844   8.742 -2.2763  0.3610  0.4810
19088SOL     OW58396   6.567   2.100   8.620  0.0345  0.3601 -0.4760
19088SOL    HW158397   6.522   2.029   8.573 -1.2815  0.9193 -0.1104
19088SOL    HW258398   6.644   2.120   8.566  0.1689 -1.0180 -0.8222
19089SOL     OW58399   5.546   4.062   6.162  0.2194  0.0653  0.1174
19089SOL    HW158400   5.561   4.118   6.238  0.6869 -1.2031  0.9876
19089SOL    HW258401   5.516   3.979   6.198  2.2968 -1.2276 -0.8986
19090SOL     OW58402   3.069   7.375   6.362  0.0531  0.0372  0.0591
19090SOL    HW158403   2.976   7.370   6.340 -0.0972 -0.7026  0.7936
19090SOL    HW258404   3.105   7.291   6.333 -0.1571 -0.9833  2.4792
19091SOL     OW58405   5.105   2.356   5.124 -0.3859  0.0923 -0.1631
19091SOL    HW158406   5.130   2.299   5.198  0.5130 -0.3378 -0.7691
19091SOL    HW258407   5.176   2.419   5.118  1.1884 -1.7031 -2.4987
19092SOL     OW58408   1.431   0.879   8.476  0.5324  0.2260 -0.3778
19092SOL    HW158409   1.499   0.942   8.452  0.9623 -0.2960 -0.5492
19092SOL    HW258410   1.399   0.844   8.393  0.5702 -0.0624 -0.2750
19093SOL     OW58411   6.290   4.902   2.061 -0.0678 -0.4384  0.3254
19093SOL    HW158412   6.343   4.950   2.124  2.0445 -1.3808 -0.6623
19093SOL    HW258413   6.272   4.818   2.102 -0.2877 -0.3518  0.4092
19094SOL     OW58414   0.096   3.959   1.627  0.0408 -0.7259  0.7711
19094SOL    HW158415   0.025   3.954   1.691 -0.0855  0.5161  0.7509
19094SOL    HW258416   0.165   4.008   1.672 -0.7934  1.9249 -0.6426
19095SOL     OW58417   4.302   2.754   1.908  0.5690 -0.6651  0.4175
19095SOL    HW158418   4.288   2.687   1.975  1.0161 -1.0798  0.1032
19095SOL    HW258419   4.224   2.750   1.853  1.5770 -2.5545 -0.9767
19096SOL     OW58420   0.254   7.482   6.894  0.0839  0.6854 -0.2122
19096SOL    HW158421   0.223   7.546   6.959  0.4126 -1.2869  2.0329
19096SOL    HW258422   0.349   7.480   6.905 -0.0999 -1.9855  1.6788
19097SOL     OW58423   4.714   2.743   8.821 -0.3174  0.3308  0.3502
19097SOL    HW158424   4.660   2.679   8.867  0.5692 -2.7528 -2.5050
19097SOL    HW258425   4.803   2.709   8.827  0.2267  1.3793 -1.1022
19098SOL     OW58426   8.556   7.769   6.817 -0.7206  0.1262 -0.6678
19098SOL    HW158427   8.648   7.786   6.838 -1.1473  0.6078  0.9387
19098SOL    HW258428   8.548   7.794   6.724  0.0265  3.4011  0.0029
19099SOL     OW58429   5.087   8.614   1.442  0.0156 -0.1485  0.1867
19099SOL    HW158430   5.103   8.681   1.375  0.4219  0.2354  0.6586
19099SOL    HW258431   5.099   8.660   1.525 -0.7033 -0.5662  0.5337
19100SOL     OW58432   6.937   4.389   1.340  0.3524 -0.0534 -0.3434
19100SOL    HW158433   6.870   4.377   1.407  0.7977 -0.9730 -0.0535
19100SOL    HW258434   6.920   4.476   1.304 -2.7718 -1.2976 -2.2514
19101SOL     OW58435   1.087   5.974   8.964  0.2342 -0.2594  0.6370
19101SOL    HW158436   1.042   5.969   9.049 -0.4004  0.4969  0.3502
19101SOL    HW258437   1.051   5.901   8.914 -0.8808  0.4809  0.3261
19102SOL     OW58438   5.019   1.919   0.976 -0.3615 -0.1616 -0.2761
19102SOL    HW158439   5.056   2.001   1.010 -3.2675  1.0671  0.2357
19102SOL    HW258440   5.045   1.918   0.884 -1.0065  1.8357 -0.5317
19103SOL     OW58441   6.927   6.275   5.245 -0.2283  0.6864 -0.2757
19103SOL    HW158442   6.959   6.197   5.291  0.7327 -0.4351 -2.6941
19103SOL    HW258443   6.957   6.349   5.298 -2.5797 -0.4612  3.0169
19104SOL     OW58444   0.429   5.372   6.853  0.3648  0.1109  0.4865
19104SOL    HW158445   0.467   5.401   6.936 -1.4576  0.5033  1.2430
19104SOL    HW258446   0.358   5.435   6.836  0.0913 -0.5232 -0.8799
19105SOL     OW58447   8.339   6.816   5.486  0.6248 -0.4687 -0.2728
19105SOL    HW158448   8.284   6.744   5.456 -0.5885  0.3138 -0.0347
19105SOL    HW258449   8.321   6.887   5.424 -1.0220  0.7882  1.4966
19106SOL     OW58450   5.309   9.018   3.125 -0.3059 -0.3861  0.7943
19106SOL    HW158451   5.332   8.942   3.071 -1.0191 -0.1955  0.2099
19106SOL    HW258452   5.265   8.980   3.202 -1.6051 -0.5244  0.0099
19107SOL     OW58453   2.026   7.961   8.930 -0.5597  0.3386  0.3816
19107SOL    HW158454   2.064   7.878   8.900  0.4849  0.5772  1.0039
19107SOL    HW258455   2.084   8.028   8.894 -2.1221  0.9011 -1.2053
19108SOL     OW58456   3.401   4.143   5.753 -0.1524 -0.2546  0.6929
19108SOL    HW158457   3.419   4.164   5.845 -0.9707 -0.1758  0.8352
19108SOL    HW258458   3.355   4.219   5.719  0.7196 -0.0100  0.0310
19109SOL     OW58459   0.459   5.839   3.632 -0.0656  1.1068 -0.1423
19109SOL    HW158460   0.517   5.914   3.641  2.1239 -0.5494  0.3690
19109SOL    HW258461   0.471   5.811   3.541 -0.1421  0.8297 -0.0675
19110SOL     OW58462   4.750   8.669   2.290  0.0475 -0.3170 -0.2572
19110SOL    HW158463   4.712   8.605   2.230 -3.8100  0.3646  1.1663
19110SOL    HW258464   4.722   8.754   2.255 -0.1567  0.2125  1.1219
19111SOL     OW58465   1.598   4.964   3.507 -0.4879 -0.1541 -0.3888
19111SOL    HW158466   1.646   4.916   3.574 -0.9954 -1.7457 -1.1153
19111SOL    HW258467   1.656   4.964   3.431 -1.2669 -1.3416 -1.0023
19112SOL     OW58468   2.420   1.923   4.063  0.2708  0.4661  0.1009
19112SOL    HW158469   2.486   1.985   4.094  2.3855 -1.6772  0.2120
19112SOL    HW258470   2.404   1.948   3.973 -0.0804  2.0543  0.5771
19113SOL     OW58471   8.232   5.044   8.627  0.1032  0.0451  0.0038
19113SOL    HW158472   8.186   5.069   8.707  0.5421 -1.7991  0.8956
19113SOL    HW258473   8.318   5.087   8.635  0.4063 -0.6863  0.9049
19114SOL     OW58474   3.390   1.308   6.093  0.2651  0.2829 -0.0911
19114SOL    HW158475   3.362   1.379   6.150  1.1844  1.1868 -0.7272
19114SOL    HW258476   3.365   1.337   6.005 -1.5241 -1.2821 -0.1422
19115SOL     OW58477   5.751   6.370   6.329 -0.7383 -0.1014 -0.2477
19115SOL    HW158478   5.823   6.401   6.383 -0.5113 -1.4079  0.2254
19115SOL    HW258479   5.673   6.409   6.368 -0.4515 -0.0257  0.2552
19116SOL     OW58480   5.405   2.860   1.734  0.6270 -0.7572  0.3070
19116SOL    HW158481   5.309   2.853   1.741  0.8736 -4.1649  2.9326
19116SOL    HW258482   5.432   2.890   1.821  1.9893  1.7846 -0.8869
19117SOL     OW58483   6.106   6.680   0.874  0.1524  0.1352  0.5935
19117SOL    HW158484   6.080   6.769   0.850  0.7414  0.2787  0.4762
19117SOL    HW258485   6.201   6.679   0.865  0.1322 -0.5778  0.3675
19118SOL     OW58486   9.093   6.684   7.130  0.4644  0.2253  0.6384
19118SOL    HW158487   9.014   6.738   7.124  0.9730  1.0335  1.1048
19118SOL    HW258488   9.126   6.699   7.219 -0.5061 -2.4531  1.5571
19119SOL     OW58489   8.734   2.888   2.370 -0.1351 -0.0304 -0.3272
19119SOL    HW158490   8.663   2.827   2.389  0.8900 -1.3482 -0.6286
19119SOL    HW258491   8.779   2.899   2.454  0.0082 -0.1164 -0.3928
19120SOL     OW58492   1.167   7.971   2.249 -0.6791 -0.3846  0.7400
19120SOL    HW158493   1.196   7.926   2.328 -0.4957  1.5494  1.8380
19120SOL    HW258494   1.247   7.984   2.198 -0.5358 -0.2785  0.9877
19121SOL     OW58495   6.061   5.806   2.891  0.1697 -0.0176  0.5978
19121SOL    HW158496   6.130   5.756   2.934  1.1584  1.1668  0.4431
19121SOL    HW258497   6.091   5.814   2.800 -0.8546 -0.6636  0.1893
19122SOL     OW58498   5.947   7.593   3.229 -0.0305 -0.1131 -0.5215
19122SOL    HW158499   5.929   7.555   3.315 -0.0465 -1.1666 -0.9830
19122SOL    HW258500   5.876   7.562   3.173  1.8575 -2.4538 -1.8000
19123SOL     OW58501   2.216   5.229   0.468 -0.2009 -0.8007 -0.4663
19123SOL    HW158502   2.227   5.316   0.429  0.6035 -0.4464  0.4897
19123SOL    HW258503   2.163   5.244   0.547 -1.0764 -1.3678 -0.9354
19124SOL     OW58504   7.738   1.515   1.271  0.3176  0.2347 -0.2188
19124SOL    HW158505   7.742   1.587   1.334 -0.8159  1.1335 -1.1121
19124SOL    HW258506   7.825   1.476   1.273  0.6056  0.8891  1.1368
19125SOL     OW58507   3.182   0.524   5.988  0.3690 -0.0762  0.2326
19125SOL    HW158508   3.202   0.566   6.072  2.8744 -0.7627  0.0558
19125SOL    HW258509   3.211   0.587   5.923 -1.5571  0.4484 -0.1857
19126SOL     OW58510   0.029   8.347   4.612  0.1595  0.5623  0.9965
19126SOL    HW158511   0.100   8.283   4.606 -0.4768 -0.1105  0.2673
19126SOL    HW258512  -0.050   8.295   4.595 -0.3061  1.6897 -0.4656
19127SOL     OW58513   2.407   3.836   0.390  0.6215  0.2502 -0.3355
19127SOL    HW158514   2.372   3.841   0.301  2.5296  0.6778 -1.1175
19127SOL    HW258515   2.366   3.758   0.428 -0.2479  0.0781 -1.5687
19128SOL     OW58516   8.117   6.202   2.052 -0.2900  0.3731  0.0181
19128SOL    HW158517   8.097   6.261   1.980 -3.9832 -1.6868 -0.9247
19128SOL    HW258518   8.074   6.242   2.128 -0.9026  0.0129 -0.1319
19129SOL     OW58519   4.135   0.245   7.466  0.7417 -0.5463 -0.4467
19129SOL    HW158520   4.215   0.200   7.492  0.4953 -0.6899  0.1004
19129SOL    HW258521   4.108   0.203   7.385  0.2127 -1.7977  0.3398
19130SOL     OW58522   4.950   5.615   2.641  0.1147 -0.2953 -0.1248
19130SOL    HW158523   4.874   5.558   2.627  0.5394 -1.4159  1.8122
19130SOL    HW258524   4.928   5.665   2.720 -0.1835  2.2391 -1.6749
19131SOL     OW58525   6.188   6.900   0.586  0.8714  0.1685 -0.1644
19131SOL    HW158526   6.279   6.921   0.609  1.0256  0.0689 -0.6839
19131SOL    HW258527   6.136   6.962   0.637  1.2204  0.1421  0.2385
19132SOL     OW58528   8.339   1.808   8.633  0.1569 -0.1845  0.4047
19132SOL    HW158529   8.300   1.865   8.568  0.0464 -0.7824 -0.0591
19132SOL    HW258530   8.424   1.849   8.653  2.0399 -1.9874 -3.0337
19133SOL     OW58531   5.184   5.850   4.138 -0.0714 -0.7904  0.1232
19133SOL    HW158532   5.183   5.936   4.096  0.2232 -0.2717  1.1370
19133SOL    HW258533   5.277   5.831   4.153 -0.1949 -0.0385  2.2871
19134SOL     OW58534   6.462   6.893   2.683  0.0743 -0.1123  0.8481
19134SOL    HW158535   6.514   6.815   2.699  0.0483 -0.3088 -0.0007
19134SOL    HW258536   6.372   6.867   2.701 -0.1348 -0.7495 -0.9657
19135SOL     OW58537   0.824   0.169   7.893  0.0168 -0.5742 -0.0246
19135SOL    HW158538   0.762   0.227   7.850 -0.5663 -0.7717  0.5263
19135SOL    HW258539   0.781   0.083   7.892 -0.7465 -0.3021  2.3005
19136SOL     OW58540   5.476   0.092   0.358 -0.1331  0.5544  0.2846
19136SOL    HW158541   5.438   0.097   0.445  0.0407  0.6545  0.3575
19136SOL    HW258542   5.407   0.056   0.303 -0.6848  1.6958  0.2080
19137SOL     OW58543   5.555   2.307   5.571 -0.6040 -0.3051  0.7960
19137SOL    HW158544   5.472   2.353   5.561  0.0779  0.5579 -1.6757
19137SOL    HW258545   5.579   2.321   5.663 -2.0151  1.5122  0.9581
19138SOL     OW58546   6.419   2.405   2.154 -0.4750 -0.0963 -0.3562
19138SOL    HW158547   6.430   2.414   2.249  0.0853 -3.0582 -0.0625
19138SOL    HW258548   6.475   2.474   2.117 -0.6205  1.0474  1.4310
19139SOL     OW58549   1.519   4.345   1.892  0.1938  0.5881  0.4439
19139SOL    HW158550   1.533   4.439   1.883 -3.7201  1.1530 -2.2886
19139SOL    HW258551   1.432   4.337   1.931  0.4428 -1.9309  0.6918
19140SOL     OW58552   7.289   7.705   5.597  0.2062  0.0746  0.5881
19140SOL    HW158553   7.295   7.627   5.652 -0.9906 -0.7862 -0.4442
19140SOL    HW258554   7.199   7.736   5.610  0.2695  0.5273 -0.0124
19141SOL     OW58555   5.172   2.563   8.632 -0.4974  0.1545  0.1582
19141SOL    HW158556   5.243   2.500   8.618  0.8577  1.2696  1.6357
19141SOL    HW258557   5.182   2.627   8.562 -0.0836  0.2529  0.3032
19142SOL     OW58558   7.202   2.630   5.203  0.3511 -0.5175 -0.1140
19142SOL    HW158559   7.250   2.652   5.123  0.5525  0.9584  0.3807
19142SOL    HW258560   7.244   2.550   5.235  0.6426 -0.8076 -1.1710
19143SOL     OW58561   4.378   6.344   6.295 -0.4537 -0.2359  0.5398
19143SOL    HW158562   4.321   6.267   6.286  0.6454 -1.0611  0.3167
19143SOL    HW258563   4.332   6.413   6.248 -2.5109 -0.1277  2.5439
19144SOL     OW58564   8.513   7.899   8.175 -0.0767  0.7925  0.1970
19144SOL    HW158565   8.450   7.831   8.151 -0.0386 -0.4690  3.3065
19144SOL    HW258566   8.588   7.883   8.118 -0.4501 -1.1784  0.1899
19145SOL     OW58567   5.205   3.571   1.089  0.1466 -0.2847  0.3008
19145SOL    HW158568   5.218   3.494   1.034 -1.1614 -0.8816  0.7999
19145SOL    HW258569   5.149   3.541   1.161 -0.5145  1.1644  0.4248
19146SOL     OW58570   7.155   3.909   3.601  0.0279  0.3435  0.5491
19146SOL    HW158571   7.217   3.962   3.551  1.0324  0.7741  2.2064
19146SOL    HW258572   7.179   3.819   3.579 -0.2964  0.5244 -0.6192
19147SOL     OW58573   3.405   4.716   5.926 -0.3955  0.5650 -0.3015
19147SOL    HW158574   3.414   4.673   6.011 -1.6495  1.1741  0.1622
19147SOL    HW258575   3.456   4.796   5.934  1.8813 -0.7139 -1.1405
19148SOL     OW58576   0.221   1.038   0.200  0.2544  0.5604  0.5207
19148SOL    HW158577   0.263   1.072   0.279  1.1118  0.5719  0.0759
19148SOL    HW258578   0.272   0.960   0.177 -0.2126  0.3464  0.1913
19149SOL     OW58579   3.804   1.559   0.891 -0.0823  0.2693  0.6005
19149SOL    HW158580   3.721   1.518   0.867 -0.1734 -0.0258  1.3800
19149SOL    HW258581   3.793   1.585   0.982  0.7306  0.0846  0.7648
19150SOL     OW58582   2.562   2.851   7.702 -0.0650  0.0526 -0.1241
19150SOL    HW158583   2.634   2.914   7.696 -1.1157  1.2860 -0.5348
19150SOL    HW258584   2.570   2.813   7.789  0.9652  0.2894 -0.1009
19151SOL     OW58585   1.594   0.604   0.211 -0.0654 -0.0901  0.5158
19151SOL    HW158586   1.568   0.688   0.249  0.8921  0.1421  0.7010
19151SOL    HW258587   1.525   0.582   0.148  0.3820  1.5801 -0.6320
19152SOL     OW58588   2.443   6.140   8.155 -0.5845  0.3663  0.2342
19152SOL    HW158589   2.362   6.165   8.199 -0.5604 -0.5476  0.8335
19152SOL    HW258590   2.448   6.198   8.079 -0.8709  1.6389  1.1567
19153SOL     OW58591   1.074   3.681   8.157  0.3449 -0.0165 -0.1052
19153SOL    HW158592   1.105   3.734   8.084  0.8859 -1.1866 -0.7506
19153SOL    HW258593   0.996   3.637   8.125  0.7794 -0.8069 -0.1284
19154SOL     OW58594   0.247   2.005   1.991  0.3611  0.0475 -0.1862
19154SOL    HW158595   0.287   1.974   1.910 -0.8893 -0.8741 -0.4837
19154SOL    HW258596   0.320   2.038   2.043  1.1757  0.7736 -1.7305
19155SOL     OW58597   0.897   3.533   5.964  0.2020  0.5070 -0.3491
19155SOL    HW158598   0.881   3.509   6.055  0.5905 -1.4536 -0.7461
19155SOL    HW258599   0.811   3.557   5.929  0.1252  1.7336  0.6233
19156SOL     OW58600   1.384   6.471   0.062  0.1405  0.4786  0.6914
19156SOL    HW158601   1.467   6.515   0.046 -0.0102  0.4021 -0.4219
19156SOL    HW258602   1.388   6.392   0.008 -1.0477  0.9844 -0.1849
19157SOL     OW58603   4.261   7.499   0.557  0.3047 -0.1644  0.0959
19157SOL    HW158604   4.352   7.490   0.585 -0.1204  0.1146  1.6305
19157SOL    HW258605   4.213   7.436   0.611 -0.4105 -0.4379 -0.8235
19158SOL     OW58606   7.431   2.982   2.021  0.2433 -0.1069 -0.1259
19158SOL    HW158607   7.516   3.025   2.032 -1.0772  2.1910  2.4667
19158SOL    HW258608   7.380   3.043   1.967 -0.0651 -1.0910 -0.9976
19159SOL     OW58609   7.038   2.498   3.506  1.0956 -0.8081 -0.9838
19159SOL    HW158610   7.074   2.475   3.592  0.1940  3.3276  0.7847
19159SOL    HW258611   7.088   2.576   3.479 -1.5144  0.6739 -1.9607
19160SOL     OW58612   6.679   7.613   1.772 -0.2901 -0.2654 -0.3142
19160SOL    HW158613   6.713   7.592   1.685 -0.7198 -0.0911 -0.5257
19160SOL    HW258614   6.658   7.707   1.768 -1.1122 -0.4390 -0.3008
19161SOL     OW58615   7.990   4.277   1.122 -0.2384  0.3891 -0.0157
19161SOL    HW158616   7.945   4.196   1.149 -1.0430  0.9864  0.4882
19161SOL    HW258617   7.968   4.286   1.029  0.7159 -0.5096 -0.3450
19162SOL     OW58618   8.329   7.966   8.544 -0.5520 -0.0194  0.3108
19162SOL    HW158619   8.380   7.892   8.578 -0.3047 -0.4014 -0.8480
19162SOL    HW258620   8.238   7.940   8.558 -0.4619 -0.4156  0.1994
19163SOL     OW58621   8.246   5.853   1.447 -0.4472  0.5890  0.1977
19163SOL    HW158622   8.342   5.845   1.448 -0.2985  2.2254  0.6552
19163SOL    HW258623   8.226   5.881   1.358 -0.3847  1.4489  0.4508
19164SOL     OW58624   5.210   3.013   7.817 -0.1823  0.4067  0.4839
19164SOL    HW158625   5.225   3.070   7.893  1.1935  2.7020 -1.4011
19164SOL    HW258626   5.296   3.002   7.778 -0.8860 -0.6269 -0.8680
19165SOL     OW58627   1.521   2.059   6.742 -0.3424 -0.4646 -0.2842
19165SOL    HW158628   1.540   1.996   6.672  1.8778 -1.5618  1.2020
19165SOL    HW258629   1.599   2.114   6.747 -0.2270 -0.7414  1.6191
19166SOL     OW58630   4.742   4.968   1.570  0.2700  0.0040  0.2371
19166SOL    HW158631   4.813   5.029   1.549  0.5136 -0.4405 -0.2632
19166SOL    HW258632   4.665   5.003   1.526  0.4705 -0.1839 -0.2789
19167SOL     OW58633   6.957   1.402   9.082 -0.5344  0.1172  0.1071
19167SOL    HW158634   6.950   1.465   9.154 -0.1905 -0.7817  0.9507
19167SOL    HW258635   6.987   1.453   9.008  0.2302  0.8640  0.9070
19168SOL     OW58636   6.098   7.811   3.254  0.1053 -0.3786 -0.7222
19168SOL    HW158637   6.046   7.889   3.235 -0.2184 -0.0405  1.3047
19168SOL    HW258638   6.040   7.738   3.231 -0.6319 -0.0070 -0.1037
19169SOL     OW58639   6.645   5.822   8.276 -0.0403 -0.1537 -0.2290
19169SOL    HW158640   6.712   5.863   8.222 -0.0569 -0.1361 -0.2368
19169SOL    HW258641   6.670   5.844   8.366  0.8035 -1.3967 -0.1354
19170SOL     OW58642   0.749   6.721   5.814 -0.4437 -0.0760  0.0425
19170SOL    HW158643   0.811   6.793   5.826 -2.2054  1.4806  0.2117
19170SOL    HW258644   0.767   6.661   5.887 -0.1516  1.1328  0.9921
19171SOL     OW58645   7.131   8.584   6.663 -0.2344 -0.8600 -0.4682
19171SOL    HW158646   7.207   8.554   6.711 -0.3056  1.0480  0.9648
19171SOL    HW258647   7.057   8.570   6.723 -0.5003  0.3915 -0.4682
19172SOL     OW58648   4.176   8.557   1.590  0.6189  0.1999 -0.1568
19172SOL    HW158649   4.247   8.597   1.640  1.0737 -1.0318  0.2175
19172SOL    HW258650   4.187   8.463   1.605 -1.4285  0.0080  0.3633
19173SOL     OW58651   6.903   7.999   5.110  0.0925 -0.6820 -0.0937
19173SOL    HW158652   6.839   8.064   5.081  1.4884  1.5663  1.5385
19173SOL    HW258653   6.888   7.990   5.204  2.1881  0.0356  0.3716
19174SOL     OW58654   0.237   6.960   3.583  0.6294  0.5302  0.0459
19174SOL    HW158655   0.299   6.945   3.655  0.3570 -0.5010  0.0840
19174SOL    HW258656   0.282   6.929   3.505 -0.1424 -1.0680  0.1985
19175SOL     OW58657   9.059   3.837   7.384  0.1883  0.2351 -0.4430
19175SOL    HW158658   9.140   3.859   7.339 -0.9070 -0.1320 -2.7023
19175SOL    HW258659   9.001   3.910   7.366  0.0006  0.5401  1.2371
19176SOL     OW58660   4.393   7.595   2.878  0.4328 -0.1460 -0.2200
19176SOL    HW158661   4.411   7.655   2.806 -0.6105  0.4312 -0.0030
19176SOL    HW258662   4.430   7.511   2.848  1.5624  0.4905 -0.6754
19177SOL     OW58663   4.544   0.233   3.999 -0.2634 -0.6971 -0.1290
19177SOL    HW158664   4.522   0.209   3.909  1.7440  1.8324 -1.4176
19177SOL    HW258665   4.470   0.287   4.027 -0.6595 -1.0617 -0.4480
19178SOL     OW58666   5.861   1.405   6.384 -0.0553  0.2806  0.2361
19178SOL    HW158667   5.936   1.347   6.399  0.5782  1.2611  0.9547
19178SOL    HW258668   5.891   1.466   6.317 -0.7249 -0.2197 -0.5317
19179SOL     OW58669   9.076   1.599   1.782 -0.0285 -0.0930  0.3892
19179SOL    HW158670   9.109   1.683   1.750 -0.6882 -0.5392 -1.6416
19179SOL    HW258671   9.129   1.533   1.735  1.1792 -0.8666  2.7055
19180SOL     OW58672   1.071   5.605   7.727  0.6328  0.1871  0.2626
19180SOL    HW158673   1.029   5.653   7.799  1.6102  0.9213  0.3498
19180SOL    HW258674   1.030   5.518   7.731 -0.5576  0.7328  0.6239
19181SOL     OW58675   0.011   9.100   6.191 -0.2448  0.2160 -0.1018
19181SOL    HW158676  -0.073   9.109   6.236 -0.7003 -2.3295 -0.3117
19181SOL    HW258677  -0.013   9.070   6.103  0.8855 -1.9359  0.2713
19182SOL     OW58678   6.945   4.479   1.010  0.0224 -0.0228 -0.3609
19182SOL    HW158679   6.926   4.419   0.937  1.1325 -0.1170 -0.5989
19182SOL    HW258680   6.997   4.549   0.970  1.3729 -0.5046  0.4728
19183SOL     OW58681   3.402   7.857   5.511 -0.2255  0.9242 -0.3276
19183SOL    HW158682   3.330   7.796   5.530 -0.2535  1.0668  0.0367
19183SOL    HW258683   3.405   7.861   5.416 -1.3130  1.6373 -0.3448
19184SOL     OW58684   1.698   6.970   1.419  0.2672 -0.1109 -0.4141
19184SOL    HW158685   1.613   7.013   1.414 -0.9577 -2.0718  1.7539
19184SOL    HW258686   1.709   6.928   1.333 -0.8161  0.4006 -0.8175
19185SOL     OW58687   2.054   2.807   5.649 -0.6398  0.0728 -0.8202
19185SOL    HW158688   2.082   2.891   5.685 -1.1427  0.2301 -0.7920
19185SOL    HW258689   1.963   2.797   5.677  0.0737 -1.6062  1.2356
19186SOL     OW58690   7.162   1.510   4.902 -0.0896  0.0749  0.2796
19186SOL    HW158691   7.109   1.470   4.970 -0.3208  0.5147  0.3638
19186SOL    HW258692   7.117   1.592   4.881  1.0003  0.8794  0.9594
19187SOL     OW58693   5.252   6.404   3.332 -0.3556  0.1141 -0.1974
19187SOL    HW158694   5.302   6.375   3.409 -0.6279  1.3582  0.4828
19187SOL    HW258695   5.234   6.324   3.283 -1.6317 -0.9997  1.9222
19188SOL     OW58696   4.408   0.986   3.238 -0.3558 -0.3346 -0.0296
19188SOL    HW158697   4.435   0.966   3.148  1.8761 -0.4887  0.6220
19188SOL    HW258698   4.313   1.002   3.231 -0.2724 -0.4612 -2.3711
19189SOL     OW58699   7.465   9.074   2.746  0.0037 -0.1942  0.3309
19189SOL    HW158700   7.544   9.119   2.716 -0.8930 -0.4205 -2.7617
19189SOL    HW258701   7.472   8.986   2.709 -1.2783 -0.5003  0.7603
19190SOL     OW58702   0.683   6.033   1.827 -0.1910 -0.2014  0.0517
19190SOL    HW158703   0.729   6.117   1.830  0.2450 -0.4588  0.6759
19190SOL    HW258704   0.669   6.017   1.733 -1.0376  0.9664 -0.0363
19191SOL     OW58705   3.352   0.531   1.269  0.3838 -0.5467  0.1769
19191SOL    HW158706   3.259   0.546   1.252  0.5663 -0.1035 -0.4630
19191SOL    HW258707   3.357   0.522   1.364 -0.2959 -0.4662  0.2319
19192SOL     OW58708   0.190   8.443   9.114 -0.9434 -0.5605  0.3884
19192SOL    HW158709   0.199   8.402   9.028  1.7668  1.6889 -0.5678
19192SOL    HW258710   0.240   8.385   9.172 -2.6942 -2.0343  0.5014
19193SOL     OW58711   4.633   1.744   8.877 -0.4525  0.8918 -0.4470
19193SOL    HW158712   4.687   1.809   8.832 -1.0839  0.6762 -1.5563
19193SOL    HW258713   4.544   1.774   8.864 -0.8809 -0.9501 -2.3323
19194SOL     OW58714   2.836   3.925   6.930  0.3074 -0.4132  0.4542
19194SOL    HW158715   2.803   4.012   6.906  1.2000  0.2367  1.4651
19194SOL    HW258716   2.762   3.883   6.974  0.5170  0.7004  1.9406
19195SOL     OW58717   2.406   7.763   3.581 -0.5411 -0.7211 -0.1889
19195SOL    HW158718   2.467   7.767   3.507  1.1066  1.0098  1.1501
19195SOL    HW258719   2.364   7.678   3.573 -0.0636 -0.7980 -2.8113
19196SOL     OW58720   5.789   5.798   0.834 -0.1604 -0.6450 -0.2689
19196SOL    HW158721   5.703   5.789   0.793 -0.2460  0.6185 -0.4166
19196SOL    HW258722   5.772   5.850   0.913  0.6302  0.8211 -1.0109
19197SOL     OW58723   8.915   4.879   6.165 -0.1465  0.7522 -0.5073
19197SOL    HW158724   8.907   4.810   6.232 -0.3191  0.2205 -1.0728
19197SOL    HW258725   8.944   4.833   6.087  2.2447  1.6568 -0.2505
19198SOL     OW58726   5.499   4.054   3.754  0.2968 -0.3019 -0.2909
19198SOL    HW158727   5.479   4.038   3.662 -1.8337 -0.0202  0.0732
19198SOL    HW258728   5.431   4.114   3.783  1.8135  0.8392  1.1075
19199SOL     OW58729   4.067   5.535   7.543  0.0847 -0.2204 -0.0372
19199SOL    HW158730   4.076   5.443   7.565  0.3114  0.0211  0.9197
19199SOL    HW258731   4.105   5.582   7.617 -0.5660  0.6531 -0.2312
19200SOL     OW58732   0.711   0.527   1.240  0.1026 -0.6748 -0.3502
19200SOL    HW158733   0.754   0.586   1.302 -0.6322 -1.3709  0.8914
19200SOL    HW258734   0.782   0.486   1.192  0.6552  0.6271 -0.6978
19201SOL     OW58735   5.011   3.659   1.605 -0.0337  0.0243  0.0349
19201SOL    HW158736   5.015   3.612   1.522 -1.9154  0.0193 -0.0747
19201SOL    HW258737   5.031   3.750   1.583  2.1541 -0.3979  0.0301
19202SOL     OW58738   6.919   7.450   6.885 -0.5529 -0.2332  0.1921
19202SOL    HW158739   6.986   7.398   6.841 -0.2999  0.6474 -0.5078
19202SOL    HW258740   6.864   7.386   6.931 -0.7618 -1.1966 -1.3294
19203SOL     OW58741   0.276   5.709   0.841 -0.0607  0.1053 -0.0619
19203SOL    HW158742   0.237   5.794   0.821  1.1833  0.1440 -2.6875
19203SOL    HW258743   0.348   5.729   0.901 -0.2736  0.7885 -0.0262
19204SOL     OW58744   2.251   2.828   7.155 -0.1304 -0.3759 -0.3173
19204SOL    HW158745   2.238   2.760   7.220 -1.1617  0.3535  0.2688
19204SOL    HW258746   2.334   2.805   7.112  0.4682 -0.9853  1.1057
19205SOL     OW58747   0.234   8.889   1.664  0.1258  0.1405 -0.6517
19205SOL    HW158748   0.159   8.853   1.617  0.1725  0.1421 -0.7287
19205SOL    HW258749   0.214   8.876   1.757  0.9939 -1.8353 -0.6925
19206SOL     OW58750   8.523   4.958   6.304  0.3456 -0.4627  0.2259
19206SOL    HW158751   8.464   5.023   6.266 -1.3699 -1.1131  1.6012
19206SOL    HW258752   8.606   5.003   6.315 -0.9145  1.7084  1.6056
19207SOL     OW58753   2.993   1.170   8.149  0.1552 -0.1497  0.0378
19207SOL    HW158754   3.032   1.167   8.237  2.6095  3.2973 -0.7281
19207SOL    HW258755   3.046   1.108   8.098 -0.6361 -1.4132  0.6942
19208SOL     OW58756   1.622   4.293   4.042 -0.1174 -0.1059 -0.2161
19208SOL    HW158757   1.586   4.238   4.111 -2.3820  0.4495 -0.8776
19208SOL    HW258758   1.717   4.286   4.053 -0.3734 -0.2300  2.7849
19209SOL     OW58759   0.914   5.047   2.077 -0.1798 -0.2170  0.2255
19209SOL    HW158760   0.836   4.993   2.065 -0.3288  0.2009 -0.6985
19209SOL    HW258761   0.980   5.006   2.021 -0.5700  1.1000 -1.2739
19210SOL     OW58762   4.701   3.177   0.203  0.1738  0.0885 -0.0338
19210SOL    HW158763   4.758   3.101   0.220 -0.4660 -0.6295 -1.0149
19210SOL    HW258764   4.645   3.181   0.281 -1.6719 -2.2031 -1.1148
19211SOL     OW58765   1.806   6.070   7.814 -0.0960  0.4803 -0.0675
19211SOL    HW158766   1.737   6.004   7.804 -1.0279  1.6519 -2.1537
19211SOL    HW258767   1.845   6.051   7.899 -1.1551 -1.9434 -0.0225
19212SOL     OW58768   5.998   1.285   3.446  0.1734 -0.9751  0.1484
19212SOL    HW158769   6.093   1.270   3.450  0.3788  0.0858 -0.4883
19212SOL    HW258770   5.983   1.358   3.506 -0.3552 -1.5743  0.7700
19213SOL     OW58771   0.232   8.971   8.285 -0.5336  0.1083  0.1481
19213SOL    HW158772   0.140   8.961   8.311 -0.6190 -0.2522 -0.2836
19213SOL    HW258773   0.233   8.951   8.192 -0.1862  1.1413 -0.0752
19214SOL     OW58774   6.590   8.722   0.333 -0.4798  0.4672 -0.2751
19214SOL    HW158775   6.611   8.804   0.289 -1.1302  0.2729 -0.9564
19214SOL    HW258776   6.495   8.722   0.340 -0.5149 -0.4057 -0.6381
19215SOL     OW58777   7.245   0.499   6.758 -0.4159  0.0124 -0.3746
19215SOL    HW158778   7.166   0.456   6.729 -0.1922 -0.3600 -0.4387
19215SOL    HW258779   7.298   0.510   6.679 -0.3165  0.0688 -0.3014
19216SOL     OW58780   7.846   6.216   7.830 -0.0631 -0.0235  0.3674
19216SOL    HW158781   7.885   6.214   7.918  0.1861 -1.2397  0.2413
19216SOL    HW258782   7.792   6.137   7.826  1.0001 -0.7084 -1.0579
19217SOL     OW58783   7.128   2.601   4.362  0.4047 -0.3225 -0.2226
19217SOL    HW158784   7.211   2.596   4.411 -1.9167  0.0658  4.2186
19217SOL    HW258785   7.109   2.694   4.356 -0.3325 -0.4517  0.0079
19218SOL     OW58786   5.821   5.859   3.612  0.4452  0.1361  0.3010
19218SOL    HW158787   5.849   5.878   3.522 -1.3507 -0.2814 -0.3927
19218SOL    HW258788   5.755   5.925   3.631  2.6554  1.9332  2.3959
19219SOL     OW58789   0.742   4.324   6.396 -0.9033  0.1629 -0.2007
19219SOL    HW158790   0.827   4.367   6.409 -0.3183 -0.6943 -1.0668
19219SOL    HW258791   0.679   4.383   6.438  0.0707  1.0071  0.1217
19220SOL     OW58792   7.311   5.905   1.612  0.3597  0.0222 -0.3774
19220SOL    HW158793   7.357   5.861   1.683 -0.1245 -2.4714 -1.4868
19220SOL    HW258794   7.296   5.836   1.547 -0.8898  1.7670 -2.0641
19221SOL     OW58795   5.753   4.424   6.003 -0.0983  0.1594 -0.5742
19221SOL    HW158796   5.769   4.345   5.951 -2.5153  0.1207 -1.3580
19221SOL    HW258797   5.763   4.496   5.941 -1.1040  0.2424 -0.6460
19222SOL     OW58798   2.707   6.818   8.280  0.0467 -0.2906  0.0858
19222SOL    HW158799   2.778   6.761   8.250 -0.4201 -0.4368 -0.7580
19222SOL    HW258800   2.633   6.759   8.293  0.0241 -0.1138  0.8184
19223SOL     OW58801   6.418   1.720   1.505 -0.0146  0.3787  0.0573
19223SOL    HW158802   6.437   1.812   1.491  0.8974  0.1663 -0.1597
19223SOL    HW258803   6.414   1.710   1.600  1.4454  0.3478  0.1317
19224SOL     OW58804   6.730   3.118   8.521 -0.7665 -0.4600  0.3781
19224SOL    HW158805   6.797   3.050   8.530  0.7335  0.9681  0.3906
19224SOL    HW258806   6.711   3.144   8.611 -0.0124  0.3572  0.3147
19225SOL     OW58807   3.006   6.529   6.835 -0.1332  0.1377 -0.6477
19225SOL    HW158808   3.070   6.534   6.764 -0.1613 -0.5206 -0.7279
19225SOL    HW258809   3.051   6.482   6.905 -0.1557  0.6549 -0.2805
19226SOL     OW58810   6.698   4.583   2.984  0.0997  0.0483  0.3493
19226SOL    HW158811   6.673   4.594   3.075  1.4085 -0.4517  0.7880
19226SOL    HW258812   6.619   4.553   2.940 -0.1266 -1.2902  1.6398
19227SOL     OW58813   0.106   1.280   8.098 -0.5013 -0.7952  0.0781
19227SOL    HW158814   0.188   1.278   8.049  0.5221 -1.9861  1.7129
19227SOL    HW258815   0.062   1.198   8.073 -1.0786 -0.2929 -0.5820
19228SOL     OW58816   6.436   1.421   2.112 -0.4033  0.9775  0.0448
19228SOL    HW158817   6.515   1.412   2.165 -1.4155 -0.2383  1.4042
19228SOL    HW258818   6.425   1.335   2.071 -1.1217  1.0832  0.0057
19229SOL     OW58819   3.617   3.649   2.259 -0.9155 -0.3744  0.3185
19229SOL    HW158820   3.616   3.560   2.223  0.1792 -1.2664  2.3430
19229SOL    HW258821   3.544   3.650   2.321  0.0889 -0.4613  1.5435
19230SOL     OW58822   0.672   3.700   1.106 -0.1598  0.7998  0.1732
19230SOL    HW158823   0.726   3.705   1.185  1.9505  0.4473 -1.1539
19230SOL    HW258824   0.653   3.791   1.084  4.4671  1.5652 -2.1203
19231SOL     OW58825   6.943   4.607   4.259  0.3973  0.2394 -0.0196
19231SOL    HW158826   6.893   4.656   4.194 -0.1163 -0.4270 -0.1333
19231SOL    HW258827   7.031   4.645   4.256  0.5026 -0.0731 -1.4288
19232SOL     OW58828   0.813   3.419   7.373  0.3624  0.6436  0.1350
19232SOL    HW158829   0.730   3.374   7.354  0.5963  0.1685  0.2239
19232SOL    HW258830   0.870   3.396   7.300  0.8055 -0.0311  0.6813
19233SOL     OW58831   2.568   2.931   4.556 -0.1936  0.2546  0.2159
19233SOL    HW158832   2.654   2.959   4.589 -0.2425 -0.0169  0.5770
19233SOL    HW258833   2.582   2.841   4.526 -0.8667 -0.6566  2.3993
19234SOL     OW58834   5.619   7.908   5.820 -0.1246 -0.2967 -0.5522
19234SOL    HW158835   5.628   7.882   5.912 -1.3483 -0.2989 -0.4206
19234SOL    HW258836   5.588   7.999   5.824  2.0953  0.5404 -0.9989
19235SOL     OW58837   4.292   2.413   4.772 -0.8195 -0.8698 -0.0105
19235SOL    HW158838   4.279   2.445   4.683 -0.3146  0.0765  0.2291
19235SOL    HW258839   4.327   2.325   4.762  0.9497 -0.1257 -0.8117
19236SOL     OW58840   3.195   1.562   6.874  0.1147  0.0391 -0.5191
19236SOL    HW158841   3.106   1.538   6.848 -0.2705 -0.9879  1.5026
19236SOL    HW258842   3.231   1.481   6.911  1.1013  0.9673  0.6177
19237SOL     OW58843   8.307   4.256   0.019  0.5630  0.0499  0.1605
19237SOL    HW158844   8.303   4.333  -0.038 -0.8715  1.3546  1.8981
19237SOL    HW258845   8.216   4.227   0.026  0.6698  0.0285  1.8632
19238SOL     OW58846   3.112   7.585   3.655 -0.4503 -0.1254 -0.0007
19238SOL    HW158847   3.025   7.625   3.665 -0.2817  0.0566  0.8370
19238SOL    HW258848   3.158   7.643   3.594 -1.1319 -0.6030 -1.0075
19239SOL     OW58849   1.426   5.547   8.975 -0.2507 -0.4294 -0.3055
19239SOL    HW158850   1.412   5.504   8.890  0.6237 -2.1487  0.3754
19239SOL    HW258851   1.483   5.621   8.956  1.1375 -1.6405 -1.0529
19240SOL     OW58852   5.133   1.192   4.856 -0.5961 -0.1529  0.1214
19240SOL    HW158853   5.167   1.102   4.853  0.0934  0.1331 -1.5218
19240SOL    HW258854   5.208   1.247   4.830 -0.9483  0.9287  1.2881
19241SOL     OW58855   1.351   0.120   2.893  0.3269  0.5670 -0.0625
19241SOL    HW158856   1.434   0.074   2.884  0.3615  0.5898  0.1245
19241SOL    HW258857   1.289   0.069   2.842  0.7586  1.3407 -1.3901
19242SOL     OW58858   3.423   3.872   5.647  0.3804  0.1248  0.0136
19242SOL    HW158859   3.396   3.855   5.557 -0.6923 -0.2945  0.3899
19242SOL    HW258860   3.379   3.954   5.670  0.2445 -0.0273  0.3063
19243SOL     OW58861   2.494   7.290   0.953 -0.8711  0.2834 -0.0654
19243SOL    HW158862   2.519   7.287   0.861 -3.0764 -1.8701 -0.6841
19243SOL    HW258863   2.560   7.237   0.998 -0.5094  0.2796 -0.6002
19244SOL     OW58864   8.695   5.328   2.946  0.0280  0.1842 -0.4277
19244SOL    HW158865   8.611   5.374   2.954 -0.2499 -0.4373  0.4365
19244SOL    HW258866   8.729   5.327   3.036  0.7679  0.0774 -0.7068
19245SOL     OW58867   4.077   8.734   7.997  0.5833  0.0687 -0.0595
19245SOL    HW158868   4.034   8.809   8.038  2.3138  0.8848  0.3455
19245SOL    HW258869   4.150   8.771   7.949  2.9462 -1.4594  2.0414
19246SOL     OW58870   3.031   0.876   8.597  0.1448  0.4590  0.3913
19246SOL    HW158871   2.965   0.941   8.576 -0.5256 -0.2408  0.3201
19246SOL    HW258872   3.094   0.881   8.525 -0.2645  0.5515  0.0388
19247SOL     OW58873   4.833   4.359   7.548 -0.3011  0.5045  0.0758
19247SOL    HW158874   4.818   4.426   7.480 -1.5561  0.3707  0.1986
19247SOL    HW258875   4.854   4.280   7.498 -2.4019  0.0965 -0.2697
19248SOL     OW58876   6.677   2.922   6.103  0.7564  0.2772 -0.1849
19248SOL    HW158877   6.616   2.980   6.056  1.9253  2.2130  0.5509
19248SOL    HW258878   6.764   2.949   6.072  1.3578 -1.1481  0.1724
19249SOL     OW58879   8.887   0.694   8.300 -0.1864  0.4586  0.3137
19249SOL    HW158880   8.948   0.621   8.308 -1.1277 -0.3034  0.7548
19249SOL    HW258881   8.804   0.653   8.274 -0.4063  1.5132 -0.7411
19250SOL     OW58882   6.058   1.436   4.847 -0.6926  0.1981  0.1905
19250SOL    HW158883   6.092   1.371   4.908  1.5921  0.7175 -0.4585
19250SOL    HW258884   6.008   1.384   4.783 -0.7050 -0.6631  0.8809
19251SOL     OW58885   5.756   4.431   2.829  0.7487 -0.5165  0.1184
19251SOL    HW158886   5.736   4.340   2.848 -0.0831 -0.4760 -0.4863
19251SOL    HW258887   5.742   4.477   2.912 -0.7019 -0.6640 -0.0105
19252SOL     OW58888   4.364   1.650   7.340 -0.1780  0.2357 -0.6648
19252SOL    HW158889   4.444   1.700   7.357 -0.0227  0.2276 -1.3293
19252SOL    HW258890   4.386   1.561   7.366 -0.3172  0.4292  0.1319
19253SOL     OW58891   5.053   8.339   2.378  0.2963 -0.5698 -0.1978
19253SOL    HW158892   5.006   8.308   2.300  0.9988 -0.8388 -0.5261
19253SOL    HW258893   5.012   8.423   2.398  0.6347 -0.1089 -1.3417
19254SOL     OW58894   2.602   2.482   6.842  0.1220 -0.1527  0.2976
19254SOL    HW158895   2.568   2.448   6.925  1.3798  1.0760  1.3612
19254SOL    HW258896   2.583   2.575   6.844  1.0927  0.0719 -0.3070
19255SOL     OW58897   3.277   7.968   8.835  0.1312  0.0729 -0.4307
19255SOL    HW158898   3.290   7.946   8.927 -0.4951  0.2522 -0.2935
19255SOL    HW258899   3.358   8.013   8.809  1.1296 -1.6938 -0.5163
19256SOL     OW58900   5.518   0.117   2.163  0.1270  0.4561  0.0539
19256SOL    HW158901   5.430   0.080   2.171 -0.0252  0.6263 -0.7460
19256SOL    HW258902   5.505   0.211   2.169  0.4008  0.4403  1.1005
19257SOL     OW58903   5.554   6.465   4.709  0.5172 -0.0686  0.1615
19257SOL    HW158904   5.558   6.407   4.785 -0.6318  2.0281  1.9183
19257SOL    HW258905   5.644   6.468   4.677  0.8509 -1.7475  0.8025
19258SOL     OW58906   0.855   1.637   3.731  0.2528 -0.0806 -0.4893
19258SOL    HW158907   0.846   1.714   3.675  1.0900  1.1141  0.9495
19258SOL    HW258908   0.799   1.655   3.806 -0.4065 -1.4011 -0.6273
19259SOL     OW58909   3.988   4.274   4.151 -0.6033 -0.1867 -0.7305
19259SOL    HW158910   3.921   4.259   4.217  0.3930  0.7570  0.5563
19259SOL    HW258911   4.018   4.187   4.126 -2.1292 -0.6089 -1.1704
19260SOL     OW58912   1.734   6.082   8.111 -0.2830  0.0589  0.4134
19260SOL    HW158913   1.658   6.055   8.162 -1.3254  0.6202 -0.7927
19260SOL    HW258914   1.800   6.016   8.130 -1.0876 -0.4818  1.4267
19261SOL     OW58915   9.046   8.009   7.609 -0.1491  0.6936 -0.1274
19261SOL    HW158916   9.093   7.988   7.528  0.5168 -2.9201  0.9956
19261SOL    HW258917   8.962   7.963   7.600 -0.7919  1.7141  0.5370
19262SOL     OW58918   3.219   1.041   6.065  0.3318 -0.1481 -0.2876
19262SOL    HW158919   3.189   1.034   5.974  3.0105 -1.3688 -1.1652
19262SOL    HW258920   3.286   1.109   6.063 -0.2060  0.4558  1.0050
19263SOL     OW58921   2.168   1.749   7.470  0.3730 -0.2670 -0.2688
19263SOL    HW158922   2.171   1.654   7.460  0.4894 -0.2177 -0.7498
19263SOL    HW258923   2.183   1.765   7.563  1.8272 -0.6610 -0.4107
19264SOL     OW58924   6.077   1.971   7.130  0.4296 -0.1059 -0.1352
19264SOL    HW158925   6.023   1.981   7.208 -1.0183 -2.8431 -0.6769
19264SOL    HW258926   6.038   2.031   7.066 -0.2997 -0.1005  0.3063
19265SOL     OW58927   7.519   4.594   3.707  0.0507  0.1436  0.3338
19265SOL    HW158928   7.477   4.631   3.629  0.6174  1.1840  0.5029
19265SOL    HW258929   7.538   4.670   3.762 -0.8457 -0.6147  1.7518
19266SOL     OW58930   6.969   4.294   6.889  0.1444  0.4227  0.5569
19266SOL    HW158931   7.032   4.365   6.881 -0.7469  1.2363  0.5358
19266SOL    HW258932   7.019   4.221   6.926  1.8028  0.0355 -2.1719
19267SOL     OW58933   4.237   7.523   6.144 -0.4967 -0.2042 -0.2609
19267SOL    HW158934   4.283   7.581   6.084 -0.5188  1.4360  1.2477
19267SOL    HW258935   4.174   7.477   6.088  1.1369 -0.5802 -1.8994
19268SOL     OW58936   0.960   3.763   4.247 -0.1312  0.1177  0.2186
19268SOL    HW158937   0.970   3.770   4.152  0.8347 -0.0089  0.3003
19268SOL    HW258938   0.866   3.774   4.262 -0.3319 -0.1425 -0.7729
19269SOL     OW58939   3.477   5.913   4.284  0.2324  0.0680  0.1729
19269SOL    HW158940   3.382   5.902   4.272  0.4317 -1.4301 -0.2395
19269SOL    HW258941   3.487   6.005   4.310 -1.4186  0.0276  1.1332
19270SOL     OW58942   5.388   3.293   1.224  0.1093  0.5764  0.3729
19270SOL    HW158943   5.428   3.210   1.252 -2.2037 -0.2182  1.5404
19270SOL    HW258944   5.396   3.350   1.301  0.4449  0.9971  0.0369
19271SOL     OW58945   5.156   3.011   6.769 -0.1864 -0.3088 -0.1073
19271SOL    HW158946   5.186   2.921   6.755  1.4582  0.3251 -0.8345
19271SOL    HW258947   5.151   3.048   6.681  0.6057  0.7637  0.2942
19272SOL     OW58948   6.826   6.772   5.868 -0.2019  0.0533 -0.4463
19272SOL    HW158949   6.818   6.697   5.809 -0.3520 -0.7456  0.5557
19272SOL    HW258950   6.916   6.802   5.857  0.0995 -0.7642 -0.3101
19273SOL     OW58951   2.682   8.829   8.446 -0.0023  0.0177  0.1672
19273SOL    HW158952   2.587   8.841   8.444  0.1064  0.9729  0.1697
19273SOL    HW258953   2.694   8.735   8.461 -0.9712  0.1539  2.1196
19274SOL     OW58954   0.487   5.805   8.050 -0.2793 -0.1762  0.0697
19274SOL    HW158955   0.432   5.877   8.022 -1.3652 -1.2462 -0.6591
19274SOL    HW258956   0.441   5.766   8.125  0.5145  0.1334  0.7385
19275SOL     OW58957   6.221   4.185   7.595 -0.1032  0.1303  0.5188
19275SOL    HW158958   6.280   4.246   7.551 -0.2016  1.9796  2.7295
19275SOL    HW258959   6.181   4.135   7.525  2.9379 -0.1721 -1.1792
19276SOL     OW58960   0.418   1.366   7.237  0.9834 -0.2038  0.1835
19276SOL    HW158961   0.484   1.301   7.212  1.1238  0.0263 -0.0458
19276SOL    HW258962   0.463   1.450   7.231  0.8651 -0.1023  0.7088
19277SOL     OW58963   1.459   7.803   1.410 -0.1814  0.0429 -0.8463
19277SOL    HW158964   1.423   7.719   1.378  0.0040  0.5206 -2.4178
19277SOL    HW258965   1.510   7.836   1.336 -1.6222  2.3517 -0.9176
19278SOL     OW58966   6.181   5.196   8.436 -0.1105 -0.2926  0.3558
19278SOL    HW158967   6.239   5.142   8.490 -0.2017 -2.2762 -1.3796
19278SOL    HW258968   6.219   5.190   8.348 -1.9794 -0.1995 -0.4854
19279SOL     OW58969   8.752   4.401   6.150 -0.2721 -0.2410 -0.2924
19279SOL    HW158970   8.821   4.453   6.191  0.9512 -2.5418  0.7151
19279SOL    HW258971   8.671   4.440   6.181  0.5988 -0.7224  2.8727
19280SOL     OW58972   8.600   2.544   8.765  0.4181  0.0100  0.5398
19280SOL    HW158973   8.629   2.550   8.674  1.1532 -0.3376  0.7438
19280SOL    HW258974   8.505   2.557   8.761  0.8319  4.5098  0.1973
19281SOL     OW58975   2.973   5.557   3.375  0.0620  0.4415 -0.7992
19281SOL    HW158976   2.896   5.508   3.347 -0.3381  0.7522 -0.2694
19281SOL    HW258977   3.017   5.500   3.438 -2.4653  2.0998  2.8712
19282SOL     OW58978   0.903   6.466   0.743  0.2358  0.3971 -0.1288
19282SOL    HW158979   0.836   6.435   0.804 -0.4456 -0.6731 -1.3846
19282SOL    HW258980   0.915   6.558   0.766 -1.5304  0.5641  0.2558
19283SOL     OW58981   5.224   1.405   0.570  0.1258 -0.0285  0.1294
19283SOL    HW158982   5.142   1.357   0.581  0.7016 -0.8325  1.1375
19283SOL    HW258983   5.197   1.496   0.557 -0.9357 -0.3609 -0.0959
19284SOL     OW58984   7.160   8.628   1.781  0.3679 -0.0602 -0.1115
19284SOL    HW158985   7.228   8.683   1.819  1.8813 -1.7001 -0.3066
19284SOL    HW258986   7.135   8.569   1.852 -1.4340  0.9657  0.1821
19285SOL     OW58987   2.467   1.223   8.566  0.3376  0.1110  0.3376
19285SOL    HW158988   2.445   1.140   8.608  0.2467  0.1669  0.4013
19285SOL    HW258989   2.548   1.251   8.608 -1.0593  1.4677  2.3796
19286SOL     OW58990   8.520   8.473   9.024 -0.6734 -0.1914  0.2831
19286SOL    HW158991   8.518   8.464   8.929  3.7755 -1.2506  0.0741
19286SOL    HW258992   8.487   8.561   9.040 -1.7993 -0.0699 -2.1387
19287SOL     OW58993   8.851   1.307   0.916  0.3721 -0.1452 -0.5399
19287SOL    HW158994   8.792   1.383   0.918 -0.6737 -0.9473  0.0083
19287SOL    HW258995   8.867   1.287   1.008 -0.3510 -1.3175 -0.6438
19288SOL     OW58996   2.595   3.270   5.876  0.3280 -0.5316 -0.0344
19288SOL    HW158997   2.593   3.176   5.856  0.6816 -0.6617  0.5121
19288SOL    HW258998   2.618   3.311   5.793 -1.1389 -0.8148 -0.6095
19289SOL     OW58999   1.420   5.581   8.289 -0.1630 -0.4194  0.0915
19289SOL    HW159000   1.471   5.505   8.263 -0.3112 -0.2264 -0.7868
19289SOL    HW259001   1.460   5.610   8.371  0.0558 -1.2829  0.3008
19290SOL     OW59002   3.269   8.861   5.503 -0.1681 -0.2230 -0.1304
19290SOL    HW159003   3.332   8.802   5.544 -0.6824 -0.7548 -0.0859
19290SOL    HW259004   3.185   8.836   5.542 -0.5558 -0.2250 -0.9595
19291SOL     OW59005   2.512   7.230   1.307  0.3664 -0.3160 -0.2904
19291SOL    HW159006   2.438   7.169   1.295  0.1784  0.1776 -1.8332
19291SOL    HW259007   2.586   7.187   1.264  0.3742  0.2704 -0.8765
19292SOL     OW59008   4.044   7.722   5.407 -0.2388  0.6583 -0.0187
19292SOL    HW159009   3.978   7.782   5.373 -0.8945 -0.8930 -1.5668
19292SOL    HW259010   4.128   7.764   5.384 -0.6065  2.3573  1.4729
19293SOL     OW59011   8.582   1.157   2.599  0.8787  0.0077  0.3731
19293SOL    HW159012   8.658   1.128   2.548  2.2043 -0.8914  2.7053
19293SOL    HW259013   8.601   1.249   2.618  0.7871  0.1194 -0.0747
19294SOL     OW59014   2.693   0.419   7.133  0.3176 -0.4339 -0.7557
19294SOL    HW159015   2.744   0.471   7.195  0.2309 -2.0096  0.6879
19294SOL    HW259016   2.602   0.433   7.159  0.1731 -0.0179 -1.4357
19295SOL     OW59017   3.860   5.060   5.102  0.1606  0.2862  0.5280
19295SOL    HW159018   3.864   5.085   5.010 -1.5130  0.6177  0.5143
19295SOL    HW259019   3.803   5.126   5.143 -0.9899 -1.1559  1.3270
19296SOL     OW59020   0.726   0.118   1.389  0.1266 -0.0101 -0.2161
19296SOL    HW159021   0.806   0.116   1.337  0.0088 -0.5256 -0.3789
19296SOL    HW259022   0.660   0.154   1.330 -0.0419 -0.7391 -0.4714
19297SOL     OW59023   1.350   1.821   8.996 -0.0458  0.2614 -0.2093
19297SOL    HW159024   1.394   1.861   8.921  0.4542 -2.0155 -1.2275
19297SOL    HW259025   1.419   1.804   9.059 -0.0982  0.1726 -0.1748
19298SOL     OW59026   8.802   3.150   6.360  0.3313  0.2143  0.3664
19298SOL    HW159027   8.784   3.210   6.432  2.2909  0.5031  0.6847
19298SOL    HW259028   8.716   3.125   6.326 -0.6240  4.2235 -0.6619
19299SOL     OW59029   6.451   6.846   0.712  0.1249 -0.0716  0.6021
19299SOL    HW159030   6.428   6.780   0.777  1.2235 -2.2649 -1.0991
19299SOL    HW259031   6.539   6.824   0.684 -0.1211  1.0636 -1.2891
19300SOL     OW59032   1.154   1.073   0.388 -0.0276  0.1442 -0.0704
19300SOL    HW159033   1.077   1.048   0.438 -0.6501 -0.5247 -1.3169
19300SOL    HW259034   1.144   1.168   0.375 -0.0879  0.2429  0.6714
19301SOL     OW59035   8.728   8.953   8.319  0.2693 -0.3672  0.8083
19301SOL    HW159036   8.633   8.943   8.316  0.2405 -0.0068 -1.0576
19301SOL    HW259037   8.760   8.891   8.253  1.4713 -1.6177  2.4809
19302SOL     OW59038   6.425   0.857   6.630 -0.3515  0.1766 -0.5062
19302SOL    HW159039   6.410   0.892   6.542  1.9893 -0.2681 -1.1519
19302SOL    HW259040   6.347   0.805   6.649 -1.0480  0.5593 -2.1629
19303SOL     OW59041   8.935   3.773   5.072  0.1982  0.2083 -0.0757
19303SOL    HW159042   8.862   3.832   5.056 -0.6817 -0.9046 -0.2432
19303SOL    HW259043   8.983   3.812   5.145 -0.7235  0.7998  0.2169
19304SOL     OW59044   0.044   0.063   8.278  0.1191  0.6475 -0.1441
19304SOL    HW159045   0.024   0.038   8.187  1.0770  0.7354 -0.3902
19304SOL    HW259046   0.139   0.060   8.283  0.2435  3.1643  0.1374
19305SOL     OW59047   1.035   2.767   5.903 -0.2892  0.1470  0.4940
19305SOL    HW159048   0.997   2.781   5.816 -0.2681  1.3707  0.6591
19305SOL    HW259049   1.086   2.687   5.894  1.9779  1.6665 -1.4206
19306SOL     OW59050   1.657   5.642   4.153 -0.5012  0.0688  0.1697
19306SOL    HW159051   1.625   5.566   4.201 -2.4880  1.6680  1.5908
19306SOL    HW259052   1.603   5.646   4.075 -1.2220  0.6159  0.6745
19307SOL     OW59053   4.399   4.788   5.491 -0.0657  0.3514  0.1557
19307SOL    HW159054   4.424   4.700   5.463  1.3927  0.9337 -0.4589
19307SOL    HW259055   4.451   4.803   5.570  0.9229  1.2558 -0.6460
19308SOL     OW59056   6.716   4.906   8.225 -0.0911 -0.3897  0.1103
19308SOL    HW159057   6.664   4.970   8.176 -0.4207 -1.2203 -0.6551
19308SOL    HW259058   6.705   4.932   8.317 -0.0718  0.7480 -0.1920
19309SOL     OW59059   4.725   3.543   4.352 -0.2758 -0.3146 -0.3902
19309SOL    HW159060   4.669   3.617   4.376  0.4298 -0.2998  1.3431
19309SOL    HW259061   4.665   3.470   4.340 -0.7242 -0.2499  1.2484
19310SOL     OW59062   6.021   7.421   1.048  0.1431  0.3327  0.1423
19310SOL    HW159063   5.965   7.388   0.978  0.0761 -0.8091  0.7077
19310SOL    HW259064   5.976   7.499   1.081 -1.5527 -0.9470  1.0692
19311SOL     OW59065   8.977   6.344   1.378 -0.4381  0.2788 -0.1914
19311SOL    HW159066   9.030   6.342   1.298 -0.0169  1.5264  0.0283
19311SOL    HW259067   9.033   6.306   1.445 -1.3843 -2.3412 -0.7573
19312SOL     OW59068   0.518   0.207   2.141 -0.1313  0.1906  0.3939
19312SOL    HW159069   0.580   0.242   2.205 -0.1982  0.0522  0.5363
19312SOL    HW259070   0.505   0.278   2.079 -2.4840  1.5267  2.2465
19313SOL     OW59071   5.808   2.469   8.501  0.0953  0.2467 -0.1734
19313SOL    HW159072   5.791   2.377   8.480  0.4714  0.2078 -0.3117
19313SOL    HW259073   5.791   2.515   8.419 -2.3186  0.5996  0.4518
19314SOL     OW59074   1.378   7.292   2.785 -0.9784 -0.9022 -0.1261
19314SOL    HW159075   1.410   7.325   2.701 -1.5065  0.5584  0.2167
19314SOL    HW259076   1.283   7.299   2.779 -0.9773  0.4471  1.0533
19315SOL     OW59077   0.095   5.063   5.002  0.5566 -0.0977  0.0375
19315SOL    HW159078   0.070   5.097   5.088 -0.8875  0.9041 -0.7397
19315SOL    HW259079   0.075   4.969   5.007  2.0335 -0.4070  1.2955
19316SOL     OW59080   5.446   6.639   3.251 -0.2630 -0.0626 -0.1514
19316SOL    HW159081   5.389   6.650   3.174 -1.0958 -0.5167  0.3811
19316SOL    HW259082   5.462   6.545   3.255  0.7957  0.0923 -0.4695
19317SOL     OW59083   5.354   3.844   2.331 -0.2589  0.2755  0.4364
19317SOL    HW159084   5.276   3.880   2.290 -0.8994 -1.2242  0.2887
19317SOL    HW259085   5.339   3.855   2.425 -0.6355  0.0332  0.4065
19318SOL     OW59086   4.440   7.943   4.169  0.4315  0.1106 -0.1937
19318SOL    HW159087   4.364   7.900   4.131 -1.0059  1.0889  1.4200
19318SOL    HW259088   4.430   8.035   4.146 -0.3084  0.6780  2.0953
19319SOL     OW59089   0.440   7.312   2.495  0.3875 -0.3561  0.2498
19319SOL    HW159090   0.443   7.220   2.521  1.3829 -0.4713 -0.2362
19319SOL    HW259091   0.460   7.311   2.401  0.7359  0.3808  0.3111
19320SOL     OW59092   2.112   1.976   4.886  0.1539 -0.2322  0.2120
19320SOL    HW159093   2.092   1.967   4.793 -0.2768  0.1953  0.2622
19320SOL    HW259094   2.034   2.016   4.924  0.3496 -0.3475  0.7498
19321SOL     OW59095   6.517   0.523   4.673 -0.7213 -0.7434 -0.3112
19321SOL    HW159096   6.608   0.540   4.698 -0.9570  0.6546 -0.3239
19321SOL    HW259097   6.516   0.431   4.647  0.8468 -0.5910 -1.0177
19322SOL     OW59098   3.483   7.991   7.037  0.1855 -0.2640 -0.1798
19322SOL    HW159099   3.403   7.982   6.985  1.0467  0.8115 -1.7866
19322SOL    HW259100   3.452   8.006   7.126 -1.3458 -2.1320 -0.3305
19323SOL     OW59101   6.023   5.052   6.045 -0.6821 -0.3381  0.3212
19323SOL    HW159102   5.958   4.987   6.073  0.5718 -1.2591  1.2320
19323SOL    HW259103   6.103   5.026   6.090  0.4114  0.5684 -1.0200
19324SOL     OW59104   1.928   1.847   0.712  0.4041 -0.5737 -0.0336
19324SOL    HW159105   1.843   1.872   0.677  0.9464  0.9026 -0.3818
19324SOL    HW259106   1.936   1.754   0.692 -1.5871 -1.0281  1.0371
19325SOL     OW59107   6.435   4.750   0.500 -0.0828  0.1292  0.1848
19325SOL    HW159108   6.477   4.765   0.585 -0.9806  1.1138  0.4772
19325SOL    HW259109   6.508   4.732   0.440  0.7210  1.2526  0.7813
19326SOL     OW59110   3.197   6.436   5.687 -0.7487 -0.0395 -0.6304
19326SOL    HW159111   3.282   6.395   5.673 -1.2059 -1.1575 -0.2214
19326SOL    HW259112   3.217   6.522   5.724  0.1643 -1.2086  1.7550
19327SOL     OW59113   1.046   5.654   5.478  0.2745 -0.4782 -0.5495
19327SOL    HW159114   1.089   5.579   5.520 -1.0130  0.2605  2.3175
19327SOL    HW259115   0.956   5.625   5.463  0.1970 -0.0428 -0.9515
19328SOL     OW59116   3.381   5.493   5.705  0.3180 -0.1954  0.3420
19328SOL    HW159117   3.461   5.535   5.672  0.0668  0.3835  0.4704
19328SOL    HW259118   3.370   5.416   5.649  0.5536  0.1311 -0.1595
19329SOL     OW59119   6.925   8.523   1.641  0.3251 -0.2552  0.2175
19329SOL    HW159120   6.837   8.550   1.668 -0.0282 -0.7506 -0.4196
19329SOL    HW259121   6.983   8.563   1.706 -0.3076  0.6570  0.2397
19330SOL     OW59122   6.017   6.862   6.648  0.1118  0.4880  0.0627
19330SOL    HW159123   6.051   6.817   6.725  0.8634 -0.8917 -1.0236
19330SOL    HW259124   5.926   6.834   6.642  0.2445  0.0497  0.0650
19331SOL     OW59125   2.660   6.597   1.883  0.1101  0.5255 -0.0573
19331SOL    HW159126   2.565   6.594   1.900  0.0697  1.6970 -0.0305
19331SOL    HW259127   2.684   6.505   1.869 -1.3062  0.3293 -1.5703
19332SOL     OW59128   8.584   0.323   1.149 -0.2950  0.4566 -0.2818
19332SOL    HW159129   8.659   0.366   1.109 -0.5073 -0.5332 -1.8390
19332SOL    HW259130   8.579   0.237   1.106 -1.2606 -0.2095  1.0519
19333SOL     OW59131   7.795   8.635   7.679 -0.4354 -0.3598 -0.8008
19333SOL    HW159132   7.871   8.655   7.623 -0.7114 -0.0543 -1.0752
19333SOL    HW259133   7.790   8.540   7.680 -0.6529 -0.3727 -1.6284
19334SOL     OW59134   5.220   7.279   3.814  0.4984 -0.1980 -0.2545
19334SOL    HW159135   5.302   7.328   3.820  0.4248  0.2151 -2.0150
19334SOL    HW259136   5.158   7.328   3.868  0.9789  0.4516 -0.2841
19335SOL     OW59137   6.281   7.468   1.219 -0.8020 -0.5904 -0.4488
19335SOL    HW159138   6.312   7.414   1.291 -0.0511  0.3392 -0.0483
19335SOL    HW259139   6.195   7.433   1.198 -1.0981 -0.7940  1.0038
19336SOL     OW59140   6.981   3.344   1.629 -0.2294 -0.3690  0.4346
19336SOL    HW159141   6.938   3.414   1.580  0.2887 -0.3814 -0.0475
19336SOL    HW259142   7.036   3.300   1.565  0.1136 -0.6736  0.9283
19337SOL     OW59143   6.505   2.147   0.220  0.6111  0.5333 -0.1009
19337SOL    HW159144   6.473   2.205   0.151 -0.6721  0.5169  0.4531
19337SOL    HW259145   6.441   2.076   0.223  0.5620  0.6156  1.2001
19338SOL     OW59146   1.823   1.063   0.578 -0.2959 -0.3464 -0.1750
19338SOL    HW159147   1.856   1.145   0.616 -0.8507 -0.2078  0.0334
19338SOL    HW259148   1.887   0.997   0.603 -0.6723 -0.2669  1.0807
19339SOL     OW59149   6.997   7.430   0.788  0.0705 -0.6862  0.4491
19339SOL    HW159150   6.932   7.363   0.810  0.4009 -1.3552 -0.5256
19339SOL    HW259151   7.045   7.444   0.869 -2.3592  1.1032  1.7001
19340SOL     OW59152   3.001   7.041   7.721 -0.3175 -0.4088 -1.1569
19340SOL    HW159153   2.941   7.020   7.649 -0.7634 -1.2567 -0.5545
19340SOL    HW259154   2.968   7.123   7.756 -0.6208 -0.4391 -1.3668
19341SOL     OW59155   3.034   0.166   5.984 -0.2094  0.4488 -0.0945
19341SOL    HW159156   3.020   0.259   5.967  0.7432  0.8638  1.2330
19341SOL    HW259157   3.052   0.161   6.078  1.1132 -0.8961 -0.3770
19342SOL     OW59158   6.812   6.796   6.408  0.3306 -0.1038 -0.1026
19342SOL    HW159159   6.786   6.871   6.354 -1.2815 -0.5605 -0.0107
19342SOL    HW259160   6.745   6.729   6.390 -0.5924 -0.1046  2.8051
19343SOL     OW59161   8.792   8.948   3.247  0.1663  0.2023  0.0162
19343SOL    HW159162   8.707   8.932   3.288  0.8766 -2.1487  0.6882
19343SOL    HW259163   8.786   9.039   3.216 -2.5850  0.1178 -0.0057
19344SOL     OW59164   5.930   0.915   7.389  0.2641 -0.1496 -0.1704
19344SOL    HW159165   5.979   0.953   7.316  1.1706 -0.4387  0.2574
19344SOL    HW259166   5.923   0.987   7.453 -0.7086  0.1625 -0.6177
19345SOL     OW59167   8.320   4.626   0.785 -0.1614 -0.2865 -0.1850
19345SOL    HW159168   8.258   4.654   0.853 -0.7406  0.1716 -0.8880
19345SOL    HW259169   8.271   4.632   0.703  0.2799 -1.6178 -0.5705
19346SOL     OW59170   4.311   4.106   4.320  0.3028  0.0217  0.2068
19346SOL    HW159171   4.360   4.109   4.238  0.9929  1.1970  0.6405
19346SOL    HW259172   4.363   4.157   4.382 -1.0020  0.5415  0.9357
19347SOL     OW59173   8.930   1.895   4.054  0.2351 -0.0460 -0.3197
19347SOL    HW159174   8.889   1.945   3.983  2.7478  1.1780 -1.0165
19347SOL    HW259175   8.960   1.815   4.013  1.8368  0.7345 -0.7565
19348SOL     OW59176   8.652   2.515   1.001  0.4638 -1.0793 -0.0831
19348SOL    HW159177   8.680   2.517   1.093  0.5122 -1.6757 -0.0803
19348SOL    HW259178   8.730   2.488   0.953  0.9454  0.9186 -0.5170
19349SOL     OW59179   4.318   2.909   3.920  0.2709  0.6613 -0.2045
19349SOL    HW159180   4.297   2.816   3.925  0.8562  0.5980  1.8506
19349SOL    HW259181   4.260   2.951   3.983  2.7899  1.0732  2.0357
19350SOL     OW59182   0.598   8.157   1.780  0.1240  0.4376  0.1507
19350SOL    HW159183   0.595   8.250   1.759 -3.0616  0.6483  1.1001
19350SOL    HW259184   0.610   8.114   1.695 -0.4833  1.6310 -0.5654
19351SOL     OW59185   0.225   6.222   7.331 -0.1417 -0.3310 -0.5359
19351SOL    HW159186   0.271   6.297   7.370  1.5949 -2.6192  2.1971
19351SOL    HW259187   0.134   6.234   7.357  0.4323 -0.0585  1.5547
19352SOL     OW59188   1.468   3.989   6.346  0.0092  0.3285 -0.1782
19352SOL    HW159189   1.476   4.073   6.301  0.8605  0.8000  0.8023
19352SOL    HW259190   1.463   3.924   6.276 -1.5317  1.2421 -0.9713
19353SOL     OW59191   3.624   1.562   0.084  0.3790  0.2196  0.0720
19353SOL    HW159192   3.669   1.599   0.008 -0.7681  0.6107 -0.4449
19353SOL    HW259193   3.535   1.597   0.078 -0.1708 -1.0168  0.7104
19354SOL     OW59194   5.303   0.415   2.371  0.6905 -0.8462  0.4400
19354SOL    HW159195   5.395   0.391   2.381  0.8276 -1.0126 -1.0554
19354SOL    HW259196   5.303   0.488   2.309 -0.1229 -0.2305  1.1351
19355SOL     OW59197   3.257   3.221   2.586  0.0962  0.0111 -0.2554
19355SOL    HW159198   3.265   3.125   2.588  1.7313  0.1087 -0.3436
19355SOL    HW259199   3.271   3.248   2.677  0.8899  0.2212 -0.4311
19356SOL     OW59200   4.778   5.793   4.194  0.2333 -0.1172 -0.0132
19356SOL    HW159201   4.834   5.855   4.240  0.8181  0.1025 -1.0085
19356SOL    HW259202   4.838   5.739   4.143 -0.3744 -0.6468 -0.1832
19357SOL     OW59203   3.705   6.069   2.553  0.1382 -0.0963  0.7220
19357SOL    HW159204   3.641   6.096   2.619 -1.3716  1.9074 -1.4307
19357SOL    HW259205   3.786   6.113   2.579 -0.3804  0.5270  1.3284
19358SOL     OW59206   7.018   1.889   1.017 -0.2733 -0.4572 -0.2394
19358SOL    HW159207   7.083   1.958   1.015 -0.6052 -0.1409 -1.5794
19358SOL    HW259208   6.948   1.921   0.960 -1.4576 -0.9296  0.8990
19359SOL     OW59209   2.988   6.592   1.596 -0.0298  0.1551 -0.3140
19359SOL    HW159210   2.978   6.656   1.525 -0.8578 -0.0659 -0.4079
19359SOL    HW259211   2.926   6.621   1.663 -0.6338 -0.7074 -0.4830
19360SOL     OW59212   6.398   0.375   8.563 -0.1052 -0.2906 -0.3235
19360SOL    HW159213   6.435   0.442   8.619 -0.8607  1.1094 -1.4241
19360SOL    HW259214   6.462   0.364   8.492  0.1196 -0.9041 -0.0304
19361SOL     OW59215   3.988   5.433   5.313 -0.0862  0.2957 -0.4113
19361SOL    HW159216   3.957   5.424   5.403  0.3742  0.7847 -0.2014
19361SOL    HW259217   3.997   5.343   5.282  1.3365  0.0604  0.5812
19362SOL     OW59218   1.147   6.713   7.543 -0.0667 -0.3429  0.6252
19362SOL    HW159219   1.116   6.802   7.562 -0.5312 -0.3071 -0.2661
19362SOL    HW259220   1.187   6.719   7.456 -1.2589 -1.2644 -0.0187
19363SOL     OW59221   2.925   7.649   6.849  0.3280  0.2131  0.4441
19363SOL    HW159222   2.857   7.583   6.861  1.5224 -0.9541  1.1486
19363SOL    HW259223   2.883   7.732   6.873 -0.8650 -0.4521  0.7536
19364SOL     OW59224   5.944   0.047   4.060  0.4723  0.3603 -0.1766
19364SOL    HW159225   5.894   0.070   4.139  0.3409  0.5501 -0.3137
19364SOL    HW259226   5.878   0.013   3.999  0.8471 -1.9674  0.5930
19365SOL     OW59227   3.110   4.120   0.025  0.0686  0.1383 -0.2506
19365SOL    HW159228   3.053   4.137  -0.051 -0.4489 -0.5258 -0.0237
19365SOL    HW259229   3.115   4.204   0.070  0.4018  0.5516 -1.0312
19366SOL     OW59230   0.997   4.645   8.224 -0.2257 -0.6208 -0.5828
19366SOL    HW159231   0.951   4.718   8.265 -1.3585 -1.9439  0.6023
19366SOL    HW259232   1.010   4.582   8.295  0.3200 -1.7605 -1.6616
19367SOL     OW59233   9.112   6.192   4.064 -0.3154 -0.5639  0.5894
19367SOL    HW159234   9.168   6.116   4.084 -1.1819 -1.0659  1.1746
19367SOL    HW259235   9.036   6.154   4.020 -0.6220  0.0035  0.6238
19368SOL     OW59236   6.038   4.223   2.586  0.0812 -0.0049  0.5166
19368SOL    HW159237   5.984   4.149   2.609 -2.1446  1.5146  0.4772
19368SOL    HW259238   5.982   4.279   2.533  1.6075  1.7899  0.6612
19369SOL     OW59239   8.690   4.640   1.725  0.3749 -0.9022  0.4234
19369SOL    HW159240   8.708   4.618   1.816 -0.1408  3.1009  1.6971
19369SOL    HW259241   8.597   4.625   1.714  0.2369 -0.4191  0.9114
19370SOL     OW59242   6.750   7.148   7.997  0.0472 -0.0608  0.1455
19370SOL    HW159243   6.742   7.243   8.011 -1.0232 -0.3929  2.1352
19370SOL    HW259244   6.661   7.115   8.008  0.0987 -1.1401 -2.2489
19371SOL     OW59245   4.686   2.652   8.533 -0.3377  0.6382  0.5423
19371SOL    HW159246   4.691   2.585   8.602 -1.7925  1.0100  1.0463
19371SOL    HW259247   4.769   2.644   8.486 -0.2473 -1.1489  0.9321
19372SOL     OW59248   3.092   5.542   5.658  0.3699 -0.2804 -0.5067
19372SOL    HW159249   3.075   5.636   5.660  1.7881 -0.0196  1.2822
19372SOL    HW259250   3.186   5.533   5.670  0.3760 -1.9291 -1.4204
19373SOL     OW59251   6.596   3.988   0.262 -0.3816 -0.0661  0.3238
19373SOL    HW159252   6.504   3.964   0.252  0.0516 -1.3920 -0.8760
19373SOL    HW259253   6.644   3.916   0.221  1.1320  1.7068 -1.2136
19374SOL     OW59254   5.049   2.444   4.797 -0.2603  0.1583  0.4012
19374SOL    HW159255   5.010   2.414   4.714  2.1955  1.8188 -1.4942
19374SOL    HW259256   5.045   2.368   4.855 -1.4854 -1.2658 -1.4447
19375SOL     OW59257   1.698   3.017   6.964 -0.4381  0.4194  0.1837
19375SOL    HW159258   1.742   2.937   6.992  0.2560  0.3967 -0.9167
19375SOL    HW259259   1.606   2.991   6.955 -0.6985  0.4224  2.3059
19376SOL     OW59260   3.484   0.039   2.816  0.1479 -0.1679 -0.5214
19376SOL    HW159261   3.494   0.087   2.898 -0.0990 -0.1987 -0.4705
19376SOL    HW259262   3.448   0.104   2.756  0.3395 -0.1424 -0.6088
19377SOL     OW59263   2.386   3.829   1.692  0.1105 -0.5443 -0.3629
19377SOL    HW159264   2.313   3.832   1.630  0.4584  0.5866 -0.7401
19377SOL    HW259265   2.425   3.743   1.677 -0.6839 -0.8627 -0.6915
19378SOL     OW59266   1.196   2.926   6.051  0.0007 -0.0823  0.0800
19378SOL    HW159267   1.130   2.883   5.997  0.7388  0.8053 -1.6313
19378SOL    HW259268   1.192   2.882   6.135 -1.8805 -0.8889 -0.3929
19379SOL     OW59269   4.995   1.823   5.892  0.2497  0.0170 -0.4132
19379SOL    HW159270   4.964   1.788   5.808 -1.0715 -0.8012  0.3884
19379SOL    HW259271   4.978   1.754   5.955  2.2807  0.1587  0.3868
19380SOL     OW59272   1.382   1.476   7.554 -0.1549 -0.1022  0.4185
19380SOL    HW159273   1.349   1.531   7.483 -0.6313  0.4965  1.0878
19380SOL    HW259274   1.308   1.467   7.614 -0.1497 -1.6636  0.2203
19381SOL     OW59275   1.308   4.701   1.541 -0.1269 -0.6615  0.6615
19381SOL    HW159276   1.360   4.776   1.572 -1.1153 -0.3066  1.5394
19381SOL    HW259277   1.348   4.677   1.457  0.9219  0.1197  0.9134
19382SOL     OW59278   8.508   5.388   7.765 -0.5737 -0.0985 -0.0577
19382SOL    HW159279   8.414   5.389   7.781 -0.7052 -1.7979 -0.4737
19382SOL    HW259280   8.528   5.295   7.750  1.0900  0.2918 -0.4151
19383SOL     OW59281   4.471   0.384   4.436 -0.1661 -0.6190  0.1462
19383SOL    HW159282   4.552   0.362   4.390  0.2151 -1.1380  1.0400
19383SOL    HW259283   4.462   0.479   4.425  0.2613 -0.6455 -0.4390
19384SOL     OW59284   0.521   1.828   4.674  0.3494 -0.3539 -0.1223
19384SOL    HW159285   0.459   1.823   4.601  0.7698 -0.1457 -0.4939
19384SOL    HW259286   0.515   1.918   4.704  0.2796 -0.4034  0.0119
19385SOL     OW59287   4.188   0.806   6.907  0.4499 -0.1273 -0.0964
19385SOL    HW159288   4.113   0.757   6.941 -0.1096  1.0743  0.4836
19385SOL    HW259289   4.226   0.750   6.840 -0.9296 -0.8055 -0.3363
19386SOL     OW59290   5.998   8.898   7.921 -0.2588  0.3847 -0.2539
19386SOL    HW159291   6.090   8.886   7.897 -0.7365 -1.2455 -1.4670
19386SOL    HW259292   6.000   8.959   7.995  1.8096  0.1227 -0.0346
19387SOL     OW59293   8.241   0.864   7.813 -0.0562  0.0868  0.1807
19387SOL    HW159294   8.159   0.863   7.764 -0.1069 -0.6308  0.2764
19387SOL    HW259295   8.215   0.844   7.903  0.0637  1.1636  0.4736
19388SOL     OW59296   0.950   2.636   8.680  0.6379 -0.3604 -0.0958
19388SOL    HW159297   0.888   2.700   8.714 -0.2356 -0.6234 -1.1312
19388SOL    HW259298   1.016   2.627   8.749 -0.9466 -0.7403  1.4323
19389SOL     OW59299   3.977   0.062   2.200 -0.2420  0.1068  0.2868
19389SOL    HW159300   3.890   0.086   2.232 -0.7754 -0.6480 -0.5791
19389SOL    HW259301   3.962   0.026   2.113  0.6151 -2.5268  1.1492
19390SOL     OW59302   8.957   4.408   5.440  0.5511  0.4711 -0.1313
19390SOL    HW159303   8.994   4.377   5.357  0.6533 -1.2159  0.5194
19390SOL    HW259304   8.863   4.393   5.431  0.6054 -0.0963  0.1978
19391SOL     OW59305   8.194   1.202   2.988 -0.2564  0.5000 -0.1069
19391SOL    HW159306   8.227   1.250   3.065 -0.1104  0.0438  0.1197
19391SOL    HW259307   8.107   1.238   2.974 -0.5902  0.0665  0.7465
19392SOL     OW59308   4.477   5.764   6.408 -0.0460  0.1150 -0.4537
19392SOL    HW159309   4.387   5.796   6.417 -0.1935 -0.3093 -0.3532
19392SOL    HW259310   4.528   5.841   6.384 -0.3736  0.4378 -0.1375
19393SOL     OW59311   0.602   2.830   5.664  0.3292  0.4931 -0.1822
19393SOL    HW159312   0.544   2.786   5.727  2.1344  0.6502  1.7064
19393SOL    HW259313   0.624   2.762   5.601  0.6526 -0.5076  0.9535
19394SOL     OW59314   7.152   0.231   1.649 -0.5972 -0.2074 -0.1320
19394SOL    HW159315   7.143   0.138   1.627 -0.4593  0.2608 -2.3692
19394SOL    HW259316   7.175   0.273   1.566 -0.0193  1.7491  0.9661
19395SOL     OW59317   3.177   1.047   3.064 -0.0666  0.1004  0.0625
19395SOL    HW159318   3.094   1.052   3.112 -0.4827  0.8020 -0.7252
19395SOL    HW259319   3.174   0.962   3.020 -0.0009 -0.2305  0.6818
19396SOL     OW59320   6.066   7.803   2.796 -0.1892 -0.1945 -0.6168
19396SOL    HW159321   6.075   7.711   2.823  0.8377 -0.2410 -1.0543
19396SOL    HW259322   5.982   7.807   2.751 -0.0679 -1.0141 -0.9318
19397SOL     OW59323   5.132   8.203   6.144  0.1661  0.7003  0.5603
19397SOL    HW159324   5.158   8.261   6.216  0.4520  0.4151  0.6930
19397SOL    HW259325   5.196   8.131   6.148  1.2145  1.4999 -1.0156
19398SOL     OW59326   3.046   4.616   1.969  0.7681 -0.5890 -0.2558
19398SOL    HW159327   2.950   4.618   1.980  0.8996  1.2985  1.0988
19398SOL    HW259328   3.076   4.553   2.034  0.4659 -1.0190 -0.5285
19399SOL     OW59329   3.015   6.740   6.421  0.1827 -0.3320 -0.2453
19399SOL    HW159330   2.930   6.774   6.395  0.3269 -0.3405 -0.7450
19399SOL    HW259331   3.022   6.655   6.377 -0.1830 -1.0363  1.0113
19400SOL     OW59332   4.296   8.563   0.239 -0.1602  0.2993 -0.3786
19400SOL    HW159333   4.369   8.511   0.207  0.8972  1.0917  0.6669
19400SOL    HW259334   4.226   8.499   0.254  0.4164 -0.5136 -1.0525
19401SOL     OW59335   5.553   4.513   2.358 -0.2173 -0.0798  0.7615
19401SOL    HW159336   5.469   4.474   2.380 -1.2762  0.5133 -1.8976
19401SOL    HW259337   5.533   4.604   2.334  1.1138 -0.0150 -0.2645
19402SOL     OW59338   7.107   9.091   5.905 -0.0403  0.1836  0.5137
19402SOL    HW159339   7.108   9.148   5.982 -0.0996 -0.2104  0.8099
19402SOL    HW259340   7.194   9.103   5.866  0.8220 -1.2309  1.8611
19403SOL     OW59341   2.585   4.411   3.239 -0.0963 -0.5171  0.1194
19403SOL    HW159342   2.645   4.414   3.164 -0.7359  0.7360 -0.3669
19403SOL    HW259343   2.557   4.502   3.251 -0.8077 -0.8690  1.2265
19404SOL     OW59344   7.236   7.277   7.637 -0.1351 -0.0999  0.1051
19404SOL    HW159345   7.238   7.362   7.592  0.7372 -0.9703 -1.6145
19404SOL    HW259346   7.286   7.292   7.717 -1.1089  1.3289  0.4895
19405SOL     OW59347   4.271   7.490   1.695  0.1308 -0.4570 -0.3292
19405SOL    HW159348   4.363   7.496   1.722 -0.0156 -1.3624  0.4177
19405SOL    HW259349   4.252   7.396   1.696 -1.5741 -0.1870  2.2372
19406SOL     OW59350   1.871   3.054   4.939 -0.3051 -0.4351  0.0327
19406SOL    HW159351   1.839   3.102   5.016 -0.7449  1.0152 -0.9929
19406SOL    HW259352   1.819   2.974   4.937 -1.6826  0.4210  0.1888
19407SOL     OW59353   2.074   8.709   3.309  0.3117  0.2788  0.7543
19407SOL    HW159354   2.071   8.711   3.404  0.3984 -0.2987  0.7763
19407SOL    HW259355   2.068   8.616   3.287  0.8046  0.3673  0.2169
19408SOL     OW59356   0.143   1.408   8.499 -0.2081  0.1914 -0.6951
19408SOL    HW159357   0.201   1.351   8.550 -0.0575  0.1265 -0.9351
19408SOL    HW259358   0.069   1.352   8.475 -1.2873  0.7712  1.1752
19409SOL     OW59359   8.936   0.468   3.666  0.2062 -0.2202  0.2521
19409SOL    HW159360   8.958   0.545   3.719 -1.1327 -0.0527  0.5880
19409SOL    HW259361   9.021   0.431   3.642  0.8909  1.6292 -0.3275
19410SOL     OW59362   5.296   3.654   8.565 -0.5349  0.3731  0.0692
19410SOL    HW159363   5.341   3.721   8.617  0.4091  0.3499 -0.6788
19410SOL    HW259364   5.285   3.581   8.625  1.1515  0.0964  0.0851
19411SOL     OW59365   1.688   5.463   3.851 -0.3849  0.1489  0.1104
19411SOL    HW159366   1.744   5.535   3.822 -1.6236  1.5128  0.9560
19411SOL    HW259367   1.601   5.484   3.817 -1.0224 -0.2982  1.3930
19412SOL     OW59368   2.796   6.004   5.589 -0.5161 -0.1294  0.3045
19412SOL    HW159369   2.745   5.968   5.516  0.4199 -1.0486  0.0749
19412SOL    HW259370   2.770   6.096   5.593 -1.0352 -0.2083 -0.8089
19413SOL     OW59371   4.341   2.900   2.287  0.5195 -0.3980 -0.0618
19413SOL    HW159372   4.285   2.833   2.327  0.2914 -0.1813 -0.0168
19413SOL    HW259373   4.415   2.850   2.251  1.0081 -0.5375  1.0903
19414SOL     OW59374   2.959   6.968   8.019 -0.3703 -0.9833  0.2635
19414SOL    HW159375   2.949   6.998   7.929 -0.8879 -1.5539  0.1323
19414SOL    HW259376   2.875   6.987   8.061  0.1835  0.1938  0.9055
19415SOL     OW59377   7.126   0.315   4.450  0.4084  0.2015 -0.5151
19415SOL    HW159378   7.112   0.298   4.356 -2.2217 -0.7803 -0.0415
19415SOL    HW259379   7.082   0.241   4.494  1.6943  0.5732  1.5037
19416SOL     OW59380   6.337   3.467   7.447  0.0631  0.2424 -0.4401
19416SOL    HW159381   6.265   3.479   7.509  0.5181  1.3134 -0.0876
19416SOL    HW259382   6.372   3.381   7.467 -0.1408  0.3554  0.4471
19417SOL     OW59383   0.138   8.031   2.699 -0.1060  0.2612  0.3291
19417SOL    HW159384   0.179   8.045   2.614 -2.1599  0.0209 -0.7625
19417SOL    HW259385   0.168   8.105   2.752  0.1386  1.1782 -1.0291
19418SOL     OW59386   3.112   7.262   4.162  0.1579  0.4557 -0.0129
19418SOL    HW159387   3.078   7.258   4.252  0.5888 -0.8351  0.1151
19418SOL    HW259388   3.043   7.306   4.113 -2.1660 -2.7425  0.0927
19419SOL     OW59389   0.034   3.399   6.024 -0.1826  0.7019  0.0209
19419SOL    HW159390   0.127   3.406   6.045  0.5978 -1.9930 -2.0419
19419SOL    HW259391  -0.006   3.365   6.104  1.5414 -2.9329 -0.4920
19420SOL     OW59392   2.686   3.361   3.020 -0.4737 -0.0121  0.5614
19420SOL    HW159393   2.699   3.269   3.000  2.7920 -0.1634  2.5798
19420SOL    HW259394   2.739   3.408   2.955  0.6671  0.1697  1.5821
19421SOL     OW59395   0.496   5.298   4.164 -0.3438  0.3015  0.1738
19421SOL    HW159396   0.404   5.308   4.191 -1.6105 -0.6141 -3.3488
19421SOL    HW259397   0.514   5.205   4.177  0.4376  0.6195  1.6145
19422SOL     OW59398   3.890   4.966   6.834  0.1650  0.2159 -0.5308
19422SOL    HW159399   3.816   4.932   6.785 -1.5916  2.7284  0.1958
19422SOL    HW259400   3.890   4.914   6.915 -1.7660  1.0847  0.0935
19423SOL     OW59401   7.824   5.747   4.863  0.3834  0.4031  0.1014
19423SOL    HW159402   7.793   5.790   4.943  1.2001  0.6911  0.2801
19423SOL    HW259403   7.747   5.702   4.828  0.0479  0.1309  1.1436
19424SOL     OW59404   4.745   8.834   6.321 -0.0451  0.0517  0.1986
19424SOL    HW159405   4.665   8.868   6.281  0.8161  0.4417 -1.2250
19424SOL    HW259406   4.778   8.906   6.374 -0.2904  0.0919  0.3000
19425SOL     OW59407   1.746   1.403   2.005  0.4119 -0.5999 -0.9607
19425SOL    HW159408   1.679   1.413   1.938  0.5089  1.7364 -0.7740
19425SOL    HW259409   1.756   1.490   2.043 -0.4942 -1.9899  2.9597
19426SOL     OW59410   2.588   8.999   3.646 -0.1217 -0.6841 -0.2181
19426SOL    HW159411   2.644   8.922   3.638 -0.2722 -0.7550 -0.6265
19426SOL    HW259412   2.571   9.007   3.740 -1.4246 -2.1138 -0.2930
19427SOL     OW59413   8.798   9.056   6.669 -0.4188 -0.3508  0.0888
19427SOL    HW159414   8.732   9.029   6.605 -0.8844  0.4697  0.2130
19427SOL    HW259415   8.795   9.152   6.668  0.9723 -0.2873 -0.1075
19428SOL     OW59416   5.446   8.712   6.344  0.4019  0.2766 -0.4282
19428SOL    HW159417   5.461   8.796   6.389 -2.0856  0.4992  0.1200
19428SOL    HW259418   5.470   8.646   6.408 -1.2176  0.6090  0.5917
19429SOL     OW59419   7.235   2.139   2.299  0.2735 -0.3742  0.2793
19429SOL    HW159420   7.242   2.219   2.247  0.4260 -0.5285  0.0609
19429SOL    HW259421   7.265   2.165   2.387 -0.4300 -0.0038  0.4101
19430SOL     OW59422   4.582   4.959   4.953 -0.3932  0.2692 -0.1684
19430SOL    HW159423   4.527   4.884   4.933 -1.1151  1.0402 -1.1626
19430SOL    HW259424   4.588   4.960   5.049 -0.4005 -1.0102 -0.1339
19431SOL     OW59425   8.996   1.779   4.895  0.0278 -0.1636 -0.4283
19431SOL    HW159426   8.976   1.691   4.929  0.6275 -0.1703 -0.0767
19431SOL    HW259427   9.092   1.781   4.891 -0.0173 -0.0135 -1.7434
19432SOL     OW59428   9.078   4.321   2.928  0.2519 -0.5682  0.1072
19432SOL    HW159429   9.034   4.280   2.854 -0.7285 -1.3236  1.0895
19432SOL    HW259430   9.048   4.272   3.004  0.3833  0.8865  1.1314
19433SOL     OW59431   5.089   8.451   4.679  0.3453 -0.4100  0.0265
19433SOL    HW159432   5.015   8.462   4.738  0.6658  1.4118  0.1452
19433SOL    HW259433   5.069   8.371   4.630 -1.3755 -0.3123  0.5095
19434SOL     OW59434   7.325   8.683   4.078 -0.0751 -0.2643 -0.2093
19434SOL    HW159435   7.234   8.714   4.073 -0.3124 -1.1026 -1.6735
19434SOL    HW259436   7.326   8.625   4.155 -1.1554 -1.2981 -0.9239
19435SOL     OW59437   3.251   2.135   0.979  0.4986  0.7526 -0.4963
19435SOL    HW159438   3.205   2.140   0.895 -1.0399  0.2001  0.2718
19435SOL    HW259439   3.342   2.116   0.956 -0.2029 -1.0589 -1.9917
19436SOL     OW59440   3.685   2.852   3.042  0.2498  0.2553  0.0203
19436SOL    HW159441   3.597   2.880   3.015  0.8740  0.2838 -2.2223
19436SOL    HW259442   3.724   2.931   3.081 -0.5966  0.3295  0.7346
19437SOL     OW59443   3.317   4.683   1.965 -0.8068  0.2846  0.4346
19437SOL    HW159444   3.234   4.640   1.946 -1.2050  1.0117  0.4868
19437SOL    HW259445   3.382   4.631   1.919 -1.7421  2.2933 -3.6464
19438SOL     OW59446   8.140   4.898   1.793  0.3038  0.3677  0.1814
19438SOL    HW159447   8.072   4.832   1.776  1.3950 -1.2304  1.7306
19438SOL    HW259448   8.130   4.919   1.885  1.1118  1.0559  0.1178
19439SOL     OW59449   0.416   6.830   5.047 -0.1739 -0.4195 -0.1064
19439SOL    HW159450   0.461   6.756   5.006 -0.4047 -0.3425 -0.5051
19439SOL    HW259451   0.334   6.794   5.080 -0.2641 -0.3512 -0.2564
19440SOL     OW59452   0.909   4.451   5.215 -0.2097  0.1879  0.2531
19440SOL    HW159453   0.942   4.539   5.234  0.0155  0.2528 -0.4130
19440SOL    HW259454   0.821   4.466   5.179 -0.3090  0.1185  0.4671
19441SOL     OW59455   0.217   6.898   7.499  0.2453 -0.6597  0.2845
19441SOL    HW159456   0.249   6.980   7.461 -0.1275 -0.2677  0.7996
19441SOL    HW259457   0.129   6.889   7.463 -0.0978 -0.3022  1.0144
19442SOL     OW59458   2.979   8.931   3.351  0.3428  0.1597 -0.0796
19442SOL    HW159459   3.028   8.989   3.410 -0.2226  0.3632  0.1924
19442SOL    HW259460   3.023   8.941   3.267  0.7819  0.3309  0.1638
19443SOL     OW59461   0.649   2.666   3.710 -0.1704 -0.5281  0.0906
19443SOL    HW159462   0.615   2.740   3.659  0.0479  0.0493  0.7672
19443SOL    HW259463   0.744   2.678   3.710 -0.2114 -0.0349  1.3284
19444SOL     OW59464   4.986   4.908   7.479 -0.3093  0.2095  0.1790
19444SOL    HW159465   4.926   4.841   7.512  0.2730 -1.1931 -1.4711
19444SOL    HW259466   4.961   4.919   7.387  0.7775  0.9553 -0.0461
19445SOL     OW59467   1.165   6.271   5.850  0.4014  0.4354 -0.6213
19445SOL    HW159468   1.211   6.198   5.808  1.5548  2.0581 -2.3559
19445SOL    HW259469   1.220   6.348   5.831 -1.5731  2.0242 -0.2675
19446SOL     OW59470   0.684   1.876   4.404  0.2151 -0.5834  0.1541
19446SOL    HW159471   0.681   1.934   4.328 -0.4134 -0.7305  0.0580
19446SOL    HW259472   0.593   1.868   4.431  0.2529 -1.7947 -0.0406
19447SOL     OW59473   3.222   8.428   2.701 -0.1274 -0.3159 -0.7576
19447SOL    HW159474   3.273   8.495   2.655  0.3765 -0.4679 -0.4183
19447SOL    HW259475   3.131   8.453   2.685  0.0536  0.8344 -0.0901
19448SOL     OW59476   2.235   8.630   5.524 -0.5263  0.8879 -0.4784
19448SOL    HW159477   2.269   8.622   5.613 -0.2963  2.1324 -0.4254
19448SOL    HW259478   2.274   8.711   5.491 -1.4462  1.0057 -1.3368
19449SOL     OW59479   4.921   7.128   5.645  0.2557  0.3974 -0.3590
19449SOL    HW159480   4.855   7.095   5.583 -0.3432  0.6069  0.1597
19449SOL    HW259481   4.912   7.223   5.641 -0.8758  0.3942  1.1841
19450SOL     OW59482   8.562   5.116   8.616 -0.1559 -0.1658 -0.1690
19450SOL    HW159483   8.645   5.164   8.612 -1.1856  1.6624 -0.6630
19450SOL    HW259484   8.555   5.087   8.707  1.2163 -0.7702 -0.2215
19451SOL     OW59485   5.978   4.083   8.792  0.6899 -0.5239  0.5224
19451SOL    HW159486   6.023   4.092   8.876  1.5653  1.4295 -0.1061
19451SOL    HW259487   6.027   4.139   8.732 -1.1394 -0.2289 -0.7939
19452SOL     OW59488   0.957   2.889   7.681  0.2475  0.9272  0.8198
19452SOL    HW159489   1.051   2.907   7.683  0.5231 -0.2832 -0.1102
19452SOL    HW259490   0.941   2.836   7.759  0.7335 -0.5065 -0.0171
19453SOL     OW59491   8.518   7.210   4.182  0.1919 -0.7475 -0.1270
19453SOL    HW159492   8.438   7.261   4.195  1.7562  1.8504  0.1644
19453SOL    HW259493   8.488   7.120   4.170 -2.7467  0.1295 -0.1714
19454SOL     OW59494   1.490   6.963   0.937  0.0320 -0.3257 -0.5184
19454SOL    HW159495   1.469   7.007   0.855 -0.8097 -0.9512 -0.6506
19454SOL    HW259496   1.435   7.005   1.003  1.2310  0.6707 -0.1144
19455SOL     OW59497   5.678   0.018   3.167 -0.3361 -0.5858  0.7070
19455SOL    HW159498   5.681   0.063   3.251 -2.3623  0.2180  0.3975
19455SOL    HW259499   5.587   0.028   3.138 -0.0880 -2.3016 -0.7902
19456SOL     OW59500   2.816   0.973   7.406 -0.0701  1.0349 -0.7531
19456SOL    HW159501   2.899   0.977   7.359  0.3396  0.4955 -0.1056
19456SOL    HW259502   2.836   1.010   7.492 -0.2639  0.1261 -0.2989
19457SOL     OW59503   8.013   1.106   5.461  0.0384  0.0877  0.0199
19457SOL    HW159504   7.953   1.112   5.535 -0.1476 -0.2814 -0.1012
19457SOL    HW259505   8.100   1.117   5.500 -0.0538 -0.1501  0.2977
19458SOL     OW59506   1.655   4.591   8.272 -0.6787 -0.3124  0.8738
19458SOL    HW159507   1.640   4.642   8.193 -2.1259 -1.2606  0.4955
19458SOL    HW259508   1.694   4.509   8.242 -1.7177 -0.8964  1.0376
19459SOL     OW59509   0.332   4.971   8.147  0.3994  0.0907  0.2406
19459SOL    HW159510   0.267   4.971   8.217  0.7770  0.6016  0.5989
19459SOL    HW259511   0.385   4.893   8.163  0.8037  0.4782  0.8337
19460SOL     OW59512   0.585   2.533   6.357  0.2519 -0.4412 -0.1770
19460SOL    HW159513   0.596   2.619   6.396 -1.8901  0.6027 -1.7009
19460SOL    HW259514   0.633   2.474   6.415  3.3587  1.9389 -0.0278
19461SOL     OW59515   8.602   7.246   1.706  0.4970  0.0851  0.3345
19461SOL    HW159516   8.692   7.228   1.676  0.0841 -0.7777 -0.4331
19461SOL    HW259517   8.546   7.205   1.639 -0.4750  1.1999  0.4417
19462SOL     OW59518   7.090   8.124   3.971 -0.3434 -0.7651 -0.0041
19462SOL    HW159519   6.995   8.138   3.972 -0.0049  1.9668 -0.0875
19462SOL    HW259520   7.118   8.160   3.887  0.8658 -0.8095  0.3751
19463SOL     OW59521   3.209   0.297   8.960 -0.5135 -0.2691 -0.1334
19463SOL    HW159522   3.163   0.360   8.904 -2.4733 -1.4582  0.0692
19463SOL    HW259523   3.293   0.339   8.978 -0.2947  0.7095 -2.9399
19464SOL     OW59524   5.188   8.623   1.878 -0.8712  0.2231  0.1200
19464SOL    HW159525   5.144   8.670   1.949  0.5315  1.4622  0.2231
19464SOL    HW259526   5.267   8.587   1.918  1.2553  2.9935 -1.1876
19465SOL     OW59527   8.528   1.410   3.592 -0.4423  0.0934  0.2023
19465SOL    HW159528   8.539   1.408   3.687 -1.5223  0.3993  0.3427
19465SOL    HW259529   8.471   1.336   3.573 -0.9046  0.5224 -0.1056
19466SOL     OW59530   8.066   7.911   8.441  0.1971 -0.0030  0.1705
19466SOL    HW159531   8.055   7.871   8.355  0.4445  0.1782  0.0499
19466SOL    HW259532   8.061   8.005   8.424 -0.6270  0.0150  0.4846
19467SOL     OW59533   2.740   5.909   6.849  0.2876  0.4071 -0.6978
19467SOL    HW159534   2.763   5.979   6.788  0.6758  0.5275 -0.4151
19467SOL    HW259535   2.823   5.881   6.888 -0.0428  1.0165  0.5065
19468SOL     OW59536   7.870   0.382   0.217 -0.4419  0.2615 -0.3670
19468SOL    HW159537   7.959   0.374   0.251 -1.0587  1.4629  1.7418
19468SOL    HW259538   7.874   0.344   0.129  1.8561 -0.7967  0.1195
19469SOL     OW59539   2.034   5.437   3.753  0.6007  0.5942 -0.5225
19469SOL    HW159540   2.033   5.346   3.782  0.8971  0.3460 -1.2487
19469SOL    HW259541   2.105   5.440   3.689  0.9405  1.4688 -0.1109
19470SOL     OW59542   3.983   6.942   6.898  0.2764 -0.1535 -0.2279
19470SOL    HW159543   3.960   7.024   6.941  3.1323  0.9953 -0.6734
19470SOL    HW259544   3.902   6.889   6.901 -1.0604  1.8506  1.8477
19471SOL     OW59545   7.943   1.985   2.689  0.2745  0.1129 -0.2216
19471SOL    HW159546   7.965   1.897   2.719 -0.9641 -1.2466 -2.9991
19471SOL    HW259547   7.848   1.990   2.695  0.2075  0.6983 -1.4395
19472SOL     OW59548   2.620   5.766   0.802 -0.0213 -0.2725  0.3476
19472SOL    HW159549   2.687   5.700   0.785  0.8229  0.8377 -0.9558
19472SOL    HW259550   2.650   5.810   0.881  0.7101  0.0681 -0.0980
19473SOL     OW59551   6.196   2.408   5.321 -0.0183 -0.8671  0.0171
19473SOL    HW159552   6.112   2.438   5.356  0.2531  1.8082 -1.3521
19473SOL    HW259553   6.186   2.412   5.226  0.3850 -4.5887 -0.3491
19474SOL     OW59554   5.984   1.533   3.159 -0.0705  0.1564 -0.2836
19474SOL    HW159555   5.919   1.482   3.111  1.7493 -1.8389 -0.8061
19474SOL    HW259556   6.048   1.468   3.189  1.6541  1.9914  0.2556
19475SOL     OW59557   7.416   3.151   5.308 -0.1598  0.3244  0.3170
19475SOL    HW159558   7.429   3.117   5.396  0.6453 -0.3569 -0.0607
19475SOL    HW259559   7.327   3.124   5.285 -0.5874  0.9872  1.1156
19476SOL     OW59560   5.429   0.558   6.150 -0.5429 -0.2925  0.6767
19476SOL    HW159561   5.492   0.503   6.196  0.0867 -0.2281 -0.0870
19476SOL    HW259562   5.359   0.498   6.125  0.0450 -0.7234  0.0263
19477SOL     OW59563   8.284   6.147   7.454  0.2253 -0.2550 -0.1429
19477SOL    HW159564   8.198   6.105   7.466 -0.2103  0.9038  1.0630
19477SOL    HW259565   8.265   6.225   7.402  0.5807 -0.1222 -0.0717
19478SOL     OW59566   9.116   4.508   3.212 -0.0247  0.5733 -0.2602
19478SOL    HW159567   9.031   4.471   3.188 -0.4258  1.9582 -1.0767
19478SOL    HW259568   9.104   4.538   3.302  0.0601 -0.5105  0.1282
19479SOL     OW59569   8.272   0.778   2.674 -0.3646 -0.5890 -0.3994
19479SOL    HW159570   8.355   0.794   2.628 -0.2538 -1.3776 -0.4798
19479SOL    HW259571   8.258   0.858   2.725  0.2731 -0.3124 -0.6426
19480SOL     OW59572   0.574   5.548   2.595  0.6135 -0.5996  0.4598
19480SOL    HW159573   0.650   5.597   2.627 -0.0232 -0.2127  1.4094
19480SOL    HW259574   0.534   5.512   2.674 -0.2348 -0.7435 -0.0262
19481SOL     OW59575   2.331   7.685   2.100 -0.5204 -0.3999  0.1280
19481SOL    HW159576   2.333   7.675   2.005 -0.7031  1.7976 -0.1535
19481SOL    HW259577   2.258   7.629   2.128 -1.1615 -0.2352 -1.1425
19482SOL     OW59578   7.087   4.623   2.923  0.6153  0.4469  0.0671
19482SOL    HW159579   7.066   4.536   2.892 -0.8477  0.8052 -0.0130
19482SOL    HW259580   7.117   4.610   3.013 -0.7779 -0.0453  0.4889
19483SOL     OW59581   3.930   7.009   8.951  0.1030 -0.1353  0.6494
19483SOL    HW159582   3.993   6.947   8.915  0.9117 -0.4479  2.4988
19483SOL    HW259583   3.943   7.004   9.046 -1.2564  1.3467  0.9521
19484SOL     OW59584   3.730   8.303   2.030 -0.3386  0.1803 -0.5170
19484SOL    HW159585   3.647   8.256   2.040 -0.2134 -0.0301 -0.4614
19484SOL    HW259586   3.769   8.302   2.118  0.2557 -0.7240 -0.7786
19485SOL     OW59587   1.249   8.289   7.167 -0.1692 -0.2474 -0.3333
19485SOL    HW159588   1.215   8.372   7.203 -0.5255  0.1271 -1.4895
19485SOL    HW259589   1.281   8.241   7.244 -0.1011  0.8939  0.3794
19486SOL     OW59590   6.591   6.731   3.981 -0.1677 -0.1856  0.2110
19486SOL    HW159591   6.570   6.741   3.888 -1.1406  2.8294  0.6413
19486SOL    HW259592   6.508   6.743   4.026  0.0100 -3.0836  1.5022
19487SOL     OW59593   2.653   0.114   0.836 -0.4251  0.0965 -0.1238
19487SOL    HW159594   2.607   0.185   0.881  0.0679  0.9089 -0.8395
19487SOL    HW259595   2.610   0.108   0.750 -0.3881 -0.3903 -0.1089
19488SOL     OW59596   0.155   0.344   8.866  0.2212 -0.7541 -0.0717
19488SOL    HW159597   0.174   0.438   8.875 -0.0070 -0.8389  1.8808
19488SOL    HW259598   0.224   0.311   8.809  0.7329  0.4772 -0.2057
19489SOL     OW59599   5.593   4.801   5.745 -0.1061 -0.1337 -0.4349
19489SOL    HW159600   5.531   4.870   5.772  1.9731  2.7030 -2.3191
19489SOL    HW259601   5.578   4.792   5.651  0.9221 -0.9054 -0.5340
19490SOL     OW59602   3.908   4.548   4.215  0.3647  0.2008 -0.1624
19490SOL    HW159603   3.908   4.602   4.136  0.2274  0.6108  0.1132
19490SOL    HW259604   3.916   4.458   4.183 -4.4786 -0.2114 -1.0505
19491SOL     OW59605   4.075   2.332   3.321  0.1913  0.3514 -0.3078
19491SOL    HW159606   4.067   2.353   3.228  2.0025  1.9392 -0.1737
19491SOL    HW259607   4.091   2.237   3.323 -1.9996 -0.0996 -1.4091
19492SOL     OW59608   3.835   8.492   0.524  0.1105  0.2730  0.0361
19492SOL    HW159609   3.891   8.570   0.533  1.6203 -0.7245 -0.4396
19492SOL    HW259610   3.822   8.463   0.614 -1.6548  1.8391  0.3533
19493SOL     OW59611   8.216   2.546   3.960  0.0259  0.2126 -0.1905
19493SOL    HW159612   8.158   2.567   3.887 -0.2543 -0.2552 -0.1086
19493SOL    HW259613   8.201   2.453   3.977  0.8587  0.0645 -0.2196
19494SOL     OW59614   4.629   8.903   9.017  0.1987  0.5087  0.4748
19494SOL    HW159615   4.541   8.936   8.997  0.9695  1.4932 -1.6083
19494SOL    HW259616   4.619   8.808   9.017 -0.5275  0.5168 -1.8647
19495SOL     OW59617   8.938   8.293   8.215  0.8232 -0.4277 -0.4990
19495SOL    HW159618   9.010   8.327   8.161 -0.3603  2.0416 -0.6837
19495SOL    HW259619   8.920   8.363   8.277  0.3395 -2.1191  1.3495
19496SOL     OW59620   2.892   4.308   1.117  0.1475  0.6158  0.2839
19496SOL    HW159621   2.983   4.305   1.147  0.4751 -0.2125 -0.7474
19496SOL    HW259622   2.844   4.346   1.191  1.2623  0.6993  0.9894
19497SOL     OW59623   4.714   8.552   8.634  0.8972  0.2163  0.0770
19497SOL    HW159624   4.694   8.528   8.724 -0.6952 -1.2111 -0.6050
19497SOL    HW259625   4.659   8.628   8.617  0.5708 -0.0225  0.0601
19498SOL     OW59626   0.967   1.356   0.827 -0.1589  0.7461 -0.4455
19498SOL    HW159627   1.030   1.285   0.815 -0.2553  0.4826  0.5451
19498SOL    HW259628   1.020   1.433   0.846 -0.1358  0.2722  1.6407
19499SOL     OW59629   0.876   0.836   0.442  0.6161  0.9210 -0.0060
19499SOL    HW159630   0.889   0.919   0.488 -0.0491  1.0916 -0.1134
19499SOL    HW259631   0.934   0.775   0.486  0.1008  1.1181  0.9755
19500SOL     OW59632   1.740   7.259   7.085  0.1814 -0.1666 -0.0349
19500SOL    HW159633   1.693   7.245   7.003 -0.2935 -0.2018  0.2395
19500SOL    HW259634   1.682   7.315   7.137  1.8425  2.5816 -0.9289
19501SOL     OW59635   5.361   5.035   4.667 -0.2557 -0.0979 -0.0534
19501SOL    HW159636   5.304   5.107   4.637  1.2052  0.7861 -0.8525
19501SOL    HW259637   5.368   4.977   4.591 -2.3956 -1.8166  0.9516
19502SOL     OW59638   8.770   7.941   0.972  0.3419 -0.1951 -0.4541
19502SOL    HW159639   8.706   7.964   1.039 -1.6811  2.1482 -2.9542
19502SOL    HW259640   8.846   7.995   0.992 -0.0274  0.0744  0.2348
19503SOL     OW59641   2.103   2.985   2.438 -0.3424 -0.7317 -0.2107
19503SOL    HW159642   2.110   2.958   2.347 -2.3631 -1.4912 -0.2071
19503SOL    HW259643   2.132   2.910   2.488 -2.0905 -1.4928 -0.2496
19504SOL     OW59644   2.743   7.771   5.794 -0.3271  0.3533 -0.2616
19504SOL    HW159645   2.827   7.747   5.754 -1.1764 -1.3240 -1.1126
19504SOL    HW259646   2.744   7.728   5.879 -0.1376  0.7575 -0.0524
19505SOL     OW59647   5.301   5.264   0.705  0.5105  0.0818  0.0442
19505SOL    HW159648   5.281   5.314   0.784 -0.0635  0.9817 -0.6417
19505SOL    HW259649   5.279   5.324   0.633  2.1413 -0.2814 -0.7923
19506SOL     OW59650   5.550   5.265   1.725 -0.0917  0.3408  0.6156
19506SOL    HW159651   5.588   5.182   1.755 -2.9441 -0.6460  1.8085
19506SOL    HW259652   5.536   5.252   1.632 -2.1092 -1.2957  1.0782
19507SOL     OW59653   9.113   1.372   0.244  0.9804  0.2826 -0.3445
19507SOL    HW159654   9.094   1.280   0.262  2.2006 -0.1323 -1.0801
19507SOL    HW259655   9.192   1.390   0.295 -0.8929  1.8319  2.2714
19508SOL     OW59656   7.521   8.200   8.947 -0.2652  0.2021 -0.2338
19508SOL    HW159657   7.439   8.194   8.897  0.1031 -0.7099 -0.7559
19508SOL    HW259658   7.565   8.118   8.929  1.1020  0.9753 -0.5422
19509SOL     OW59659   3.551   5.103   1.740 -0.0962  0.0340  0.7802
19509SOL    HW159660   3.622   5.159   1.770 -1.2736  2.2533 -0.3466
19509SOL    HW259661   3.545   5.034   1.806  1.3922  1.2511  2.2531
19510SOL     OW59662   2.128   6.808   2.894 -0.3252 -0.2171 -0.7902
19510SOL    HW159663   2.158   6.825   2.983 -2.0168  0.2767 -0.2794
19510SOL    HW259664   2.123   6.894   2.853  1.3037 -0.5108 -1.6903
19511SOL     OW59665   8.400   6.188   3.845  0.2473 -1.0028  0.2239
19511SOL    HW159666   8.313   6.209   3.879  0.5836  0.0832  0.4827
19511SOL    HW259667   8.384   6.152   3.757 -0.3915  1.6159 -0.8449
19512SOL     OW59668   4.418   7.951   6.894 -0.3721 -0.8329 -0.1268
19512SOL    HW159669   4.423   7.860   6.924  2.7090 -0.1557  1.8485
19512SOL    HW259670   4.385   7.999   6.970  1.5723  0.1231  0.1524
19513SOL     OW59671   8.909   3.544   6.051 -0.1780 -0.1349  0.0467
19513SOL    HW159672   8.990   3.502   6.023  0.1911 -0.2211  1.2155
19513SOL    HW259673   8.892   3.610   5.984 -0.1419 -1.3356 -1.1908
19514SOL     OW59674   5.573   7.764   3.920 -0.0751  0.1770  0.2038
19514SOL    HW159675   5.548   7.844   3.966 -0.8658 -1.4593  2.8739
19514SOL    HW259676   5.655   7.786   3.875 -0.5932  2.6100  0.3406
19515SOL     OW59677   7.067   2.532   7.050 -0.2851  0.0807  0.4869
19515SOL    HW159678   7.015   2.555   7.127  1.8312  1.1158  1.6959
19515SOL    HW259679   7.079   2.614   7.004  1.6971  0.2515  1.2005
19516SOL     OW59680   2.746   5.202   2.631 -0.0616 -0.3919 -0.0167
19516SOL    HW159681   2.831   5.196   2.587  0.6404 -1.0931  1.3673
19516SOL    HW259682   2.715   5.291   2.613  2.4848  1.0322  2.1274
19517SOL     OW59683   5.719   2.880   8.586 -0.0170 -0.4030 -0.1970
19517SOL    HW159684   5.733   2.843   8.673  1.2900 -1.4560 -0.8147
19517SOL    HW259685   5.666   2.815   8.540  0.7958 -0.7148 -0.7262
19518SOL     OW59686   6.232   4.338   6.630 -0.5028  0.7266  0.1263
19518SOL    HW159687   6.137   4.330   6.636 -0.3506 -0.7896  1.0580
19518SOL    HW259688   6.247   4.429   6.605 -2.2105  0.8420 -0.6268
19519SOL     OW59689   8.584   4.368   4.660 -0.3099  0.3924  0.1176
19519SOL    HW159690   8.579   4.443   4.601  0.1748  1.0903  0.9455
19519SOL    HW259691   8.638   4.305   4.613 -0.9514  0.4370 -0.7035
19520SOL     OW59692   3.702   8.017   7.524 -0.5827  0.8440  0.5001
19520SOL    HW159693   3.697   8.041   7.616  1.0099  2.2777  0.2770
19520SOL    HW259694   3.663   8.091   7.477 -0.6230  0.5082 -0.0037
19521SOL     OW59695   7.616   3.915   8.802 -0.1535 -0.2931 -0.5384
19521SOL    HW159696   7.710   3.927   8.789 -0.2117  0.0952 -0.6009
19521SOL    HW259697   7.610   3.855   8.876  0.1573 -1.1121 -1.1497
19522SOL     OW59698   8.449   2.464   8.230 -0.3607 -0.2511 -0.0690
19522SOL    HW159699   8.521   2.527   8.227 -0.4647 -0.1013  0.4585
19522SOL    HW259700   8.428   2.448   8.138  0.1710 -0.0994 -0.2225
19523SOL     OW59701   6.942   0.411   0.944  0.4460  0.4314 -0.3477
19523SOL    HW159702   6.852   0.377   0.938  0.7264 -0.1595 -2.0257
19523SOL    HW259703   6.933   0.495   0.987 -1.0274  0.6861 -1.0601
19524SOL     OW59704   3.679   3.121   3.051 -0.3261 -0.0520 -0.2210
19524SOL    HW159705   3.759   3.173   3.048  0.4995 -1.2832  0.1185
19524SOL    HW259706   3.624   3.166   3.115  0.5865  0.1097  0.4702
19525SOL     OW59707   1.801   6.415   6.929 -0.2465  0.2962  0.0259
19525SOL    HW159708   1.714   6.417   6.890  0.9652 -0.9093 -3.0207
19525SOL    HW259709   1.840   6.499   6.906  0.1535 -0.0582 -0.6264
19526SOL     OW59710   3.973   1.257   8.163 -0.1288 -0.2992  0.5345
19526SOL    HW159711   3.970   1.176   8.214  1.1988  0.6376  2.2337
19526SOL    HW259712   4.032   1.238   8.090  0.2646 -0.8423  0.9888
19527SOL     OW59713   3.449   4.443   6.920  0.0424  0.3255 -0.3976
19527SOL    HW159714   3.377   4.484   6.968 -0.9989 -0.5346 -1.1717
19527SOL    HW259715   3.491   4.385   6.985 -0.2369  0.5074 -0.0489
19528SOL     OW59716   9.110   8.209   0.830  0.5600 -0.1925 -0.3220
19528SOL    HW159717   9.101   8.178   0.920  2.0368 -0.9189 -0.3985
19528SOL    HW259718   9.153   8.137   0.784  1.2935  0.7968 -1.2281
19529SOL     OW59719   7.259   0.563   2.606  0.6211  0.0055 -0.2473
19529SOL    HW159720   7.200   0.583   2.678  0.0623  0.0612 -0.7132
19529SOL    HW259721   7.214   0.595   2.528  1.6425  0.8484 -0.5268
19530SOL     OW59722   8.081   4.351   8.577  0.5996 -0.0954 -0.0521
19530SOL    HW159723   8.127   4.434   8.564  1.4713 -0.7386 -1.3168
19530SOL    HW259724   8.071   4.315   8.489  0.4013 -1.4015  0.4832
19531SOL     OW59725   8.407   6.352   8.238  0.1683 -0.5765 -0.1217
19531SOL    HW159726   8.372   6.441   8.238 -0.9561 -1.0015 -0.6840
19531SOL    HW259727   8.474   6.353   8.305 -0.4500  0.4609  0.5059
19532SOL     OW59728   7.065   2.289   0.210  0.9735  0.4845 -0.0670
19532SOL    HW159729   7.099   2.373   0.178  1.1208 -0.0948 -1.5056
19532SOL    HW259730   7.009   2.257   0.139 -1.1199  0.5262  1.4809
19533SOL     OW59731   8.494   4.912   7.646  0.1259 -0.2031 -0.1113
19533SOL    HW159732   8.410   4.886   7.683  0.3819  1.0978  1.5030
19533SOL    HW259733   8.549   4.833   7.652 -0.3160 -0.4469  0.9006
19534SOL     OW59734   6.148   2.506   2.103 -0.3936 -0.0638  0.3820
19534SOL    HW159735   6.086   2.434   2.096 -0.2481 -0.0442 -2.2129
19534SOL    HW259736   6.232   2.464   2.120 -0.6084 -0.3282  0.8170
19535SOL     OW59737   0.043   1.161   2.633 -0.1470 -0.4796 -0.7095
19535SOL    HW159738   0.098   1.145   2.709  2.9657 -0.1850 -2.6949
19535SOL    HW259739   0.057   1.084   2.577 -1.7482 -0.3642 -1.3244
19536SOL     OW59740   3.763   7.286   3.365 -0.4868  0.2240  0.0592
19536SOL    HW159741   3.827   7.278   3.436  0.0976 -2.0596 -0.6196
19536SOL    HW259742   3.801   7.351   3.306  1.3671 -1.1717 -0.3928
19537SOL     OW59743   5.517   4.764   3.467 -0.2422 -0.1646  0.7230
19537SOL    HW159744   5.424   4.740   3.473 -0.0657 -1.0551  0.1307
19537SOL    HW259745   5.520   4.825   3.393 -0.5457  0.9920  1.6255
19538SOL     OW59746   6.494   2.442   5.719  0.0651 -0.1425  0.1537
19538SOL    HW159747   6.444   2.364   5.697  0.4424  0.1281 -1.9788
19538SOL    HW259748   6.586   2.415   5.710  0.2001  0.4864 -0.4983
19539SOL     OW59749   4.890   1.243   6.768  0.3685  0.3533 -0.2451
19539SOL    HW159750   4.852   1.330   6.777  0.7729  0.6879 -1.5500
19539SOL    HW259751   4.817   1.188   6.739  0.3814  0.5310 -0.6225
19540SOL     OW59752   5.264   7.767   0.625 -0.1681  0.2345  0.0270
19540SOL    HW159753   5.283   7.731   0.538 -1.3453  0.3422 -0.2947
19540SOL    HW259754   5.187   7.822   0.611 -0.6506 -0.1210  1.2333
19541SOL     OW59755   7.975   0.622   0.592 -0.3834  0.4107  0.0614
19541SOL    HW159756   7.990   0.686   0.522 -0.0209  0.4964  0.2170
19541SOL    HW259757   8.063   0.594   0.618 -0.4913 -2.6423 -2.2658
19542SOL     OW59758   8.401   8.634   8.301  0.0306  0.1109 -0.1502
19542SOL    HW159759   8.344   8.557   8.306 -0.0210  0.1563 -0.0418
19542SOL    HW259760   8.476   8.611   8.356 -0.1055  0.2394  0.0921
19543SOL     OW59761   5.084   0.939   4.151  0.1239  0.2779  0.2419
19543SOL    HW159762   5.150   1.003   4.180  0.3467 -0.3996  1.3172
19543SOL    HW259763   5.135   0.871   4.107  0.7602 -2.0632  4.1205
19544SOL     OW59764   7.729   0.493   8.974 -0.2045  0.2976 -0.6546
19544SOL    HW159765   7.783   0.560   9.016  1.6781 -0.7166 -1.3104
19544SOL    HW259766   7.756   0.495   8.882  1.2251 -2.4354 -0.4078
19545SOL     OW59767   0.513   7.191   7.310 -0.9454  0.7320 -0.4488
19545SOL    HW159768   0.541   7.281   7.327 -0.7793  0.6970 -0.5316
19545SOL    HW259769   0.461   7.167   7.386  0.2672  0.3776  0.2865
19546SOL     OW59770   4.246   0.858   0.220 -0.2161 -0.7966 -0.2311
19546SOL    HW159771   4.220   0.767   0.235 -1.8037 -0.3380  0.0545
19546SOL    HW259772   4.185   0.909   0.273  1.0372  0.4264  0.0970
19547SOL     OW59773   4.324   8.523   5.273  0.2218 -0.1872 -0.3052
19547SOL    HW159774   4.317   8.551   5.364  0.3904  0.5844 -0.5221
19547SOL    HW259775   4.341   8.603   5.224 -0.0525 -0.5650 -1.0426
19548SOL     OW59776   1.594   2.979   4.216 -0.2608 -0.3210  0.4574
19548SOL    HW159777   1.524   2.996   4.153 -1.3156  2.4336  2.1934
19548SOL    HW259778   1.589   2.885   4.232 -1.2620 -0.7736 -1.9868
19549SOL     OW59779   7.103   6.094   1.664 -0.8733 -0.7984  0.2717
19549SOL    HW159780   7.084   6.070   1.755 -0.7760 -0.2025  0.4542
19549SOL    HW259781   7.181   6.044   1.642 -0.6382 -0.6100  0.6651
19550SOL     OW59782   5.795   3.931   3.721 -0.3053 -0.0986  0.0402
19550SOL    HW159783   5.706   3.922   3.756 -1.5967 -0.2999 -2.9664
19550SOL    HW259784   5.819   4.021   3.739 -1.1801  0.0115  0.7587
19551SOL     OW59785   7.926   2.065   8.055 -0.2412  0.3279  0.1468
19551SOL    HW159786   7.957   2.143   8.009  1.0389 -0.5959 -0.6128
19551SOL    HW259787   7.979   1.993   8.021 -0.4321 -0.6810  1.8147
19552SOL     OW59788   8.955   4.565   6.330  0.1472  0.0456 -0.0016
19552SOL    HW159789   8.881   4.534   6.382  0.2234 -2.3952 -1.1907
19552SOL    HW259790   8.950   4.660   6.335 -2.6896 -0.0398  0.4896
19553SOL     OW59791   3.480   8.263   8.576  0.1144  0.2305 -0.6581
19553SOL    HW159792   3.551   8.238   8.517 -0.9061 -0.5201 -1.6206
19553SOL    HW259793   3.484   8.199   8.647  0.2803  0.0787 -0.8054
19554SOL     OW59794   5.402   6.372   8.535  0.5111 -0.1798  0.1448
19554SOL    HW159795   5.377   6.352   8.445  0.0188 -2.4912  0.7072
19554SOL    HW259796   5.335   6.329   8.589  1.2510  0.4278  1.6180
19555SOL     OW59797   5.531   8.154   5.851 -0.1470 -0.4951  0.3602
19555SOL    HW159798   5.615   8.199   5.861  0.5428 -0.7921 -2.8844
19555SOL    HW259799   5.468   8.224   5.832  0.1321 -0.5161 -0.7306
19556SOL     OW59800   4.939   6.180   5.310  0.8002  0.1540  0.0405
19556SOL    HW159801   4.957   6.221   5.395 -1.8474  1.3095  0.1462
19556SOL    HW259802   4.999   6.224   5.250  0.2063  2.0086  0.7258
19557SOL     OW59803   2.517   6.138   3.010  0.0961 -0.0284  0.1486
19557SOL    HW159804   2.529   6.176   2.924  0.6964 -2.0737 -0.7303
19557SOL    HW259805   2.459   6.063   2.996  0.7349 -0.7990  1.4066
19558SOL     OW59806   5.178   3.945   9.117  0.2508 -0.3267  0.5435
19558SOL    HW159807   5.110   3.893   9.073  0.9552 -1.6158  0.9288
19558SOL    HW259808   5.232   3.979   9.046 -0.2870 -0.0027  0.2820
19559SOL     OW59809   6.921   4.570   8.556 -0.0711  0.1338  0.4315
19559SOL    HW159810   6.892   4.535   8.472  0.1765  0.5061  0.1881
19559SOL    HW259811   6.936   4.493   8.610 -1.2938 -0.0747  0.4934
19560SOL     OW59812   7.380   1.989   7.643  0.0215  0.0319 -0.1343
19560SOL    HW159813   7.380   1.894   7.647 -1.7763  0.0023 -0.1419
19560SOL    HW259814   7.309   2.016   7.701 -0.4355  1.2851 -1.2264
19561SOL     OW59815   3.457   7.213   0.618 -0.1860 -0.5748  0.5341
19561SOL    HW159816   3.505   7.133   0.638  2.3419  0.3718 -1.2109
19561SOL    HW259817   3.515   7.283   0.649 -0.7663  0.6325 -0.9752
19562SOL     OW59818   2.765   6.891   0.915  0.3035 -0.1124  0.1746
19562SOL    HW159819   2.814   6.819   0.955  0.3539 -0.2925 -0.2152
19562SOL    HW259820   2.777   6.880   0.821  0.5902  0.6065  0.1244
19563SOL     OW59821   4.964   7.994   3.772 -0.0094  0.5969  0.2169
19563SOL    HW159822   4.921   7.997   3.687 -1.7927  0.8996  1.0637
19563SOL    HW259823   5.021   7.917   3.769 -1.1123 -0.2042 -0.7612
19564SOL     OW59824   5.973   0.660   0.989 -0.4001 -0.4634 -0.3842
19564SOL    HW159825   5.936   0.702   1.067  0.1203  0.4408 -0.6050
19564SOL    HW259826   6.015   0.581   1.022  2.9493  1.6244  0.9170
19565SOL     OW59827   0.235   4.680   8.465  0.0480  0.1787 -0.1692
19565SOL    HW159828   0.282   4.667   8.547  0.2424  0.7452 -0.1836
19565SOL    HW259829   0.168   4.612   8.464  0.7733 -0.5463 -0.0814
19566SOL     OW59830   3.555   8.238   4.571 -0.3898 -0.6254  0.7533
19566SOL    HW159831   3.648   8.213   4.572  0.4843  1.8985 -1.4937
19566SOL    HW259832   3.508   8.156   4.564  1.8420 -1.9070 -0.5135
19567SOL     OW59833   7.633   5.997   0.539  0.1817 -0.6303 -0.3408
19567SOL    HW159834   7.704   5.937   0.516 -0.7664 -1.6101 -0.8340
19567SOL    HW259835   7.613   5.976   0.630 -0.3729 -1.3335 -0.6115
19568SOL     OW59836   3.451   8.032   2.684 -0.6284 -0.0196 -0.3894
19568SOL    HW159837   3.487   7.962   2.738 -1.7353 -0.3817 -0.0935
19568SOL    HW259838   3.438   8.105   2.745  0.1011  0.3000 -0.6069
19569SOL     OW59839   2.584   9.055   8.191 -0.1205  0.2354  0.5214
19569SOL    HW159840   2.632   9.135   8.215  1.4466 -0.8156  1.1028
19569SOL    HW259841   2.521   9.043   8.261  1.7562 -0.6611  2.1717
19570SOL     OW59842   1.713   7.477   0.150 -0.0229  0.1587  0.4078
19570SOL    HW159843   1.782   7.528   0.109  0.4309 -0.0172  0.9400
19570SOL    HW259844   1.697   7.520   0.233 -0.0968 -0.1771  0.5704
19571SOL     OW59845   7.547   4.265   3.122 -0.2187 -0.0085  0.0184
19571SOL    HW159846   7.612   4.319   3.077  0.1179  0.5977  1.1824
19571SOL    HW259847   7.534   4.189   3.065  0.6819  0.4113 -0.7622
19572SOL     OW59848   8.212   4.078   2.086  0.5773  0.5997  0.2083
19572SOL    HW159849   8.132   4.032   2.062 -0.9942  3.0811  0.3288
19572SOL    HW259850   8.250   4.106   2.003  0.3123  0.9544  0.1999
19573SOL     OW59851   3.360   8.883   2.030 -0.1719  0.1387 -0.1309
19573SOL    HW159852   3.431   8.919   1.978 -0.0503 -0.8764 -0.6795
19573SOL    HW259853   3.388   8.795   2.053 -0.6032  0.2555  0.9263
19574SOL     OW59854   2.835   4.692   0.289  0.0132 -0.3547  0.1370
19574SOL    HW159855   2.833   4.608   0.243  0.0091  0.0859 -0.6784
19574SOL    HW259856   2.901   4.743   0.241  0.0149  0.1075  0.6319
19575SOL     OW59857   1.315   6.096   6.160  0.8623 -0.0471  0.0773
19575SOL    HW159858   1.392   6.106   6.104  2.6379 -1.1167  2.1649
19575SOL    HW259859   1.290   6.185   6.183  0.0349  0.4341 -2.3419
19576SOL     OW59860   7.914   6.703   4.995  0.5378 -0.6606  0.7786
19576SOL    HW159861   7.953   6.759   4.928  0.2032 -1.7765 -0.3803
19576SOL    HW259862   7.821   6.723   4.991  0.1628 -2.5037 -0.8710
19577SOL     OW59863   2.376   4.664   1.124 -0.1415 -0.2738  0.1807
19577SOL    HW159864   2.307   4.680   1.058  1.0226  2.1212 -0.5739
19577SOL    HW259865   2.334   4.683   1.207 -0.4281  1.1737 -0.2740
19578SOL     OW59866   3.463   8.868   8.979  0.1869  0.3711  0.2888
19578SOL    HW159867   3.525   8.862   9.052 -0.3857  2.2321  0.9692
19578SOL    HW259868   3.502   8.813   8.911  1.5537 -0.1240  1.4061
19579SOL     OW59869   7.404   4.522   1.868 -0.2934  0.2278 -0.3258
19579SOL    HW159870   7.466   4.595   1.880  0.9121 -0.6921 -0.7293
19579SOL    HW259871   7.333   4.559   1.817  0.5606  1.0017 -0.9915
19580SOL     OW59872   5.995   0.744   6.950 -0.4043  0.2089 -0.1792
19580SOL    HW159873   5.945   0.674   6.908  1.0184  0.1079 -1.8558
19580SOL    HW259874   6.061   0.768   6.885  0.2314  1.9410  1.0257
19581SOL     OW59875   7.447   1.254   7.283  0.5225  0.4141 -0.3904
19581SOL    HW159876   7.410   1.255   7.371  0.8782  0.1553 -0.2318
19581SOL    HW259877   7.481   1.164   7.272  0.0705  0.3072 -0.9643
19582SOL     OW59878   3.023   1.256   6.691  0.2013 -0.3520 -0.4078
19582SOL    HW159879   2.973   1.336   6.707 -1.2776 -1.2865 -0.2181
19582SOL    HW259880   3.097   1.285   6.637 -0.9892  0.9662 -1.4228
19583SOL     OW59881   5.861   4.607   5.553  0.2499 -0.2827  0.5222
19583SOL    HW159882   5.771   4.576   5.543 -0.0583  0.4293  1.0330
19583SOL    HW259883   5.873   4.617   5.647  0.2642  1.2920  0.3871
19584SOL     OW59884   7.442   1.277   4.165 -0.1048 -0.0844 -0.5158
19584SOL    HW159885   7.409   1.284   4.255  1.1561  0.6171 -0.0842
19584SOL    HW259886   7.368   1.305   4.110 -0.3759  1.0642  0.3909
19585SOL     OW59887   4.728   3.819   8.041  0.7249  0.1162  0.0770
19585SOL    HW159888   4.691   3.788   7.959  0.8908  1.7227 -0.6280
19585SOL    HW259889   4.652   3.839   8.096  0.5172  1.9590 -0.8206
19586SOL     OW59890   7.015   3.089   3.562  0.1816 -0.5456  0.5459
19586SOL    HW159891   6.995   3.078   3.655  0.0872  1.1284  0.7455
19586SOL    HW259892   6.931   3.112   3.522 -0.0739 -2.6192 -0.2307
19587SOL     OW59893   6.520   0.540   3.530 -0.4291 -0.2159  0.6722
19587SOL    HW159894   6.575   0.485   3.586 -0.4086 -1.0064 -0.1139
19587SOL    HW259895   6.432   0.506   3.542 -0.3267 -0.8387 -0.3020
19588SOL     OW59896   2.913   8.034   1.497 -0.7764  0.3170 -0.3526
19588SOL    HW159897   3.001   8.058   1.525 -0.3374  0.0198 -1.4157
19588SOL    HW259898   2.855   8.097   1.541 -0.0967  0.1281  0.8345
19589SOL     OW59899   8.564   6.904   0.332  0.2407 -0.0210 -0.4543
19589SOL    HW159900   8.573   6.825   0.278  0.1620 -0.6634  0.4465
19589SOL    HW259901   8.637   6.960   0.305  0.0626 -0.2184 -1.3916
19590SOL     OW59902   2.880   4.508   5.605  0.0208  0.2979 -0.5726
19590SOL    HW159903   2.914   4.579   5.550  1.7044  0.8408  1.0391
19590SOL    HW259904   2.898   4.537   5.695 -0.9037 -1.3744  0.1944
19591SOL     OW59905   0.253   2.297   4.097  0.3149 -0.2795 -0.0672
19591SOL    HW159906   0.175   2.337   4.135  1.3381  1.2912  0.4726
19591SOL    HW259907   0.259   2.336   4.010 -0.7736 -2.1811 -1.0498
19592SOL     OW59908   6.384   3.768   3.724  0.2278 -0.4472 -0.5487
19592SOL    HW159909   6.356   3.795   3.636  1.9627  1.1765 -0.6690
19592SOL    HW259910   6.381   3.849   3.775  0.4053 -1.1300  0.5749
19593SOL     OW59911   4.142   6.742   2.558  0.4289 -0.1351 -0.4130
19593SOL    HW159912   4.200   6.817   2.571 -1.1964  1.1133 -0.0654
19593SOL    HW259913   4.083   6.744   2.634 -0.7333 -0.7100 -1.2703
19594SOL     OW59914   4.282   4.701   1.610  0.1031 -0.1037 -0.1831
19594SOL    HW159915   4.288   4.618   1.564 -0.7803  0.1583 -0.7998
19594SOL    HW259916   4.317   4.683   1.697  0.0952 -1.0649 -0.3697
19595SOL     OW59917   3.068   3.845   9.106 -0.7259  0.4143  0.2718
19595SOL    HW159918   3.083   3.935   9.134  0.3673  0.2671  0.2261
19595SOL    HW259919   3.088   3.845   9.013  0.2862 -0.0749  0.4756
19596SOL     OW59920   3.240   8.216   4.414 -0.0398  0.6065  0.3125
19596SOL    HW159921   3.260   8.179   4.329  1.1759  1.1772  0.3222
19596SOL    HW259922   3.223   8.309   4.396  1.1245  0.9242  0.7843
19597SOL     OW59923   6.759   7.519   0.148  0.2743 -0.1173 -0.1832
19597SOL    HW159924   6.759   7.466   0.227  3.1888 -1.1641 -0.7722
19597SOL    HW259925   6.744   7.456   0.077  3.0709 -0.1920 -0.8285
19598SOL     OW59926   2.909   2.531   8.378 -0.3532 -0.0000 -0.1314
19598SOL    HW159927   2.855   2.576   8.315 -0.0216  0.3935 -0.1366
19598SOL    HW259928   2.874   2.442   8.381 -0.1747 -0.1121 -1.0983
19599SOL     OW59929   2.940   3.407   2.455  0.2486 -0.0285  0.2786
19599SOL    HW159930   3.023   3.358   2.452 -0.6421 -1.5689 -0.5227
19599SOL    HW259931   2.965   3.495   2.481  2.1869 -0.3675 -0.2800
19600SOL     OW59932   3.625   4.171   9.100  0.4320 -0.5076 -0.4762
19600SOL    HW159933   3.675   4.092   9.120  1.9036  0.3483 -0.6652
19600SOL    HW259934   3.543   4.139   9.062  0.0810 -1.9971  1.3702
19601SOL     OW59935   6.228   1.069   0.167  0.1189 -0.2095 -0.2909
19601SOL    HW159936   6.244   1.019   0.247 -1.2527  0.1837  0.2576
19601SOL    HW259937   6.302   1.048   0.110 -0.4537 -2.9777 -0.1416
19602SOL     OW59938   9.081   3.249   3.562 -1.1274  0.4108  0.3791
19602SOL    HW159939   8.989   3.241   3.587 -1.4263 -2.1454 -1.2094
19602SOL    HW259940   9.117   3.161   3.573  0.8935  1.1290  0.0002
19603SOL     OW59941   6.532   8.588   5.422  0.0915  0.4108 -0.2647
19603SOL    HW159942   6.543   8.494   5.406 -0.2139  0.6448 -1.9765
19603SOL    HW259943   6.577   8.630   5.349 -0.8290  1.5818 -0.1852
19604SOL     OW59944   2.446   7.994   4.725  0.1793 -0.1675 -0.5323
19604SOL    HW159945   2.504   8.048   4.779 -1.0097  1.7733 -1.0715
19604SOL    HW259946   2.502   7.924   4.692  1.2291 -0.7264  2.1516
19605SOL     OW59947   6.098   0.348   7.242  1.0331 -0.4479 -0.2767
19605SOL    HW159948   6.095   0.423   7.183  1.5895  1.0806  1.5396
19605SOL    HW259949   6.184   0.355   7.285 -0.2623 -0.0868  2.4178
19606SOL     OW59950   0.964   0.730   7.300 -0.0869 -0.1550  0.4201
19606SOL    HW159951   1.015   0.668   7.249  0.3346  1.1535 -0.8088
19606SOL    HW259952   1.026   0.799   7.324 -0.2864 -0.6913  2.7047
19607SOL     OW59953   4.607   7.229   4.339 -0.1141 -0.6248 -1.0188
19607SOL    HW159954   4.538   7.218   4.273  1.1715 -0.8667 -2.3817
19607SOL    HW259955   4.616   7.323   4.350  0.2466 -0.5575 -1.8462
19608SOL     OW59956   7.525   0.212   5.168  0.3809  0.5105 -0.1819
19608SOL    HW159957   7.602   0.245   5.216 -0.3045  2.0005 -0.0369
19608SOL    HW259958   7.470   0.290   5.156  0.2647  0.1024 -2.9126
19609SOL     OW59959   0.318   6.028   3.042 -0.5455 -0.1962  0.3095
19609SOL    HW159960   0.244   6.079   3.010  0.2279  0.6621 -0.1495
19609SOL    HW259961   0.390   6.049   2.983  0.2983 -0.3576  1.2477
19610SOL     OW59962   1.058   0.742   1.227  0.0575 -0.3988 -0.8423
19610SOL    HW159963   1.139   0.695   1.211 -0.8211 -1.6578 -1.7501
19610SOL    HW259964   1.037   0.722   1.319  2.0324  2.0236  0.2575
19611SOL     OW59965   3.936   7.240   6.204  0.6226  0.1451 -0.3521
19611SOL    HW159966   3.866   7.200   6.256  0.5311  0.1225 -0.4930
19611SOL    HW259967   4.017   7.215   6.249  0.5038  0.7640  0.2176
19612SOL     OW59968   7.088   1.092   7.620 -0.6458  0.1448 -0.5857
19612SOL    HW159969   7.020   1.138   7.671  0.1669  1.2369 -0.4549
19612SOL    HW259970   7.059   1.101   7.529 -0.0249  1.8104 -0.6613
19613SOL     OW59971   0.333   8.126   5.539 -0.7226 -0.0792  0.0635
19613SOL    HW159972   0.242   8.153   5.550 -1.0077 -0.4627 -1.2122
19613SOL    HW259973   0.383   8.192   5.588 -1.7583 -1.1673  2.8252
19614SOL     OW59974   4.415   0.000   3.381 -0.7004  0.0484  0.1536
19614SOL    HW159975   4.496  -0.051   3.380 -1.2870 -1.0291  1.9257
19614SOL    HW259976   4.442   0.086   3.415 -0.2551 -0.2129  0.4803
19615SOL     OW59977   4.451   0.404   8.229  0.4143  0.0375  0.4032
19615SOL    HW159978   4.514   0.443   8.168  0.4389  1.6248  1.3830
19615SOL    HW259979   4.459   0.456   8.309 -2.5806  0.7760  0.3626
19616SOL     OW59980   0.396   5.861   2.582 -0.0083 -0.1118 -0.6305
19616SOL    HW159981   0.355   5.803   2.647  0.6916  1.6155  1.4878
19616SOL    HW259982   0.475   5.815   2.554 -0.9395 -1.4109 -1.2028
19617SOL     OW59983   1.953   1.883   3.097 -0.3240  0.6764 -0.4212
19617SOL    HW159984   2.012   1.953   3.068  0.9464  0.6201  1.8125
19617SOL    HW259985   1.867   1.925   3.102  0.1789  1.7311 -0.3692
19618SOL     OW59986   6.189   1.849   0.857  0.2613  0.3325 -0.2690
19618SOL    HW159987   6.272   1.811   0.885 -0.4027 -0.6383  0.4680
19618SOL    HW259988   6.179   1.928   0.909 -0.5829 -1.0324  1.7832
19619SOL     OW59989   0.065   2.091   4.981  0.1243 -0.8792  0.1489
19619SOL    HW159990  -0.030   2.085   4.990  0.0335  0.0736 -0.1341
19619SOL    HW259991   0.085   2.183   4.995  0.9642 -1.0042 -0.1900
19620SOL     OW59992   2.201   4.984   3.877 -0.2391  0.1750 -0.4269
19620SOL    HW159993   2.262   4.917   3.905  0.9330  0.9362 -1.0713
19620SOL    HW259994   2.133   4.936   3.829  1.5157 -0.4244 -2.4498
19621SOL     OW59995   8.856   3.560   3.744  0.1111  0.2466  0.7797
19621SOL    HW159996   8.948   3.586   3.754  0.2371 -0.2800  1.0479
19621SOL    HW259997   8.809   3.619   3.803  0.1081  1.4335 -0.3883
19622SOL     OW59998   0.053   0.014   0.367 -0.2491  0.7101 -0.1008
19622SOL    HW159999   0.133  -0.023   0.329 -0.1780  1.8094 -1.0946
19622SOL    HW260000   0.005  -0.062   0.401  1.2262  0.0400  0.5645
19623SOL     OW60001   6.312   0.329   3.941  0.0923  0.0317  0.3708
19623SOL    HW160002   6.249   0.281   3.887 -0.2806 -0.6399  1.3738
19623SOL    HW260003   6.259   0.368   4.011  0.6360  0.3941  0.5838
19624SOL     OW60004   4.284   6.468   1.522  0.5277  0.0391 -0.1826
19624SOL    HW160005   4.365   6.429   1.556  0.4373  0.0359  0.0260
19624SOL    HW260006   4.217   6.443   1.585  0.8013  2.2299  1.0609
19625SOL     OW60007   8.357   4.213   7.783  0.0893 -0.4918  0.2857
19625SOL    HW160008   8.373   4.306   7.797  0.9261 -0.3746 -1.1673
19625SOL    HW260009   8.348   4.176   7.870  0.7007  0.7948  0.9235
19626SOL     OW60010   6.837   2.056   0.883 -0.2930  0.8053 -0.1763
19626SOL    HW160011   6.817   2.141   0.844 -2.0660  0.1587 -0.7323
19626SOL    HW260012   6.842   1.996   0.809 -1.9341 -0.1013  0.4097
19627SOL     OW60013   4.640   0.390   9.112  0.3677 -0.1127  0.5862
19627SOL    HW160014   4.613   0.322   9.050 -0.2545  0.4522  0.2248
19627SOL    HW260015   4.592   0.468   9.085 -0.3927  0.0026  2.1406
19628SOL     OW60016   5.952   7.218   3.889 -0.1081  0.7673  0.0577
19628SOL    HW160017   5.882   7.192   3.949  0.1213  0.0142  0.0124
19628SOL    HW260018   5.972   7.138   3.839  0.5336  1.0660 -0.1811
19629SOL     OW60019   4.299   5.206   5.605  0.1533 -0.4080  0.2787
19629SOL    HW160020   4.329   5.229   5.517 -0.9919  3.0456  0.6522
19629SOL    HW260021   4.370   5.152   5.641  2.9202  1.9582 -1.1770
19630SOL     OW60022   2.712   0.740   6.786 -0.5778  0.0066 -0.4331
19630SOL    HW160023   2.619   0.738   6.763 -0.8540 -2.8310  0.4743
19630SOL    HW260024   2.713   0.723   6.880  0.8484 -1.5069 -0.6686
19631SOL     OW60025   3.658   5.308   0.306 -0.5645 -0.5776 -0.2959
19631SOL    HW160026   3.620   5.348   0.384 -1.3346 -0.6374 -0.6244
19631SOL    HW260027   3.641   5.371   0.236  1.4150  0.1465 -0.1726
19632SOL     OW60028   3.001   5.797   6.736  0.5997  0.0355 -0.2909
19632SOL    HW160029   3.064   5.790   6.808  2.5477 -1.4751 -2.0265
19632SOL    HW260030   2.944   5.720   6.746  0.4599  0.1783  0.0073
19633SOL     OW60031   8.053   8.172   6.760 -0.0375 -0.0314 -0.0924
19633SOL    HW160032   8.035   8.079   6.750 -3.2396  0.3025  1.2100
19633SOL    HW260033   8.130   8.176   6.817  1.3299 -1.7975 -1.7045
19634SOL     OW60034   4.746   1.113   7.413  0.4455  1.2038 -0.0077
19634SOL    HW160035   4.667   1.111   7.466  1.3409 -0.0965  1.3605
19634SOL    HW260036   4.806   1.170   7.461  2.3106 -2.2093  2.1566
19635SOL     OW60037   4.291   6.182   0.441 -0.2523  0.1427  0.0484
19635SOL    HW160038   4.338   6.185   0.525 -1.1470 -0.8039  0.6071
19635SOL    HW260039   4.315   6.098   0.402 -2.5086 -1.0651  1.0230
19636SOL     OW60040   1.810   5.583   1.219 -0.5535  0.2082 -0.0956
19636SOL    HW160041   1.881   5.635   1.181 -0.5884  0.9223  0.7902
19636SOL    HW260042   1.744   5.647   1.245 -0.5515 -0.2566  1.1037
19637SOL     OW60043   5.463   0.881   0.508  0.5500 -0.1538  0.1142
19637SOL    HW160044   5.483   0.922   0.424 -0.5920  0.3554  0.0786
19637SOL    HW260045   5.396   0.815   0.488 -0.7794  0.9427  0.8178
19638SOL     OW60046   4.267   2.565   7.179  0.0122 -0.4494  0.3088
19638SOL    HW160047   4.260   2.606   7.265  1.5211 -2.3413  1.3986
19638SOL    HW260048   4.265   2.471   7.197  2.0273 -0.9249 -1.5208
19639SOL     OW60049   4.770   7.484   6.638  0.2350  0.1913 -0.0213
19639SOL    HW160050   4.823   7.415   6.678 -0.4796  0.5481  1.6321
19639SOL    HW260051   4.746   7.449   6.552  4.1460  0.5487 -1.4291
19640SOL     OW60052   2.531   5.942   7.782 -0.0352 -0.4095  1.1775
19640SOL    HW160053   2.568   6.002   7.846 -1.3352 -0.0315  1.6015
19640SOL    HW260054   2.451   5.984   7.752  1.2455  0.1166 -1.8217
19641SOL     OW60055   8.481   3.389   6.916  0.2578 -0.0693  0.1147
19641SOL    HW160056   8.409   3.434   6.960  0.9027  0.7086  0.3887
19641SOL    HW260057   8.553   3.451   6.919 -0.1270  0.7916 -3.6187
19642SOL     OW60058   3.864   2.114   5.610  0.5002 -0.0018  0.0995
19642SOL    HW160059   3.790   2.069   5.649  0.5852  0.3419  0.6788
19642SOL    HW260060   3.933   2.109   5.677  1.5235 -1.6349 -0.9935
19643SOL     OW60061   2.334   8.488   3.498  0.4166  0.0413  0.5503
19643SOL    HW160062   2.346   8.409   3.551  0.6189 -0.2063  0.1431
19643SOL    HW260063   2.309   8.455   3.412 -0.6471  0.4709  0.6812
19644SOL     OW60064   4.845   5.376   2.782 -0.1822 -0.3239  0.1166
19644SOL    HW160065   4.938   5.391   2.800 -0.2980  0.8559 -0.1858
19644SOL    HW260066   4.840   5.364   2.688 -0.2771 -0.9356  0.1946
19645SOL     OW60067   3.635   5.271   2.206 -0.1354  0.6881  0.3650
19645SOL    HW160068   3.541   5.259   2.203 -0.0130 -0.4382  0.6538
19645SOL    HW260069   3.670   5.185   2.231  0.9845  0.9939 -0.0768
19646SOL     OW60070   7.560   6.490   2.801 -0.1054 -0.1091 -0.0081
19646SOL    HW160071   7.652   6.483   2.776 -0.4747 -0.9138 -1.2300
19646SOL    HW260072   7.550   6.427   2.873  0.4721  0.6302  0.7469
19647SOL     OW60073   8.933   9.103   8.443 -0.3313 -0.3062 -0.4586
19647SOL    HW160074   8.999   9.132   8.380  0.2301 -0.5012  0.0337
19647SOL    HW260075   8.859   9.075   8.389  0.0805 -0.3197 -1.0240
19648SOL     OW60076   6.724   0.024   5.491 -0.4003 -0.2432 -0.3806
19648SOL    HW160077   6.791  -0.008   5.551 -0.3311 -0.7215 -0.7091
19648SOL    HW260078   6.774   0.066   5.420 -0.4586 -0.2462 -0.4231
19649SOL     OW60079   5.896   9.097   8.755 -0.0262  0.3300  0.2385
19649SOL    HW160080   5.882   9.162   8.823  0.2026 -0.4514  1.0417
19649SOL    HW260081   5.938   9.024   8.799 -2.4603 -1.3967 -0.1150
19650SOL     OW60082   2.835   8.161   4.909  0.2402 -0.2416  0.0427
19650SOL    HW160083   2.854   8.207   4.991 -0.7357  1.1315 -0.4756
19650SOL    HW260084   2.909   8.100   4.899  0.6305 -0.0957  1.6729
19651SOL     OW60085   5.065   8.779   1.670  0.5197 -0.3052  0.9216
19651SOL    HW160086   5.111   8.779   1.753  1.7934 -1.2035  0.2507
19651SOL    HW260087   5.026   8.866   1.663  1.5471  0.2386  1.8224
19652SOL     OW60088   5.013   2.301   2.376  0.0433 -0.3106 -0.4589
19652SOL    HW160089   4.938   2.341   2.421  0.8506  0.2233  0.4462
19652SOL    HW260090   5.031   2.221   2.425 -0.2092 -0.6736 -0.9508
19653SOL     OW60091   5.937   7.687   1.849  0.1455  0.4413 -0.0654
19653SOL    HW160092   5.966   7.778   1.860  0.7057  0.3921 -1.0854
19653SOL    HW260093   5.992   7.638   1.910  2.1576  0.3764 -1.8182
19654SOL     OW60094   6.082   3.779   1.602 -0.6390  0.0501 -0.4391
19654SOL    HW160095   6.094   3.866   1.641  0.6230 -0.6649  0.8551
19654SOL    HW260096   5.999   3.748   1.639  0.9721 -1.0003  2.6090
19655SOL     OW60097   2.510   2.718   1.933 -0.0006 -0.4980  0.5324
19655SOL    HW160098   2.561   2.791   1.968 -0.1974 -0.3932  0.5971
19655SOL    HW260099   2.570   2.643   1.936  0.6831 -0.0462 -0.8237
19656SOL     OW60100   7.438   4.396   0.562  0.2557  0.5440 -0.0370
19656SOL    HW160101   7.472   4.347   0.637 -0.2469  1.5803  0.9026
19656SOL    HW260102   7.493   4.473   0.556 -1.0486  1.5855  0.6934
19657SOL     OW60103   7.148   5.389   1.562 -0.2101 -0.0709 -0.3141
19657SOL    HW160104   7.114   5.347   1.641  1.4215 -1.3185 -0.2111
19657SOL    HW260105   7.239   5.359   1.557  0.1437  1.1628 -1.8739
19658SOL     OW60106   0.791   4.661   6.792 -0.2432  0.6592  0.7049
19658SOL    HW160107   0.801   4.568   6.811  0.3754  0.9101  1.6906
19658SOL    HW260108   0.824   4.671   6.703 -0.3351 -0.0600  0.5822
19659SOL     OW60109   6.020   0.706   5.397  0.8753 -0.7766  0.3794
19659SOL    HW160110   6.024   0.768   5.324  1.2243 -1.4849 -0.2220
19659SOL    HW260111   6.039   0.758   5.474  0.0409  0.0751  0.0211
19660SOL     OW60112   2.390   5.451   2.436 -0.0944 -0.0656  0.5247
19660SOL    HW160113   2.373   5.363   2.401 -2.0074 -0.2398  1.7007
19660SOL    HW260114   2.425   5.501   2.363 -1.0298 -1.2282 -0.7600
19661SOL     OW60115   0.934   8.760   6.969  0.0933 -0.2871  0.2613
19661SOL    HW160116   0.926   8.775   6.875  0.8446 -0.3404  0.1852
19661SOL    HW260117   0.997   8.689   6.977  0.7424  0.3330  0.8282
19662SOL     OW60118   3.425   7.892   1.393  0.5823  0.0681  0.0379
19662SOL    HW160119   3.386   7.926   1.313 -0.4324  0.2435  0.5849
19662SOL    HW260120   3.476   7.966   1.427 -1.7458  1.2347  1.3059
19663SOL     OW60121   7.724   6.996   0.228  0.6431  0.3222 -0.3573
19663SOL    HW160122   7.794   6.942   0.267  0.7649 -0.0283 -1.0380
19663SOL    HW260123   7.755   7.086   0.237  1.0331  0.1901 -0.3561
19664SOL     OW60124   6.069   6.229   6.492  0.5438  0.4531  0.2669
19664SOL    HW160125   6.075   6.183   6.408  2.6794 -1.1896  1.2219
19664SOL    HW260126   6.103   6.317   6.473  1.1857  0.0445 -0.5672
19665SOL     OW60127   3.182   1.365   5.436  0.5030  0.0073 -0.2278
19665SOL    HW160128   3.199   1.404   5.350 -2.1862  1.9930 -0.0131
19665SOL    HW260129   3.219   1.428   5.498  1.0994 -0.6644  0.1131
19666SOL     OW60130   5.264   7.386   0.512  0.3928 -0.1665 -0.2158
19666SOL    HW160131   5.230   7.302   0.543 -0.6597 -0.6079 -2.3543
19666SOL    HW260132   5.326   7.363   0.444 -0.5343  0.7644 -1.4257
19667SOL     OW60133   0.973   8.368   7.324 -0.1869  0.2342 -0.4652
19667SOL    HW160134   0.974   8.322   7.240  2.1874 -0.4484 -0.1561
19667SOL    HW260135   1.042   8.434   7.315 -0.2837  0.5145  0.7412
19668SOL     OW60136   6.346   6.639   5.281  0.4810  0.7668  0.8408
19668SOL    HW160137   6.260   6.648   5.239  0.9960 -0.9628 -0.7112
19668SOL    HW260138   6.359   6.722   5.326 -0.5887  2.3969 -1.6152
19669SOL     OW60139   2.033   1.008   2.496  0.0724 -0.1103  0.7441
19669SOL    HW160140   2.001   0.919   2.480 -0.0772 -0.5505  3.0977
19669SOL    HW260141   2.062   1.039   2.411  0.1126 -2.4142 -0.1448
19670SOL     OW60142   8.623   6.529   0.657 -0.1661 -0.2199  0.0477
19670SOL    HW160143   8.679   6.585   0.603 -0.6483 -0.6271 -0.9055
19670SOL    HW260144   8.540   6.577   0.663  0.2422  0.3757  1.4416
19671SOL     OW60145   5.607   1.243   4.187  0.0338  0.6441  0.0962
19671SOL    HW160146   5.598   1.154   4.154  0.2167  1.0771 -1.1995
19671SOL    HW260147   5.612   1.234   4.282 -0.8069 -0.6494  0.0366
19672SOL     OW60148   7.538   0.958   8.097 -0.3644 -0.0621 -0.6898
19672SOL    HW160149   7.486   0.901   8.153 -2.7701  2.2538 -0.3913
19672SOL    HW260150   7.622   0.965   8.142 -1.2914 -0.4470  1.1903
19673SOL     OW60151   5.027   1.735   9.083  0.0192  0.1833 -0.2487
19673SOL    HW160152   4.998   1.768   9.168  0.0626  1.0986 -0.5862
19673SOL    HW260153   5.014   1.808   9.023  0.7798 -0.1784 -0.8669
19674SOL     OW60154   2.694   7.473   3.668 -0.2885  0.2520  0.9069
19674SOL    HW160155   2.630   7.422   3.619  0.3007 -0.7797  1.1897
19674SOL    HW260156   2.777   7.460   3.622 -0.0083  0.4467  1.3373
19675SOL     OW60157   3.494   8.130   8.845  0.4292 -0.3743 -0.2625
19675SOL    HW160158   3.539   8.113   8.928  3.0790  0.3193 -1.4355
19675SOL    HW260159   3.451   8.214   8.858  0.7748 -0.3001  0.4392
19676SOL     OW60160   1.118   0.331   5.936 -0.3781  0.4095  0.0694
19676SOL    HW160161   1.082   0.251   5.975 -0.5440  0.6502  0.4158
19676SOL    HW260162   1.192   0.354   5.993 -0.7225  0.8528  0.3392
19677SOL     OW60163   8.819   3.451   2.355 -0.8892  0.0132  0.2989
19677SOL    HW160164   8.802   3.506   2.279 -2.8532 -0.4471  0.3547
19677SOL    HW260165   8.807   3.509   2.430  1.2235  0.5131  0.3129
19678SOL     OW60166   3.710   7.405   0.135 -0.1307 -0.0563 -0.2783
19678SOL    HW160167   3.789   7.422   0.083  0.4729  0.6153  0.8254
19678SOL    HW260168   3.679   7.492   0.160 -1.3566 -0.3118 -0.8791
19679SOL     OW60169   5.093   8.995   6.792  0.0443 -0.6125 -0.0031
19679SOL    HW160170   5.028   8.955   6.734 -0.9077  0.5366  0.2343
19679SOL    HW260171   5.063   9.085   6.803  1.0241 -0.3982  1.0932
19680SOL     OW60172   0.156   4.981   8.348 -0.1625 -0.6835  0.1475
19680SOL    HW160173   0.104   4.900   8.353 -0.0079 -0.7561  0.5821
19680SOL    HW260174   0.092   5.049   8.326 -0.1675 -1.0496 -1.0244
19681SOL     OW60175   8.251   4.854   3.034 -0.3697  0.1686  0.6780
19681SOL    HW160176   8.198   4.931   3.012 -0.7142  0.0939  1.2284
19681SOL    HW260177   8.332   4.890   3.070 -0.0468  0.2839 -0.1549
19682SOL     OW60178   4.146   7.124   4.725 -0.0378  0.3393  0.4855
19682SOL    HW160179   4.189   7.164   4.650 -0.0673  1.1441  0.8867
19682SOL    HW260180   4.086   7.059   4.688  1.6468 -0.9583 -0.0856
19683SOL     OW60181   3.999   3.072   0.775 -0.9979  0.1994 -0.9153
19683SOL    HW160182   3.918   3.095   0.731 -0.9507 -0.5322 -1.3982
19683SOL    HW260183   3.977   3.069   0.868 -1.7659 -0.9650 -1.1201
19684SOL     OW60184   4.103   4.779   0.643 -0.0550 -0.0579 -0.0142
19684SOL    HW160185   4.093   4.697   0.692  0.0432  1.0810  2.0694
19684SOL    HW260186   4.024   4.785   0.590  0.1313 -1.6733 -0.5491
19685SOL     OW60187   4.479   4.067   6.278 -0.2897 -0.5522  0.5319
19685SOL    HW160188   4.519   4.060   6.191 -1.1936  0.0834  0.0420
19685SOL    HW260189   4.550   4.094   6.335 -0.1249  1.2167 -0.4380
19686SOL     OW60190   7.245   4.957   7.988  0.1544 -0.4332  0.5054
19686SOL    HW160191   7.296   4.986   7.913  0.0601 -1.9912 -0.1970
19686SOL    HW260192   7.236   4.862   7.976  1.6462 -1.0675  3.3488
19687SOL     OW60193   8.905   1.348   8.705 -0.4627 -0.1034 -1.0976
19687SOL    HW160194   8.927   1.375   8.793  1.2193 -0.8752 -1.2509
19687SOL    HW260195   8.818   1.386   8.689  0.0378  1.6597  0.1551
19688SOL     OW60196   7.988   8.207   8.344 -0.1681 -0.6250 -0.7167
19688SOL    HW160197   7.952   8.295   8.353  0.7211 -0.2238 -0.9782
19688SOL    HW260198   7.911   8.150   8.342 -0.7324  0.0828  0.0389
19689SOL     OW60199   5.072   2.571   4.270 -0.2004 -0.4568 -0.3482
19689SOL    HW160200   5.115   2.543   4.189  1.9969 -1.2693  1.0095
19689SOL    HW260201   5.107   2.513   4.337  0.4558  2.1262  1.7169
19690SOL     OW60202   2.363   2.445   2.369  0.1749 -0.0877 -0.3376
19690SOL    HW160203   2.423   2.515   2.394  2.1684 -1.7621 -0.1754
19690SOL    HW260204   2.329   2.412   2.452 -0.1950  0.1794 -0.3781
19691SOL     OW60205   7.321   4.970   3.509  0.0606  0.3798 -0.3289
19691SOL    HW160206   7.376   5.018   3.570 -0.7576  0.0243  0.7215
19691SOL    HW260207   7.313   5.028   3.433  0.4537  1.1716  0.2229
19692SOL     OW60208   2.264   8.312   5.842 -0.0005 -0.5293 -0.1622
19692SOL    HW160209   2.222   8.230   5.818 -0.1383 -0.4980 -0.0326
19692SOL    HW260210   2.310   8.293   5.923  0.7522 -0.7292 -0.6258
19693SOL     OW60211   4.931   6.663   2.553  0.2393  0.0881 -0.1502
19693SOL    HW160212   5.001   6.599   2.537  0.1617 -0.0515  0.0570
19693SOL    HW260213   4.947   6.733   2.491 -1.2046 -1.3359 -2.2777
19694SOL     OW60214   6.965   3.870   0.096 -0.2175  0.1487 -0.1758
19694SOL    HW160215   6.980   3.873   0.002  0.3050 -1.6363 -0.1905
19694SOL    HW260216   7.009   3.790   0.125 -3.6304 -1.5568  0.9192
19695SOL     OW60217   7.053   5.442   5.006 -0.5143 -0.1476 -0.3129
19695SOL    HW160218   7.041   5.354   4.970 -1.8079  0.4025 -1.3216
19695SOL    HW260219   6.990   5.496   4.958 -0.6486  1.0884  1.1807
19696SOL     OW60220   4.916   6.471   4.636 -0.0724 -0.5055  0.3141
19696SOL    HW160221   4.992   6.527   4.649  0.8578 -1.2662 -1.5240
19696SOL    HW260222   4.858   6.522   4.579 -0.1370 -0.6084  0.2859
19697SOL     OW60223   6.763   2.820   7.150 -0.4070 -0.2520 -0.0738
19697SOL    HW160224   6.820   2.871   7.092 -0.4217 -0.3138 -0.1429
19697SOL    HW260225   6.723   2.755   7.092 -0.3925 -0.3380  0.0133
19698SOL     OW60226   2.061   6.710   1.738 -0.5597  0.2509 -0.2637
19698SOL    HW160227   1.986   6.733   1.792  0.0922  0.1053  0.7483
19698SOL    HW260228   2.060   6.772   1.666 -1.3443  0.5767  0.0253
19699SOL     OW60229   7.346   8.950   2.286  0.1623 -0.0214  0.8979
19699SOL    HW160230   7.297   9.000   2.351 -0.1687 -2.3463  2.5943
19699SOL    HW260231   7.416   9.008   2.257 -0.2763  1.4379  2.6352
19700SOL     OW60232   1.983   9.099   0.893 -0.1752  0.3670  0.0603
19700SOL    HW160233   2.053   9.120   0.955  0.0303 -0.0597 -0.0254
19700SOL    HW260234   2.018   9.027   0.840 -1.0614 -0.5703  0.7083
19701SOL     OW60235   3.080   8.231   3.329 -0.0805 -0.0661  0.1072
19701SOL    HW160236   3.156   8.178   3.354  0.3612  0.5848  0.1591
19701SOL    HW260237   3.032   8.244   3.411  1.9106  2.9455  0.9629
19702SOL     OW60238   7.966   1.927   8.945  0.4020 -0.1483 -0.3551
19702SOL    HW160239   7.962   1.945   8.851 -0.4336 -1.3961 -0.5784
19702SOL    HW260240   7.880   1.891   8.967  1.2482 -1.7966  0.4466
19703SOL     OW60241   6.495   8.453   2.154 -0.4659  0.1328 -0.8836
19703SOL    HW160242   6.570   8.400   2.178 -0.7611 -0.1865 -0.6511
19703SOL    HW260243   6.491   8.521   2.221  1.5386  2.1489 -2.6481
19704SOL     OW60244   7.769   6.502   2.178 -0.4612  0.2861  0.6958
19704SOL    HW160245   7.794   6.594   2.169 -1.4970  0.7238  1.9302
19704SOL    HW260246   7.740   6.476   2.091  0.0878  1.0476  0.2738
19705SOL     OW60247   6.175   1.189   7.204  0.3931 -0.4870  0.1392
19705SOL    HW160248   6.093   1.145   7.181 -0.4552  0.2865  1.5501
19705SOL    HW260249   6.167   1.276   7.164 -0.2904  0.2140  1.6985
19706SOL     OW60250   4.974   1.533   5.679  0.1558  0.0458 -1.3125
19706SOL    HW160251   5.057   1.560   5.640  0.3519  0.6486 -0.5093
19706SOL    HW260252   4.996   1.457   5.732  0.3480  0.6524 -0.5074
19707SOL     OW60253   3.967   0.946   3.645  0.1237 -0.2606  0.2688
19707SOL    HW160254   4.033   0.936   3.576 -0.3956 -1.7070 -0.0590
19707SOL    HW260255   4.003   0.899   3.720  1.2864  2.4106  1.5037
19708SOL     OW60256   2.829   4.049   1.173  0.1785 -0.0356  0.1645
19708SOL    HW160257   2.837   4.142   1.150 -0.9659  0.0755  0.1708
19708SOL    HW260258   2.833   4.047   1.268 -1.2200  0.1844  0.2513
19709SOL     OW60259   0.394   4.675   8.693  0.6027  0.0339 -0.2810
19709SOL    HW160260   0.428   4.734   8.760 -0.7454 -0.7745  1.1851
19709SOL    HW260261   0.438   4.591   8.709 -0.2122 -0.3448  0.0466
19710SOL     OW60262   7.938   5.721   0.218 -0.3348 -0.0818 -0.0189
19710SOL    HW160263   7.966   5.630   0.222 -0.4943 -0.2024 -1.2726
19710SOL    HW260264   7.901   5.739   0.304  1.2060 -0.6952  0.8139
19711SOL     OW60265   1.476   3.343   8.600 -0.3194  0.0307 -0.4295
19711SOL    HW160266   1.462   3.391   8.519 -1.8031 -0.2707 -0.3841
19711SOL    HW260267   1.433   3.259   8.586  1.0335 -0.7702 -0.0036
19712SOL     OW60268   6.189   6.026   1.707 -0.5718  0.9038 -0.5548
19712SOL    HW160269   6.263   6.025   1.645 -1.0797  2.7032 -1.2652
19712SOL    HW260270   6.216   6.088   1.775 -0.5502 -0.0978  0.3696
19713SOL     OW60271   3.776   1.782   5.045  0.3357 -0.9566  0.0383
19713SOL    HW160272   3.859   1.764   5.089  0.6753 -1.9102 -0.9238
19713SOL    HW260273   3.799   1.841   4.973  0.0605 -0.6739  0.1803
19714SOL     OW60274   2.605   7.649   1.251 -0.5813  0.0704 -0.5489
19714SOL    HW160275   2.527   7.631   1.303 -0.2855 -2.6224 -0.9078
19714SOL    HW260276   2.640   7.730   1.289 -2.4276  0.2533  0.9274
19715SOL     OW60277   3.556   2.891   1.171 -0.0799 -0.0752 -0.3704
19715SOL    HW160278   3.584   2.898   1.262 -0.7333 -0.6277 -0.1147
19715SOL    HW260279   3.489   2.959   1.161 -0.8610 -0.7720 -0.0828
19716SOL     OW60280   1.666   2.614   1.710  0.2279 -0.0016  0.0113
19716SOL    HW160281   1.658   2.708   1.693  0.0120 -0.2114 -1.1942
19716SOL    HW260282   1.635   2.573   1.629  0.8244 -1.1049  0.3231
19717SOL     OW60283   0.352   6.996   6.658 -0.3937  0.1039 -0.0475
19717SOL    HW160284   0.417   7.033   6.599 -1.8413  0.6312 -1.3694
19717SOL    HW260285   0.287   7.065   6.669 -0.1981  0.0156  2.1768
19718SOL     OW60286   7.493   2.988   6.220  0.5776 -0.2207  0.0483
19718SOL    HW160287   7.506   2.949   6.134  0.9182 -0.5536  0.2478
19718SOL    HW260288   7.509   2.917   6.282  2.2073  0.4559  0.4602
19719SOL     OW60289   2.050   1.838   9.049 -0.0435 -0.0993  0.0113
19719SOL    HW160290   2.062   1.873   9.138  0.1431 -1.1161  0.3975
19719SOL    HW260291   2.137   1.807   9.024 -0.0232  0.4719 -0.6675
19720SOL     OW60292   3.763   3.213   2.448  0.5005 -0.3029 -0.7412
19720SOL    HW160293   3.819   3.228   2.372  1.1336 -1.0425 -0.4314
19720SOL    HW260294   3.780   3.288   2.505  1.3245 -0.6180 -0.5616
19721SOL     OW60295   4.082   2.357   5.496  0.7473 -0.0863 -0.1396
19721SOL    HW160296   4.074   2.306   5.576  0.6346  2.3111  1.4721
19721SOL    HW260297   4.133   2.301   5.437  1.3033 -1.7040  1.7750
19722SOL     OW60298   1.723   5.134   7.906  0.1689 -0.3710 -0.1560
19722SOL    HW160299   1.689   5.116   7.819 -0.0421 -1.4548  0.1330
19722SOL    HW260300   1.646   5.156   7.958  0.2620  0.0124 -0.1766
19723SOL     OW60301   1.386   0.241   6.753 -0.6386  0.3893 -0.1365
19723SOL    HW160302   1.375   0.308   6.820  2.0386  1.0269 -0.2067
19723SOL    HW260303   1.390   0.159   6.802 -0.7273  0.6223  0.2661
19724SOL     OW60304   5.562   8.711   2.463 -0.2842 -0.0459 -0.1808
19724SOL    HW160305   5.479   8.757   2.469  0.0586  0.4909  0.7432
19724SOL    HW260306   5.547   8.627   2.508  0.6305  1.5484  3.4591
19725SOL     OW60307   3.717   1.874   2.076 -0.0691 -0.1213 -0.3774
19725SOL    HW160308   3.635   1.831   2.054  0.3743 -1.1456 -0.0530
19725SOL    HW260309   3.764   1.811   2.131  0.6859  0.6804 -0.0735
19726SOL     OW60310   2.001   4.699   3.884 -0.0319 -0.3630  0.0734
19726SOL    HW160311   2.068   4.641   3.848 -0.1022 -0.2189 -0.2903
19726SOL    HW260312   1.991   4.669   3.975  0.9041 -0.0478  0.3006
19727SOL     OW60313   0.083   7.973   5.837 -0.2453  0.6575 -0.1526
19727SOL    HW160314   0.143   7.902   5.859 -1.7165 -0.1295  1.7107
19727SOL    HW260315   0.027   7.938   5.768 -0.8330  0.0173  0.6195
19728SOL     OW60316   4.690   8.652   5.524  0.3753 -0.6911 -0.0011
19728SOL    HW160317   4.679   8.686   5.613 -1.2406  1.7374 -1.0001
19728SOL    HW260318   4.767   8.699   5.490 -1.5850  1.8682 -1.2314
19729SOL     OW60319   6.499   2.231   3.960 -0.0578 -0.3360  0.3546
19729SOL    HW160320   6.574   2.182   3.994 -0.1562 -1.0397 -0.4128
19729SOL    HW260321   6.432   2.165   3.944 -1.0136  0.3305  1.4035
19730SOL     OW60322   3.794   4.158   0.576 -0.4600  0.0018  0.4620
19730SOL    HW160323   3.852   4.081   0.575 -0.0194  0.3006 -1.9770
19730SOL    HW260324   3.743   4.147   0.657  2.3538 -0.7083  2.3189
19731SOL     OW60325   8.300   6.471   1.427  0.1295 -0.4264  0.0158
19731SOL    HW160326   8.302   6.399   1.364  2.8700 -2.4029  2.1117
19731SOL    HW260327   8.353   6.539   1.388 -0.5801 -0.4407 -1.0052
19732SOL     OW60328   0.928   8.083   5.667 -0.1438  0.1848  0.0390
19732SOL    HW160329   0.920   8.015   5.600  0.8943  1.2138 -1.1901
19732SOL    HW260330   1.019   8.077   5.697  0.0952  1.2986 -0.4181
19733SOL     OW60331   6.813   1.236   1.131  0.5795 -0.2244  0.7326
19733SOL    HW160332   6.821   1.186   1.050 -1.1171 -1.0012  0.9887
19733SOL    HW260333   6.841   1.175   1.200 -1.0223 -0.7063  0.9989
19734SOL     OW60334   0.964   8.663   8.486 -0.1538 -0.2296  0.1282
19734SOL    HW160335   0.970   8.754   8.515  0.5792  0.1802 -1.2150
19734SOL    HW260336   0.871   8.643   8.490 -0.4239  0.8480 -0.3006
19735SOL     OW60337   3.692   5.162   3.867  0.5917 -0.4721  0.0186
19735SOL    HW160338   3.643   5.081   3.875 -0.4135 -0.3986 -3.4617
19735SOL    HW260339   3.634   5.229   3.904 -0.5529 -0.8374 -1.0298
19736SOL     OW60340   1.272   1.748   3.396 -0.1563  0.0164  0.2000
19736SOL    HW160341   1.360   1.786   3.405 -0.4870  0.4611  1.7729
19736SOL    HW260342   1.219   1.795   3.459 -1.7505  0.3117 -1.2938
19737SOL     OW60343   7.761   4.592   3.511  1.0955  0.1606  0.6788
19737SOL    HW160344   7.723   4.657   3.570  2.0522  0.6299  0.7848
19737SOL    HW260345   7.685   4.550   3.471  0.4529  1.1500  0.8147
19738SOL     OW60346   0.714   8.498   0.527 -0.4057 -0.3727 -0.5376
19738SOL    HW160347   0.632   8.471   0.487 -0.6354  0.1678 -0.4449
19738SOL    HW260348   0.742   8.574   0.475 -0.3041 -0.1530 -0.1637
19739SOL     OW60349   5.802   6.267   1.051  0.0755 -0.1045 -0.2656
19739SOL    HW160350   5.847   6.291   1.132 -2.7283  0.2709  1.2967
19739SOL    HW260351   5.820   6.339   0.991  1.2717  0.1437  0.3529
19740SOL     OW60352   4.998   1.154   5.595 -0.0611 -0.3420  0.3008
19740SOL    HW160353   5.058   1.227   5.610 -0.6596  0.4340 -0.9411
19740SOL    HW260354   4.988   1.113   5.681  0.8665  0.5810  0.8710
19741SOL     OW60355   6.944   7.211   1.718  0.1623  0.0353  0.6685
19741SOL    HW160356   7.005   7.281   1.741 -0.4627  0.5796  0.7061
19741SOL    HW260357   6.990   7.131   1.740  1.7351  0.3136 -1.3566
19742SOL     OW60358   0.700   2.486   8.618  0.6257 -0.7592 -1.1734
19742SOL    HW160359   0.632   2.554   8.626  1.7285  0.3546 -0.8303
19742SOL    HW260360   0.773   2.521   8.668  1.0296 -2.5137 -0.4790
19743SOL     OW60361   0.463   6.449   2.297  0.0328 -0.1333  0.6140
19743SOL    HW160362   0.483   6.356   2.308  1.2975 -0.2737 -2.1515
19743SOL    HW260363   0.387   6.450   2.238  0.1629  0.6029  0.4542
19744SOL     OW60364   8.885   1.040   0.002  0.0744  0.0645 -0.0054
19744SOL    HW160365   8.937   1.007  -0.071 -2.3577 -0.6682 -1.5573
19744SOL    HW260366   8.836   1.114  -0.036 -1.4346 -0.4962  0.7523
19745SOL     OW60367   7.009   5.587   2.402 -0.0751  0.2708 -0.0178
19745SOL    HW160368   7.105   5.595   2.407 -0.1137  0.1851  1.3389
19745SOL    HW260369   6.992   5.565   2.310  1.0469  2.0797 -0.7197
19746SOL     OW60370   2.127   0.579   5.012  0.1095  0.0516  0.4404
19746SOL    HW160371   2.192   0.522   4.971  0.0726  1.8043 -2.2855
19746SOL    HW260372   2.047   0.565   4.962 -0.4775  0.9756  1.0717
19747SOL     OW60373   2.787   1.505   9.047  0.0811  0.1197 -0.2512
19747SOL    HW160374   2.828   1.460   9.121  1.3518  2.2820  0.4681
19747SOL    HW260375   2.857   1.559   9.010 -0.9528  0.3169 -2.0480
19748SOL     OW60376   6.158   3.048   2.079 -0.2035  0.6761  0.7053
19748SOL    HW160377   6.244   3.052   2.123 -0.3216  2.5508  0.8544
19748SOL    HW260378   6.140   2.955   2.071  1.2806  0.2462  1.8093
19749SOL     OW60379   0.465   0.325   4.682 -0.3990  0.1919  0.3997
19749SOL    HW160380   0.514   0.266   4.625 -1.2488  0.4767 -0.6581
19749SOL    HW260381   0.486   0.412   4.649 -2.4741  0.2825 -0.8400
19750SOL     OW60382   5.762   9.048   9.047 -0.1072  0.5310 -0.0149
19750SOL    HW160383   5.770   8.954   9.065 -1.1092  0.5771  0.7636
19750SOL    HW260384   5.694   9.054   8.981  0.7377  0.6500 -0.8947
19751SOL     OW60385   1.893   2.553   4.805  0.3062  0.3324  1.0663
19751SOL    HW160386   1.904   2.623   4.869  1.4220  0.6504  0.5525
19751SOL    HW260387   1.862   2.478   4.857 -0.5932  1.0964  1.6654
19752SOL     OW60388   3.394   7.584   2.616  0.4363 -0.3308  0.0047
19752SOL    HW160389   3.385   7.512   2.678  3.8754 -0.1933  0.8648
19752SOL    HW260390   3.449   7.648   2.661 -1.1484  2.1463 -1.3513
19753SOL     OW60391   2.707   2.785   7.945  0.5447  0.3283  0.3647
19753SOL    HW160392   2.797   2.809   7.926  0.3675 -0.0763 -1.1513
19753SOL    HW260393   2.676   2.852   8.005  2.3015 -0.3859  2.1964
19754SOL     OW60394   8.365   6.175   2.979 -0.4662  0.0246  0.0200
19754SOL    HW160395   8.367   6.080   2.968 -0.7425 -0.0311  0.4277
19754SOL    HW260396   8.282   6.192   3.023 -0.5881  0.4926 -0.3882
19755SOL     OW60397   5.256   1.695   5.126  0.0390  0.4284  0.2753
19755SOL    HW160398   5.239   1.729   5.038  0.8830  0.1244 -0.0108
19755SOL    HW260399   5.242   1.601   5.119  0.4538  0.3569  0.3779
19756SOL     OW60400   3.434   4.839   7.044  0.3944  0.4741  0.0544
19756SOL    HW160401   3.500   4.775   7.018  0.9843  1.9400 -2.4250
19756SOL    HW260402   3.482   4.907   7.090  0.3379  0.7315 -0.2640
19757SOL     OW60403   6.500   9.018   6.682 -0.3595 -0.2659  0.1440
19757SOL    HW160404   6.489   8.927   6.710 -1.2870 -0.0162  0.6413
19757SOL    HW260405   6.410   9.050   6.669 -0.1515  1.0743  1.6591
19758SOL     OW60406   3.522   2.400   0.590 -0.2373 -0.0698  0.0962
19758SOL    HW160407   3.532   2.421   0.683 -0.5857 -1.6909  0.5375
19758SOL    HW260408   3.514   2.485   0.547 -0.1217  0.7161  1.5478
19759SOL     OW60409   7.317   0.429   3.169  0.2954  0.2762  0.1642
19759SOL    HW160410   7.321   0.450   3.262 -4.1968  1.0046  0.3909
19759SOL    HW260411   7.249   0.362   3.162 -0.6610  1.3996 -2.7255
19760SOL     OW60412   4.506   5.173   1.677  0.0350 -0.2276 -0.0536
19760SOL    HW160413   4.472   5.168   1.588  2.1779 -0.0088 -0.9512
19760SOL    HW260414   4.600   5.155   1.668  0.3456 -0.0484  2.1471
19761SOL     OW60415   8.877   4.671   7.590 -0.0600 -0.4215 -0.3566
19761SOL    HW160416   8.892   4.729   7.515 -0.9578 -0.8314 -0.8756
19761SOL    HW260417   8.951   4.688   7.649 -0.5066  1.5668 -0.2804
19762SOL     OW60418   5.732   2.188   6.148 -0.5706  0.4999 -0.6629
19762SOL    HW160419   5.807   2.248   6.147  0.0587 -0.2022 -3.3342
19762SOL    HW260420   5.764   2.109   6.104 -2.6626 -0.1090 -1.2023
19763SOL     OW60421   6.080   2.011   6.215  0.2007  0.5616 -0.1178
19763SOL    HW160422   6.047   2.015   6.126  0.7037 -0.6071 -0.3837
19763SOL    HW260423   6.105   2.101   6.236 -1.7467  1.2219 -0.4141
19764SOL     OW60424   7.741   3.061   3.703  0.2634 -0.1870 -0.1757
19764SOL    HW160425   7.725   3.121   3.631  0.2058  0.6851  0.5474
19764SOL    HW260426   7.791   3.113   3.767  0.5394 -1.0153  0.2991
19765SOL     OW60427   8.013   8.046   3.503 -0.7824  0.3193 -0.1142
19765SOL    HW160428   7.969   8.102   3.567 -2.3826 -0.6204 -0.3337
19765SOL    HW260429   7.952   8.044   3.429  0.2196 -0.0514 -0.9361
19766SOL     OW60430   7.150   0.925   0.526  0.5471  0.3618  0.1440
19766SOL    HW160431   7.113   0.838   0.509 -0.0369  0.8407 -1.2374
19766SOL    HW260432   7.199   0.915   0.607 -0.1897 -1.0529  0.4544
19767SOL     OW60433   8.176   2.178   2.407 -0.3552  0.4785  0.1245
19767SOL    HW160434   8.165   2.193   2.501  0.1328  2.0642 -0.0304
19767SOL    HW260435   8.119   2.104   2.387 -1.7797  1.1890  1.3677
19768SOL     OW60436   8.759   7.922   7.996  0.4569 -0.3752  0.0225
19768SOL    HW160437   8.705   7.855   7.954  1.2799 -0.5353 -0.8074
19768SOL    HW260438   8.837   7.875   8.025 -0.3480 -0.3881  2.3079
19769SOL     OW60439   6.674   5.417   3.650 -0.1740 -0.4155 -0.1478
19769SOL    HW160440   6.669   5.463   3.734  0.8156  0.5310 -0.5831
19769SOL    HW260441   6.652   5.326   3.672  0.8102 -0.3550  1.2816
19770SOL     OW60442   6.395   5.415   1.282 -0.0061  0.6597 -0.2682
19770SOL    HW160443   6.426   5.334   1.241 -0.9392  0.0316  0.2376
19770SOL    HW260444   6.380   5.392   1.373 -0.6808  1.2850 -0.2088
19771SOL     OW60445   5.038   5.283   6.430  0.0673 -0.4507 -0.3947
19771SOL    HW160446   5.050   5.330   6.348 -1.1631 -1.5207 -1.2177
19771SOL    HW260447   4.944   5.277   6.441  0.1967  0.2131  1.4419
19772SOL     OW60448   2.923   6.733   8.679  0.4590 -0.4071 -0.0505
19772SOL    HW160449   2.930   6.791   8.755  2.1700 -1.4280  0.6206
19772SOL    HW260450   2.922   6.792   8.604  0.4995  0.5510  0.6830
19773SOL     OW60451   7.538   8.040   3.729  0.3967  0.1369 -0.7180
19773SOL    HW160452   7.448   8.014   3.711  1.0083 -1.4216 -1.7116
19773SOL    HW260453   7.591   7.980   3.678  2.0623 -0.0941  1.1682
19774SOL     OW60454   2.191   0.762   2.187  0.1752 -0.0782  0.4706
19774SOL    HW160455   2.246   0.732   2.260  0.8956 -2.8074 -1.0180
19774SOL    HW260456   2.114   0.800   2.228  1.2798 -0.0602  2.6383
19775SOL     OW60457   1.832   1.721   7.642 -0.0328 -0.1781  0.0366
19775SOL    HW160458   1.878   1.670   7.575 -1.0589 -1.4000  0.2261
19775SOL    HW260459   1.771   1.776   7.592 -0.3501 -0.6197 -0.0622
19776SOL     OW60460   4.084   2.921   7.066 -0.1665 -0.6804  0.0850
19776SOL    HW160461   4.162   2.961   7.104 -0.2438  0.3964 -0.8281
19776SOL    HW260462   4.115   2.877   6.987 -0.3728 -0.7856  0.0616
19777SOL     OW60463   3.699   0.081   6.155  0.2446  0.3008  0.1129
19777SOL    HW160464   3.633   0.144   6.127 -0.2979 -0.9222 -1.5361
19777SOL    HW260465   3.751   0.063   6.077  1.1582 -0.3935  0.8431
19778SOL     OW60466   3.094   1.413   0.817  0.7189 -0.0481 -0.2075
19778SOL    HW160467   2.999   1.405   0.820  0.4285  0.9610 -3.2939
19778SOL    HW260468   3.112   1.505   0.832  1.2385 -0.2203  0.2981
19779SOL     OW60469   7.082   1.449   7.396  0.0527  0.2155 -0.5202
19779SOL    HW160470   7.068   1.443   7.491 -0.7761  0.0600 -0.6384
19779SOL    HW260471   7.006   1.403   7.359  1.2535 -1.2510 -1.2488
19780SOL     OW60472   2.623   7.571   3.031 -0.0048  0.3221 -0.1707
19780SOL    HW160473   2.638   7.499   2.969  0.1379 -0.1636  0.4169
19780SOL    HW260474   2.530   7.564   3.054 -0.2490  0.9875 -0.9198
19781SOL     OW60475   1.905   4.884   6.794 -0.1298  0.1666 -0.0641
19781SOL    HW160476   1.904   4.849   6.883 -3.1407 -1.2392 -0.5203
19781SOL    HW260477   1.881   4.976   6.805  0.0479  0.1384  0.6230
19782SOL     OW60478   2.581   6.988   3.108 -0.3208 -0.4212  0.1180
19782SOL    HW160479   2.573   6.904   3.152 -0.5031 -1.5600 -1.9768
19782SOL    HW260480   2.675   7.008   3.111 -0.3314 -0.4540  0.9963
19783SOL     OW60481   2.355   4.776   2.616 -0.3417 -0.0567 -0.1016
19783SOL    HW160482   2.302   4.854   2.603  1.1939  1.1467  0.4873
19783SOL    HW260483   2.445   4.805   2.599  0.4397 -1.3244  1.5401
19784SOL     OW60484   1.003   3.081   0.238  0.9331 -0.0053 -0.2579
19784SOL    HW160485   1.047   3.147   0.184 -1.8191  2.1112 -0.1580
19784SOL    HW260486   0.918   3.068   0.195  0.6321 -2.0409  0.8478
19785SOL     OW60487   2.068   3.251   2.389  0.5707  0.1069 -0.0036
19785SOL    HW160488   2.072   3.159   2.416  1.0107  0.0863 -0.1293
19785SOL    HW260489   2.027   3.249   2.303  1.8376 -0.1124 -0.6226
19786SOL     OW60490   3.769   1.934   2.749 -0.6456 -0.3117 -0.4337
19786SOL    HW160491   3.854   1.890   2.747 -0.1439  0.6575 -0.9113
19786SOL    HW260492   3.705   1.863   2.740  0.0821 -1.0995  0.4311
19787SOL     OW60493   5.117   7.921   6.393 -0.3916  0.3943  0.5910
19787SOL    HW160494   5.150   7.836   6.421 -0.9585 -0.1796 -0.4509
19787SOL    HW260495   5.112   7.972   6.474 -0.4481 -0.6951  1.2947
19788SOL     OW60496   4.581   7.587   8.043 -0.2593  0.7402  0.0730
19788SOL    HW160497   4.587   7.519   8.111 -0.5367  1.5490  0.9270
19788SOL    HW260498   4.662   7.637   8.054 -0.6414  1.3161  0.2984
19789SOL     OW60499   1.946   3.343   1.065  0.2324 -0.1658 -0.5747
19789SOL    HW160500   1.963   3.268   1.008 -1.0709 -0.0794 -1.1037
19789SOL    HW260501   1.851   3.349   1.070  0.2038  2.6777 -2.2467
19790SOL     OW60502   6.845   2.650   6.091 -0.9905  0.2377 -0.0112
19790SOL    HW160503   6.839   2.735   6.133 -0.0141 -0.0467  0.7463
19790SOL    HW260504   6.874   2.591   6.161 -0.8058 -0.5426 -0.7340
19791SOL     OW60505   0.893   8.687   7.941 -0.5115 -0.3063 -0.3135
19791SOL    HW160506   0.894   8.696   7.846  0.9273 -0.3897 -0.3307
19791SOL    HW260507   0.986   8.689   7.966 -0.8593  3.7855  1.4698
19792SOL     OW60508   5.299   4.107   2.003 -0.0854  0.0248  0.2799
19792SOL    HW160509   5.248   4.140   1.929  1.4413  0.0797 -0.7921
19792SOL    HW260510   5.275   4.015   2.011 -0.6587  0.1560  0.0709
19793SOL     OW60511   6.800   9.031   3.644 -0.0061  0.1209  0.0890
19793SOL    HW160512   6.870   9.091   3.669  1.6752 -1.5787 -0.2685
19793SOL    HW260513   6.846   8.954   3.611 -2.0320 -1.6211  1.0834
19794SOL     OW60514   6.808   5.132   4.624  0.4589 -0.1428 -0.0107
19794SOL    HW160515   6.758   5.205   4.586  0.8815 -1.0878 -2.6140
19794SOL    HW260516   6.749   5.094   4.689 -0.5013  1.3719  0.0417
19795SOL     OW60517   3.564   5.902   1.977 -0.0811 -0.4953 -0.0964
19795SOL    HW160518   3.551   5.855   1.894 -2.2667  1.5262 -1.0071
19795SOL    HW260519   3.487   5.881   2.029 -0.5489  1.1367 -0.0800
19796SOL     OW60520   2.576   8.511   0.788  0.2366 -0.0826  0.2978
19796SOL    HW160521   2.659   8.523   0.742  0.3917  1.4301  0.9155
19796SOL    HW260522   2.587   8.559   0.870 -1.7095  1.2848 -0.1904
19797SOL     OW60523   7.988   8.665   8.849 -0.4009 -0.3554  0.0866
19797SOL    HW160524   8.007   8.648   8.757  0.4107  1.5616 -0.1584
19797SOL    HW260525   8.065   8.632   8.895  0.8035  1.6832 -0.3094
19798SOL     OW60526   7.746   6.461   5.511  0.1193 -1.0268 -0.3906
19798SOL    HW160527   7.799   6.405   5.454 -0.5876 -0.0214 -2.1166
19798SOL    HW260528   7.656   6.433   5.496 -0.2109  0.2480 -0.9748
19799SOL     OW60529   8.725   7.133   7.067 -0.0310 -0.4032  0.2613
19799SOL    HW160530   8.674   7.074   7.122  0.7638 -0.0318  1.4338
19799SOL    HW260531   8.794   7.078   7.029 -1.1036 -0.8495 -1.1176
19800SOL     OW60532   6.371   7.972   3.449  0.1532 -0.0405  0.4348
19800SOL    HW160533   6.368   8.064   3.423  1.7029 -0.0099  0.2460
19800SOL    HW260534   6.378   7.924   3.367 -0.8033 -0.3526  0.5263
19801SOL     OW60535   3.898   5.375   8.186  0.1726  0.3805  0.7415
19801SOL    HW160536   3.947   5.353   8.265  0.5270 -0.4308  0.3023
19801SOL    HW260537   3.866   5.464   8.202  2.0100  1.0516  0.9375
19802SOL     OW60538   8.040   5.986   3.064  0.4290  0.8851 -0.1828
19802SOL    HW160539   8.063   5.934   2.987  3.4797  1.2185  0.3711
19802SOL    HW260540   8.051   6.077   3.036 -2.0076  1.2123 -0.3038
19803SOL     OW60541   5.906   6.659   4.169  0.0707 -0.0775 -0.3544
19803SOL    HW160542   5.965   6.661   4.093  1.2749 -1.7562  0.4843
19803SOL    HW260543   5.945   6.595   4.228 -0.5472  1.5674  1.9491
19804SOL     OW60544   4.817   4.714   5.313  0.1095 -0.5471  0.1593
19804SOL    HW160545   4.844   4.679   5.228  0.6646 -1.6907  0.7813
19804SOL    HW260546   4.896   4.754   5.350 -0.3812  0.8901 -0.2911
19805SOL     OW60547   4.114   2.056   3.359  0.4602  0.1359  0.2340
19805SOL    HW160548   4.126   2.018   3.272  0.3912  0.2425  0.1770
19805SOL    HW260549   4.049   2.001   3.402  1.5215 -0.7622  0.7361
19806SOL     OW60550   6.981   3.430   3.566  0.7149  0.7019  0.4036
19806SOL    HW160551   6.970   3.471   3.480 -0.4242  1.1875  0.7500
19806SOL    HW260552   7.002   3.339   3.548 -1.7414  0.2263 -0.4421
19807SOL     OW60553   0.598   0.560   2.882 -0.1934  0.4927  0.2226
19807SOL    HW160554   0.627   0.556   2.791  4.0832 -0.1466  1.3764
19807SOL    HW260555   0.548   0.480   2.896 -0.3028  0.2650 -1.3563
19808SOL     OW60556   5.577   4.500   9.117  0.2197 -0.1407  0.4387
19808SOL    HW160557   5.632   4.560   9.167 -0.5879  1.1341 -0.1508
19808SOL    HW260558   5.501   4.553   9.091  0.0535 -1.0853 -1.1237
19809SOL     OW60559   7.914   3.101   0.400  0.1091  0.0024  0.0081
19809SOL    HW160560   7.830   3.146   0.407  0.0237  0.0228 -0.9815
19809SOL    HW260561   7.954   3.137   0.321  1.9198  1.4049  1.4793
19810SOL     OW60562   1.071   7.258   1.858 -0.5189  0.2070  0.2161
19810SOL    HW160563   1.012   7.291   1.926 -2.4742 -1.6111 -0.4607
19810SOL    HW260564   1.069   7.163   1.871 -0.4232 -0.1241 -1.9600
19811SOL     OW60565   3.138   2.606   7.693 -0.2318  0.4016  0.1695
19811SOL    HW160566   3.062   2.555   7.722  0.6640 -0.8245  0.4506
19811SOL    HW260567   3.213   2.558   7.728  0.6945  1.3454 -0.4777
19812SOL     OW60568   1.447   6.743   3.668 -0.1607 -0.3339 -0.3293
19812SOL    HW160569   1.512   6.755   3.736 -0.9490  3.1410 -0.0114
19812SOL    HW260570   1.363   6.757   3.712 -0.7803  0.4351 -1.6775
19813SOL     OW60571   0.178   1.815   7.427 -0.0645  0.6016 -0.1200
19813SOL    HW160572   0.140   1.787   7.511  1.5954  2.7114  1.4422
19813SOL    HW260573   0.256   1.864   7.451  1.1558  0.2605 -3.0138
19814SOL     OW60574   6.297   0.713   4.611 -0.2489 -0.6865  0.3236
19814SOL    HW160575   6.347   0.632   4.610  1.0011  0.0502  1.0314
19814SOL    HW260576   6.206   0.684   4.619  0.1204 -2.0258 -0.0661
19815SOL     OW60577   4.023   4.923   2.373 -0.1964 -0.5549  0.2511
19815SOL    HW160578   4.030   4.985   2.301 -0.1745  0.1632  0.8622
19815SOL    HW260579   3.995   4.975   2.448 -0.9510 -1.4169  0.5977
19816SOL     OW60580   4.701   5.071   8.143  0.0051  0.3697  0.3027
19816SOL    HW160581   4.707   5.026   8.227  2.3342 -1.1573 -0.5758
19816SOL    HW260582   4.712   5.001   8.078  0.0117  1.7323 -1.2208
19817SOL     OW60583   6.447   1.014   2.869  0.5567 -0.1667 -0.1958
19817SOL    HW160584   6.541   1.026   2.878  0.2627  1.7338  0.6584
19817SOL    HW260585   6.426   0.944   2.932  1.0214  1.3361  1.7265
19818SOL     OW60586   5.325   6.512   4.378 -0.2059 -0.2284 -0.2352
19818SOL    HW160587   5.419   6.503   4.365 -0.0684  1.7229 -0.9992
19818SOL    HW260588   5.296   6.426   4.407  1.9525 -0.6237  0.9324
19819SOL     OW60589   8.655   1.039   0.116 -0.1484  0.2336  0.0765
19819SOL    HW160590   8.751   1.032   0.111 -0.1380  0.0531  0.5287
19819SOL    HW260591   8.624   0.952   0.089 -0.1539 -0.0099  0.8339
19820SOL     OW60592   5.981   0.321   4.061  0.1922 -0.5059 -0.0489
19820SOL    HW160593   5.981   0.226   4.058 -0.5658 -0.5071 -2.3141
19820SOL    HW260594   5.927   0.347   3.986 -0.3874  1.7035  1.0436
19821SOL     OW60595   4.823   7.140   6.205 -0.5369  0.5702 -0.5606
19821SOL    HW160596   4.774   7.058   6.199  2.1953 -1.3700  1.0733
19821SOL    HW260597   4.851   7.158   6.115 -2.0460  0.3425 -1.1042
19822SOL     OW60598   8.766   5.676   1.942 -0.4838 -1.0950  0.3269
19822SOL    HW160599   8.686   5.703   1.987 -1.2143  1.2327 -2.1539
19822SOL    HW260600   8.741   5.596   1.895 -2.0527  0.5938 -1.9198
19823SOL     OW60601   5.688   1.089   8.626 -0.5652 -0.0480  0.9557
19823SOL    HW160602   5.622   1.047   8.682 -1.1014  0.4734  0.7284
19823SOL    HW260603   5.650   1.174   8.605 -0.6905 -0.4956 -0.7696
19824SOL     OW60604   7.578   5.966   1.641 -0.1101  0.2646  0.0645
19824SOL    HW160605   7.494   5.996   1.606  0.5117  2.2303  0.1125
19824SOL    HW260606   7.634   6.044   1.638  1.9799 -1.1674 -0.7467
19825SOL     OW60607   5.266   1.430   8.450 -0.0714 -0.5544 -0.4441
19825SOL    HW160608   5.214   1.503   8.483  0.8876  0.4286 -1.0099
19825SOL    HW260609   5.356   1.451   8.477  0.2723 -1.3204 -0.9583
19826SOL     OW60610   0.175   6.011   7.014  0.1873 -0.1797  0.1657
19826SOL    HW160611   0.265   5.980   7.029  0.7923 -0.0143 -2.5447
19826SOL    HW260612   0.180   6.058   6.931 -2.2355  0.7771  0.4887
19827SOL     OW60613   3.755   4.185   7.367  0.8347  0.5131 -0.1842
19827SOL    HW160614   3.663   4.210   7.374  0.3196 -1.5269  1.0038
19827SOL    HW260615   3.780   4.158   7.455  1.5125 -2.3062 -1.1516
19828SOL     OW60616   7.729   0.765   7.713 -0.1381 -0.3483  0.7101
19828SOL    HW160617   7.659   0.758   7.777 -0.2796 -0.1668  0.5749
19828SOL    HW260618   7.703   0.706   7.642 -0.3841  0.0687  0.4481
19829SOL     OW60619   6.719   2.631   2.251  0.0321 -0.0331  0.1678
19829SOL    HW160620   6.712   2.702   2.315 -1.1809 -0.5651  0.6529
19829SOL    HW260621   6.644   2.643   2.193  0.6561 -0.0475 -0.6593
19830SOL     OW60622   1.722   4.353   8.155  0.3283 -0.4210 -0.2296
19830SOL    HW160623   1.803   4.303   8.169 -1.0800 -2.7175  0.1440
19830SOL    HW260624   1.656   4.287   8.134 -1.8859  1.1734  1.2637
19831SOL     OW60625   2.021   7.422   7.413  0.4078 -0.3355  0.1371
19831SOL    HW160626   2.032   7.329   7.392  1.1358 -0.3018  0.3260
19831SOL    HW260627   2.097   7.442   7.469 -0.6109 -0.0372  1.4652
19832SOL     OW60628   4.685   2.594   6.396  0.0915 -0.6388 -0.5753
19832SOL    HW160629   4.748   2.526   6.420  1.3664  0.4515 -0.7010
19832SOL    HW260630   4.738   2.673   6.387 -1.1548  0.1155 -1.6687
19833SOL     OW60631   8.298   8.366   1.119 -0.4017  0.3806 -0.0775
19833SOL    HW160632   8.257   8.292   1.164  0.6611  0.4158  1.0129
19833SOL    HW260633   8.361   8.401   1.183 -0.0440  1.4884 -1.0016
19834SOL     OW60634   4.954   5.948   4.319 -0.2825 -0.3160  0.1690
19834SOL    HW160635   4.958   6.031   4.366 -0.9996  0.8478 -1.6982
19834SOL    HW260636   5.043   5.937   4.284  0.4610 -1.5566  2.2805
19835SOL     OW60637   4.158   4.071   2.740  0.0518  0.2703  0.1655
19835SOL    HW160638   4.209   4.127   2.798 -0.2582 -0.1814  0.9000
19835SOL    HW260639   4.184   4.096   2.652  1.0145  0.5226  0.5165
19836SOL     OW60640   7.962   3.353   8.436  0.1240 -0.2388 -0.7357
19836SOL    HW160641   7.987   3.429   8.383 -1.1631 -0.0597 -1.1224
19836SOL    HW260642   8.015   3.282   8.401  0.8243  0.3208 -0.8487
19837SOL     OW60643   8.394   1.592   0.715  0.0267 -0.1097 -0.2143
19837SOL    HW160644   8.474   1.543   0.699 -0.1080 -0.8503  1.2434
19837SOL    HW260645   8.410   1.678   0.676  0.4198 -1.1385 -2.4416
19838SOL     OW60646   7.520   6.239   4.501  0.1516  0.6379  0.3650
19838SOL    HW160647   7.543   6.176   4.569  0.5608  0.5266  0.1245
19838SOL    HW260648   7.558   6.322   4.532  0.0221  0.6668  0.4490
19839SOL     OW60649   3.013   4.926   6.401  0.0038 -0.2454 -0.3646
19839SOL    HW160650   2.989   4.955   6.313  1.4543 -2.0355 -1.4512
19839SOL    HW260651   2.938   4.873   6.430 -0.6298  0.6377 -0.3580
19840SOL     OW60652   0.491   3.932   2.587  0.9181  0.2663 -0.0760
19840SOL    HW160653   0.545   4.005   2.558  1.5042  0.1880  0.7750
19840SOL    HW260654   0.479   3.878   2.509  0.6299  1.1705 -0.6697
19841SOL     OW60655   1.446   5.186   1.091 -0.4042  0.2127  0.3136
19841SOL    HW160656   1.474   5.243   1.162 -0.6017  0.3885  0.2542
19841SOL    HW260657   1.518   5.124   1.079  0.4713  1.3693 -0.6197
19842SOL     OW60658   8.419   3.135   4.187  0.0224 -0.1149 -0.5987
19842SOL    HW160659   8.397   3.093   4.104 -0.0004 -3.6856  1.0275
19842SOL    HW260660   8.357   3.097   4.250 -0.4078  2.9479  1.0361
19843SOL     OW60661   2.629   6.760   3.238 -0.3006 -0.3590 -0.2559
19843SOL    HW160662   2.684   6.683   3.224  0.3050 -0.6646  3.0373
19843SOL    HW260663   2.544   6.724   3.263 -0.1246 -0.0021  0.9105
19844SOL     OW60664   3.455   0.142   8.826  0.1537 -0.0848 -0.8375
19844SOL    HW160665   3.379   0.200   8.829 -1.0009 -1.5901  1.0211
19844SOL    HW260666   3.444   0.093   8.744 -2.0056 -1.6531  0.3110
19845SOL     OW60667   6.622   5.941   4.167  0.1531  0.3461 -0.4120
19845SOL    HW160668   6.541   5.936   4.115 -1.0362 -1.5979  1.4713
19845SOL    HW260669   6.682   5.881   4.123 -0.1146  0.2833 -0.6994
19846SOL     OW60670   4.279   1.311   8.446  0.3860  0.3452 -0.0845
19846SOL    HW160671   4.287   1.264   8.363  0.2623 -0.5278  0.3924
19846SOL    HW260672   4.365   1.350   8.460  0.8564 -0.7309  0.1000
19847SOL     OW60673   3.296   4.204   4.807  0.6955 -0.2755 -0.0648
19847SOL    HW160674   3.295   4.297   4.784 -0.6588 -0.2599 -0.0292
19847SOL    HW260675   3.329   4.202   4.896  2.4447 -0.0044 -0.6698
19848SOL     OW60676   1.699   6.115   5.429 -0.0831 -0.3671  0.3124
19848SOL    HW160677   1.631   6.053   5.454 -0.6728  0.1918  0.1317
19848SOL    HW260678   1.731   6.152   5.511 -0.1252 -0.5041  0.3889
19849SOL     OW60679   4.474   0.126   1.385  0.4457  0.2393  0.6295
19849SOL    HW160680   4.382   0.107   1.367  0.4949  0.2127  0.3967
19849SOL    HW260681   4.511   0.147   1.299  0.7496 -0.1489  0.6650
19850SOL     OW60682   4.917   1.980   2.742 -0.3037  0.2128 -0.2352
19850SOL    HW160683   4.844   1.934   2.702 -0.4814  0.6091 -0.3667
19850SOL    HW260684   4.891   1.991   2.834  0.1571 -0.8063  0.0270
19851SOL     OW60685   3.743   8.257   7.346  0.4069 -0.2824  0.1530
19851SOL    HW160686   3.724   8.216   7.262  2.2181 -2.5616  0.7255
19851SOL    HW260687   3.827   8.300   7.334  1.8181 -2.5336  1.2673
19852SOL     OW60688   3.083   8.360   2.264  0.3067  0.2020 -0.6214
19852SOL    HW160689   3.003   8.334   2.218  0.1244  0.1109 -0.2575
19852SOL    HW260690   3.150   8.365   2.195  0.2647 -0.9067 -0.7580
19853SOL     OW60691   1.006   7.279   8.441  0.0629  0.3194 -0.0259
19853SOL    HW160692   0.938   7.212   8.438 -2.2722  2.5040  1.0600
19853SOL    HW260693   1.075   7.240   8.495 -1.1265 -1.2491  0.4447
19854SOL     OW60694   3.191   0.759   0.052 -0.5710 -0.1937 -0.4729
19854SOL    HW160695   3.217   0.842   0.012 -0.0366  2.2537  4.2601
19854SOL    HW260696   3.250   0.694   0.013 -0.3334  1.7199 -3.6105
19855SOL     OW60697   6.095   5.801   1.960  0.4093  0.2103  0.4348
19855SOL    HW160698   6.056   5.741   2.024  0.7139  0.2679  0.6800
19855SOL    HW260699   6.022   5.826   1.903  0.5605 -1.5236 -0.5789
19856SOL     OW60700   0.739   5.163   5.347  0.2900  0.0566  0.1458
19856SOL    HW160701   0.830   5.158   5.374 -0.3581 -0.9494  2.3729
19856SOL    HW260702   0.689   5.147   5.427 -1.8493 -1.0336 -1.3118
19857SOL     OW60703   5.911   1.557   4.338 -0.2386  0.2425 -0.1474
19857SOL    HW160704   5.847   1.521   4.277 -0.4504  1.3523 -0.6039
19857SOL    HW260705   5.991   1.567   4.286 -0.1420  0.3058  0.0133
19858SOL     OW60706   5.553   5.234   4.876  0.2806  0.2759  0.3839
19858SOL    HW160707   5.550   5.145   4.911 -1.6548 -0.3399 -1.1536
19858SOL    HW260708   5.624   5.277   4.925 -0.3945 -1.3186  2.9571
19859SOL     OW60709   1.710   4.605   0.848 -0.3771 -0.2876 -0.3923
19859SOL    HW160710   1.691   4.513   0.867 -0.6653 -0.1742 -0.1097
19859SOL    HW260711   1.624   4.648   0.853 -0.1787  0.0716 -0.0829
19860SOL     OW60712   7.216   4.987   0.674 -0.5484 -0.0995 -0.2688
19860SOL    HW160713   7.299   4.962   0.634 -1.0251 -1.1355 -0.6462
19860SOL    HW260714   7.199   5.075   0.641  0.7757  0.4255  0.4301
19861SOL     OW60715   6.726   1.477   3.440  0.3872 -0.1996  0.7516
19861SOL    HW160716   6.645   1.526   3.426 -0.1979 -1.0278  1.1390
19861SOL    HW260717   6.795   1.543   3.437 -0.0424  0.2533 -1.9904
19862SOL     OW60718   7.374   1.383   6.537 -0.0778  0.2018  0.1437
19862SOL    HW160719   7.299   1.353   6.586  0.5018  0.9131  1.5196
19862SOL    HW260720   7.338   1.415   6.454 -1.1961 -0.0770  0.5153
19863SOL     OW60721   6.788   7.574   4.883 -0.7442 -0.0584  0.0696
19863SOL    HW160722   6.869   7.559   4.932 -1.0157  0.1051  0.5830
19863SOL    HW260723   6.788   7.506   4.816 -0.3007 -0.2126  0.2166
19864SOL     OW60724   2.259   0.399   0.840  0.1703  0.0212  0.5936
19864SOL    HW160725   2.193   0.434   0.899  0.9260  0.9691  0.9151
19864SOL    HW260726   2.212   0.336   0.785 -1.5761  2.5265 -0.9440
19865SOL     OW60727   7.626   0.028   2.983 -0.0553 -0.3090  0.6361
19865SOL    HW160728   7.661   0.112   2.956 -2.3494  0.6927  0.5640
19865SOL    HW260729   7.560   0.007   2.917  1.2107 -2.7636  0.0218
19866SOL     OW60730   8.363   3.759   5.504  0.2715 -0.0723 -0.2701
19866SOL    HW160731   8.320   3.831   5.459  0.8167 -0.4783 -1.4759
19866SOL    HW260732   8.293   3.697   5.523 -0.5426  1.4839  2.3818
19867SOL     OW60733   0.902   6.067   1.329  0.1655  0.2003  0.0795
19867SOL    HW160734   0.909   6.066   1.234  1.6145 -1.7572  0.1661
19867SOL    HW260735   0.985   6.104   1.359  0.6261 -1.2208  0.6120
19868SOL     OW60736   2.728   4.275   4.181  0.1312 -0.5962  0.4657
19868SOL    HW160737   2.759   4.187   4.203 -1.5608 -1.9618 -2.0924
19868SOL    HW260738   2.784   4.302   4.109  1.4667  1.0693  2.0267
19869SOL     OW60739   0.758   4.046   2.829  0.4091 -0.4249  0.4974
19869SOL    HW160740   0.823   4.043   2.759 -0.4178  0.7328 -0.3683
19869SOL    HW260741   0.789   4.116   2.887 -1.2581  1.9709 -1.2718
19870SOL     OW60742   0.628   5.892   3.365  0.0356  0.0217  0.6345
19870SOL    HW160743   0.714   5.890   3.407  0.3899 -1.4926 -0.1162
19870SOL    HW260744   0.646   5.908   3.273 -0.5013 -0.1053  0.5027
19871SOL     OW60745   4.071   6.517   1.048 -0.2627  0.5503  0.1298
19871SOL    HW160746   4.105   6.445   0.995  0.8231  1.3797 -0.3500
19871SOL    HW260747   4.020   6.475   1.117 -0.6974 -0.6096 -0.8718
19872SOL     OW60748   8.406   1.825   2.976 -0.2555 -0.4971  0.2688
19872SOL    HW160749   8.497   1.832   3.004 -0.0810 -1.9533  0.1714
19872SOL    HW260750   8.387   1.907   2.932  1.4084 -0.6657 -0.8344
19873SOL     OW60751   4.011   3.439   7.997 -0.2254 -0.0539  0.0288
19873SOL    HW160752   4.097   3.463   8.030 -0.1359 -0.2399 -0.0688
19873SOL    HW260753   3.962   3.521   7.995 -1.3253 -0.4228  3.7114
19874SOL     OW60754   1.674   0.003   4.669 -0.0438 -0.6117 -0.2688
19874SOL    HW160755   1.654   0.096   4.657  2.7152 -0.1614 -2.5661
19874SOL    HW260756   1.726  -0.001   4.749 -1.3112 -0.4444  0.5946
19875SOL     OW60757   4.766   3.824   1.695  0.1376 -0.2240  0.8464
19875SOL    HW160758   4.747   3.837   1.788  0.4987  0.4232  0.8325
19875SOL    HW260759   4.792   3.732   1.689 -0.3998 -0.4152  1.2954
19876SOL     OW60760   1.751   4.591   2.577  0.0047 -0.5647 -0.4318
19876SOL    HW160761   1.722   4.617   2.490  0.8013 -1.5948 -1.0263
19876SOL    HW260762   1.841   4.560   2.565  0.4272  0.0786  0.9106
19877SOL     OW60763   5.319   3.962   7.637 -0.2342  0.1116 -0.1917
19877SOL    HW160764   5.376   3.907   7.690 -0.1549 -1.2730 -1.6275
19877SOL    HW260765   5.286   3.903   7.569 -2.2704  1.2236 -0.2326
19878SOL     OW60766   0.672   3.833   1.598 -0.6700  0.1816 -0.2987
19878SOL    HW160767   0.638   3.750   1.632  1.5715 -1.1307 -1.0823
19878SOL    HW260768   0.621   3.849   1.518  0.0870 -1.4494 -1.1578
19879SOL     OW60769   0.232   3.584   2.531 -0.0037  0.2493 -0.1868
19879SOL    HW160770   0.255   3.493   2.514 -1.5224  0.1562 -2.0847
19879SOL    HW260771   0.154   3.580   2.587 -0.8911  0.2972 -1.3711
19880SOL     OW60772   4.732   4.706   6.204 -0.0312 -0.1650 -0.4072
19880SOL    HW160773   4.770   4.618   6.203  1.9308  0.5211  1.9920
19880SOL    HW260774   4.734   4.731   6.296  3.3582  3.8998 -1.2817
19881SOL     OW60775   5.814   2.706   6.531 -0.9671 -0.3858  0.1463
19881SOL    HW160776   5.752   2.767   6.571 -1.0278 -0.6120  0.4015
19881SOL    HW260777   5.822   2.735   6.441  1.1798  1.7538  0.9169
19882SOL     OW60778   6.485   7.085   4.240 -0.3027  0.3380  0.3447
19882SOL    HW160779   6.554   7.103   4.176 -0.0768  2.7294  1.1630
19882SOL    HW260780   6.528   7.095   4.325 -0.7219 -2.2927  0.9539
19883SOL     OW60781   4.840   1.445   0.322  0.2236  0.0196 -0.3042
19883SOL    HW160782   4.882   1.436   0.237 -0.9331  0.1556 -0.9008
19883SOL    HW260783   4.781   1.520   0.312  1.3246  1.1641  1.1399
19884SOL     OW60784   5.765   3.545   8.415 -0.3228  0.6046  0.7119
19884SOL    HW160785   5.724   3.506   8.493 -1.0908 -0.1224 -0.0350
19884SOL    HW260786   5.801   3.471   8.367  1.7474  1.1994  1.2230
19885SOL     OW60787   4.147   6.121   3.968  0.1923  0.2214  0.0283
19885SOL    HW160788   4.082   6.163   4.025 -0.2466 -1.0183  0.4791
19885SOL    HW260789   4.100   6.049   3.927  1.3371 -0.9170  0.6111
19886SOL     OW60790   1.964   4.977   0.333 -0.4184 -0.0618 -0.4040
19886SOL    HW160791   2.030   4.908   0.326  0.1022  0.3800 -0.0085
19886SOL    HW260792   1.966   5.020   0.248 -0.6592 -0.4607 -0.6108
19887SOL     OW60793   5.452   0.216   0.980 -0.2881 -0.7132  0.9237
19887SOL    HW160794   5.477   0.209   1.072  1.3171  0.3834  0.6228
19887SOL    HW260795   5.390   0.289   0.977 -1.5325 -1.7162  1.3097
19888SOL     OW60796   8.533   4.802   3.775 -0.0313 -0.7001 -0.0683
19888SOL    HW160797   8.445   4.775   3.751 -0.9769  1.8336  0.2652
19888SOL    HW260798   8.542   4.778   3.868  0.0896 -1.9607 -0.3884
19889SOL     OW60799   3.127   8.490   7.107  0.3814  0.6900  0.2310
19889SOL    HW160800   3.090   8.405   7.084  0.9768  0.3887  0.3630
19889SOL    HW260801   3.142   8.485   7.202 -1.4858  1.6986  0.6270
19890SOL     OW60802   8.727   4.247   3.588  0.2782 -0.0932 -0.3504
19890SOL    HW160803   8.722   4.163   3.542  0.8861 -0.6567  0.5900
19890SOL    HW260804   8.696   4.228   3.677 -3.1342  1.4658 -1.0520
19891SOL     OW60805   3.760   6.093   1.960 -0.0832 -0.0583 -0.2868
19891SOL    HW160806   3.807   6.067   2.040 -1.7351  2.7342  1.7614
19891SOL    HW260807   3.678   6.045   1.963 -0.8797  1.2792  0.7100
19892SOL     OW60808   4.365   5.521   7.964  0.5301  0.0297  0.2691
19892SOL    HW160809   4.332   5.510   8.053 -2.0929 -0.9167 -0.7314
19892SOL    HW260810   4.434   5.455   7.956  1.4710  0.7647  1.8462
19893SOL     OW60811   0.146   7.275   5.531 -0.2505  0.5808 -0.1430
19893SOL    HW160812   0.142   7.281   5.626 -0.3494 -0.2455 -0.0833
19893SOL    HW260813   0.239   7.272   5.510 -0.2310 -0.3451  0.0239
19894SOL     OW60814   6.142   5.765   4.612 -0.1451 -0.5854  0.7567
19894SOL    HW160815   6.142   5.853   4.651 -0.7812  1.5906 -3.5817
19894SOL    HW260816   6.223   5.761   4.562 -2.2658 -0.3134 -3.0428
19895SOL     OW60817   8.169   2.975   5.559 -0.1262 -0.3969  0.1486
19895SOL    HW160818   8.252   2.932   5.539 -1.1324 -1.4547 -2.1396
19895SOL    HW260819   8.157   3.037   5.487 -2.0729 -1.4739 -0.5385
19896SOL     OW60820   4.932   1.958   8.627  0.2614 -0.3846 -0.0195
19896SOL    HW160821   4.853   1.904   8.622  1.1378 -1.7059 -0.1122
19896SOL    HW260822   4.929   2.012   8.548  0.0910 -1.3665 -0.7065
19897SOL     OW60823   7.197   5.286   0.571 -0.0101  0.1538  0.6371
19897SOL    HW160824   7.196   5.314   0.479 -0.7480  1.3046  0.9721
19897SOL    HW260825   7.289   5.290   0.596  0.0209  1.4696  0.3962
19898SOL     OW60826   2.393   6.599   1.292 -0.2139  0.5381  0.6975
19898SOL    HW160827   2.369   6.581   1.383 -0.1759  0.5425  0.7084
19898SOL    HW260828   2.378   6.516   1.246 -0.2902  0.5527  0.6953
19899SOL     OW60829   3.566   7.524   6.171 -0.5664 -0.3391  0.3354
19899SOL    HW160830   3.644   7.485   6.132 -1.0618 -0.6572 -0.3341
19899SOL    HW260831   3.597   7.557   6.256  0.9159  1.7649 -0.9174
19900SOL     OW60832   3.542   2.402   2.541  0.4922 -0.2030 -0.2289
19900SOL    HW160833   3.626   2.411   2.497  0.0576 -0.8739 -1.2213
19900SOL    HW260834   3.523   2.490   2.574  1.3063  0.0838 -0.4881
19901SOL     OW60835   5.212   0.537   2.614 -0.7852 -0.1420 -0.3741
19901SOL    HW160836   5.213   0.500   2.526 -2.1489 -0.6084 -0.2147
19901SOL    HW260837   5.255   0.471   2.669  1.4572  0.7833 -0.8610
19902SOL     OW60838   7.899   0.558   0.977 -0.0674  0.3156  0.5982
19902SOL    HW160839   7.954   0.539   1.053 -0.8524  0.4883  1.2324
19902SOL    HW260840   7.821   0.600   1.014 -0.4982  0.3390 -0.3019
19903SOL     OW60841   0.697   0.116   7.120 -0.0292  0.6535 -0.1146
19903SOL    HW160842   0.643   0.159   7.054  0.6978  0.0835 -1.1028
19903SOL    HW260843   0.765   0.072   7.070  1.8543  2.0216  1.1337
19904SOL     OW60844   8.501   7.266   0.417 -0.1825  0.5595 -0.2192
19904SOL    HW160845   8.466   7.307   0.338 -0.2460  2.1467  0.5980
19904SOL    HW260846   8.586   7.232   0.390 -0.2352  1.0089 -0.9909
19905SOL     OW60847   2.185   6.839   5.088  0.2342 -0.2879  0.1852
19905SOL    HW160848   2.122   6.859   5.019  0.4114 -1.7544 -0.4274
19905SOL    HW260849   2.244   6.914   5.088 -0.2514  0.1141 -0.6928
19906SOL     OW60850   2.962   2.839   4.080 -0.3610 -0.0747 -0.3203
19906SOL    HW160851   2.949   2.920   4.031 -0.4433  1.1572  1.5961
19906SOL    HW260852   3.050   2.810   4.057  0.0360  1.1001 -0.3078
19907SOL     OW60853   8.004   6.938   7.883  0.4139  0.2654  0.7245
19907SOL    HW160854   7.915   6.964   7.859  0.2191 -0.0564  1.0952
19907SOL    HW260855   7.994   6.852   7.924  0.9354  0.0812  0.4707
19908SOL     OW60856   0.219   8.059   0.056  0.0684  0.3676 -0.4602
19908SOL    HW160857   0.187   8.132   0.110  0.4855  0.7689 -0.7533
19908SOL    HW260858   0.141   8.027   0.011 -0.3504 -0.1812  0.6178
19909SOL     OW60859   8.944   1.109   2.167  0.1956  0.2270 -0.1309
19909SOL    HW160860   8.876   1.139   2.107  0.7517  0.0050 -0.8876
19909SOL    HW260861   8.898   1.059   2.234 -0.3385 -0.2791 -0.8680
19910SOL     OW60862   7.477   6.613   2.234 -0.4534 -0.4047  0.1023
19910SOL    HW160863   7.521   6.659   2.163 -2.4347 -0.2413 -1.0726
19910SOL    HW260864   7.508   6.522   2.227 -0.4026 -0.3255 -0.7915
19911SOL     OW60865   6.242   7.103   2.593 -0.2370 -0.0097  0.3579
19911SOL    HW160866   6.315   7.054   2.631 -0.7776 -0.2551  1.1089
19911SOL    HW260867   6.238   7.074   2.502  0.1063 -0.5927  0.5241
19912SOL     OW60868   6.153   7.352   7.835  0.3233 -0.5103  0.5042
19912SOL    HW160869   6.104   7.434   7.822  0.9516 -0.3077 -0.7029
19912SOL    HW260870   6.100   7.285   7.793  1.2538 -0.2148 -1.2490
19913SOL     OW60871   4.821   8.730   2.831 -0.4704  0.0940 -0.1396
19913SOL    HW160872   4.786   8.797   2.773 -2.5267  0.2379  1.1575
19913SOL    HW260873   4.747   8.672   2.848  1.2955 -2.8375 -1.5247
19914SOL     OW60874   2.449   4.209   0.817  0.0235 -0.2564 -0.1163
19914SOL    HW160875   2.413   4.255   0.892 -0.2670 -0.3365 -0.2024
19914SOL    HW260876   2.528   4.258   0.793  0.4565 -0.5884  0.6166
19915SOL     OW60877   8.546   8.609   8.035  0.3985 -0.2606 -0.1754
19915SOL    HW160878   8.558   8.690   7.986  1.5893  0.3548  1.0802
19915SOL    HW260879   8.635   8.577   8.051  0.0424 -0.5666  1.3432
19916SOL     OW60880   1.150   3.245   0.076  0.6186  0.0192  0.2166
19916SOL    HW160881   1.107   3.292   0.005 -1.3407 -0.9843  0.6901
19916SOL    HW260882   1.228   3.207   0.035 -0.6375 -0.8261 -1.5222
19917SOL     OW60883   6.163   4.458   2.398  0.0200 -0.1574  0.3652
19917SOL    HW160884   6.207   4.413   2.470 -1.4888 -0.9840  0.8282
19917SOL    HW260885   6.129   4.539   2.437  0.2222 -0.0364  0.2868
19918SOL     OW60886   7.586   8.992   7.921 -0.3188  0.1838 -0.2555
19918SOL    HW160887   7.498   8.959   7.900 -0.4497  0.5181 -0.2304
19918SOL    HW260888   7.637   8.913   7.939 -1.3358  0.0755  2.6353
19919SOL     OW60889   6.076   2.060   2.301  0.3720  0.7779 -0.1266
19919SOL    HW160890   6.149   2.090   2.247 -0.3135  0.3053 -1.3531
19919SOL    HW260891   6.115   1.999   2.363  1.0364  0.5908 -0.7223
19920SOL     OW60892   5.622   4.545   0.383 -0.4320  0.0978  0.3432
19920SOL    HW160893   5.653   4.535   0.293  1.9713 -0.7532  1.1720
19920SOL    HW260894   5.585   4.633   0.386 -0.4179  0.1982 -1.4243
19921SOL     OW60895   1.282   1.691   2.429  0.4071  0.0162 -0.2981
19921SOL    HW160896   1.272   1.673   2.336 -0.3413 -0.1682 -0.1908
19921SOL    HW260897   1.194   1.714   2.459  0.3591 -1.2694  0.6367
19922SOL     OW60898   6.597   3.707   8.977  0.5843  0.2723  0.2751
19922SOL    HW160899   6.525   3.648   8.957  0.8178 -1.6306  4.1758
19922SOL    HW260900   6.665   3.685   8.913 -0.1418 -2.1905  0.2707
19923SOL     OW60901   2.525   7.282   7.649 -0.1313  0.0128 -0.5064
19923SOL    HW160902   2.603   7.289   7.595 -0.3496 -0.9237 -0.9603
19923SOL    HW260903   2.554   7.234   7.727  0.6399  2.9558  1.1706
19924SOL     OW60904   1.847   3.310   3.071 -0.5124 -0.2492 -0.8015
19924SOL    HW160905   1.939   3.327   3.089 -0.5535 -2.2563  1.7242
19924SOL    HW260906   1.806   3.397   3.073  1.3926  0.8125 -3.0851
19925SOL     OW60907   0.825   7.333   4.802  0.1399 -0.4929  0.3204
19925SOL    HW160908   0.887   7.349   4.731  1.2111  2.1170  1.7183
19925SOL    HW260909   0.868   7.269   4.858 -0.2159 -1.6942 -0.7261
19926SOL     OW60910   6.046   7.279   6.541  0.5288 -0.2899  0.7216
19926SOL    HW160911   5.981   7.218   6.506 -1.4630  0.5758  2.5957
19926SOL    HW260912   6.123   7.226   6.557  0.0681 -1.5332 -0.9638
19927SOL     OW60913   6.774   2.822   5.246 -0.6679 -0.2303 -0.0953
19927SOL    HW160914   6.736   2.764   5.311 -1.6556 -0.3032 -0.7140
19927SOL    HW260915   6.758   2.910   5.279  0.6503 -0.2730  0.7428
19928SOL     OW60916   2.376   3.752   2.349  0.1571 -0.1876 -0.6469
19928SOL    HW160917   2.453   3.718   2.303 -0.1748 -1.4713 -0.2991
19928SOL    HW260918   2.308   3.686   2.334 -0.7707  0.7299 -0.6095
19929SOL     OW60919   5.033   7.246   8.353  0.3004 -0.1464 -0.1658
19929SOL    HW160920   5.046   7.159   8.390  0.5587 -0.3397 -0.6935
19929SOL    HW260921   5.079   7.305   8.413 -0.3029 -0.3104  0.4675
19930SOL     OW60922   0.344   8.545   6.439 -0.1755  0.9490  0.3530
19930SOL    HW160923   0.340   8.454   6.410  0.4779  0.9850  0.1309
19930SOL    HW260924   0.281   8.549   6.511 -0.0595  0.2637  0.5105
19931SOL     OW60925   3.660   3.685   4.537 -0.1017 -0.4771 -0.1401
19931SOL    HW160926   3.589   3.629   4.569 -1.1801 -0.0310 -1.6260
19931SOL    HW260927   3.739   3.634   4.552 -0.7263 -1.0188  1.5113
19932SOL     OW60928   0.979   9.011   4.502  0.1716 -0.2514 -0.4585
19932SOL    HW160929   0.913   9.020   4.570  0.6121  2.2456 -0.2535
19932SOL    HW260930   0.930   9.014   4.420 -0.1130  0.0938 -0.2797
19933SOL     OW60931   2.857   1.733   3.506 -0.3750 -0.0125 -0.0848
19933SOL    HW160932   2.821   1.818   3.532  1.7684  0.0181  3.3411
19933SOL    HW260933   2.952   1.744   3.513  0.1115 -1.9686 -2.3361
19934SOL     OW60934   5.588   1.329   6.329  0.2183  0.1194 -0.1370
19934SOL    HW160935   5.539   1.401   6.370 -0.5041 -0.2357 -0.3454
19934SOL    HW260936   5.678   1.360   6.325 -0.0548  0.9486 -0.0763
19935SOL     OW60937   7.682   1.188   4.167  0.6916  0.3947  0.6206
19935SOL    HW160938   7.676   1.163   4.259 -0.5508 -0.2314  0.3937
19935SOL    HW260939   7.598   1.229   4.148  0.6516 -0.1514 -0.4229
19936SOL     OW60940   4.731   6.783   7.343 -1.0474  0.4241 -0.3465
19936SOL    HW160941   4.693   6.697   7.327 -0.3233 -0.2174  1.1520
19936SOL    HW260942   4.752   6.817   7.256 -0.1738 -1.4796 -0.9383
19937SOL     OW60943   7.027   3.987   1.997  0.6682  0.2964  0.2638
19937SOL    HW160944   7.111   3.942   1.986 -0.4679 -1.6478 -1.0812
19937SOL    HW260945   6.968   3.919   2.032 -0.2533  1.7373  1.6638
19938SOL     OW60946   0.731   7.463   9.062 -0.4685 -0.4218 -0.0515
19938SOL    HW160947   0.801   7.398   9.072  0.0893 -0.0202 -1.2035
19938SOL    HW260948   0.690   7.467   9.149  0.5370 -1.1103  0.4767
19939SOL     OW60949   2.285   7.854   1.867 -0.0295  0.0784  0.4250
19939SOL    HW160950   2.244   7.909   1.934 -2.7420 -1.3740  0.0699
19939SOL    HW260951   2.378   7.875   1.874 -0.2312  0.4712  4.2133
19940SOL     OW60952   5.517   2.110   8.319 -0.1242  0.4670  0.6145
19940SOL    HW160953   5.554   2.084   8.235  0.1499 -0.6201  1.0527
19940SOL    HW260954   5.477   2.196   8.303  0.7833  0.7169 -0.3660
19941SOL     OW60955   5.262   8.158   0.327  0.3643 -0.1753  0.0367
19941SOL    HW160956   5.250   8.067   0.353 -0.0092 -0.2380 -0.3351
19941SOL    HW260957   5.174   8.196   0.332  0.9164  0.9531  2.9777
19942SOL     OW60958   1.391   6.168   2.067  0.2236  0.4547 -0.0168
19942SOL    HW160959   1.397   6.224   1.989  2.5524 -0.8506 -0.8890
19942SOL    HW260960   1.370   6.081   2.032 -0.1768  0.1369  0.9834
19943SOL     OW60961   5.413   0.468   4.005 -0.2245  0.1171  0.4101
19943SOL    HW160962   5.347   0.455   4.073  0.9410 -1.9920  1.2473
19943SOL    HW260963   5.424   0.381   3.965  0.9933  0.7293 -0.6597
19944SOL     OW60964   1.425   1.035   7.949 -0.0850  0.0585  0.0628
19944SOL    HW160965   1.413   1.078   7.864 -0.5794  0.1810  0.1925
19944SOL    HW260966   1.492   1.088   7.993  0.2099 -0.0366 -0.2715
19945SOL     OW60967   1.787   1.865   6.722  0.6597 -0.4575  0.1332
19945SOL    HW160968   1.760   1.855   6.630 -0.3951  0.2621  0.3396
19945SOL    HW260969   1.767   1.781   6.762 -0.0256 -0.3924 -0.0435
19946SOL     OW60970   4.567   6.613   7.874 -0.3741 -0.3486 -0.0334
19946SOL    HW160971   4.609   6.663   7.804 -0.3880 -1.1733 -0.6442
19946SOL    HW260972   4.602   6.651   7.954 -0.9162  1.0981 -0.4511
19947SOL     OW60973   1.714   2.115   2.363 -0.1989 -0.0028 -0.2913
19947SOL    HW160974   1.619   2.122   2.350  0.1054  2.9525 -1.7729
19947SOL    HW260975   1.727   2.027   2.399 -3.2092 -1.5327 -2.5259
19948SOL     OW60976   7.364   4.213   4.511  0.0487 -0.0288 -0.4191
19948SOL    HW160977   7.402   4.126   4.502 -1.5597 -0.8007 -0.1418
19948SOL    HW260978   7.349   4.242   4.422  2.8122  1.0664 -0.6322
19949SOL     OW60979   8.951   6.730   7.974 -0.3593  0.6932 -0.2273
19949SOL    HW160980   8.950   6.814   8.021  1.9870  2.0065 -2.2110
19949SOL    HW260981   9.021   6.680   8.015 -0.4679  0.5169 -0.2561
19950SOL     OW60982   2.730   6.449   1.395 -0.3008  0.0608  0.3325
19950SOL    HW160983   2.743   6.541   1.374 -0.2963  0.0681  0.3666
19950SOL    HW260984   2.672   6.449   1.471  0.3132  0.0590  0.8056
19951SOL     OW60985   0.711   8.718   4.936 -0.3313 -0.4304 -0.5560
19951SOL    HW160986   0.662   8.790   4.897 -2.8177 -1.4958  0.3473
19951SOL    HW260987   0.689   8.642   4.881 -1.5508 -1.3633  1.1192
19952SOL     OW60988   8.138   8.194   7.772 -0.0788  0.4978 -0.7908
19952SOL    HW160989   8.106   8.149   7.851  0.9614  0.4364 -0.3917
19952SOL    HW260990   8.084   8.159   7.701  0.7471 -1.4603 -0.5110
19953SOL     OW60991   0.058   4.006   8.200  0.2694  0.5212  0.0981
19953SOL    HW160992   0.003   4.028   8.125 -0.4817 -0.0399  0.4682
19953SOL    HW260993   0.122   4.078   8.205  1.0200  0.0221 -1.7090
19954SOL     OW60994   7.296   1.006   0.805 -0.1861 -0.0808  0.4440
19954SOL    HW160995   7.254   1.043   0.883 -0.3452  0.2023  0.2264
19954SOL    HW260996   7.335   0.923   0.835  0.0258  0.1811  0.8939
19955SOL     OW60997   6.094   3.799   7.007  0.0712 -0.0778 -0.2227
19955SOL    HW160998   6.148   3.878   7.000 -2.4466  1.9580  1.4114
19955SOL    HW260999   6.151   3.734   7.046  1.9229  1.2786 -0.5463
19956SOL     OW61000   1.905   0.506   7.903 -0.2476 -0.1363 -0.3872
19956SOL    HW161001   1.828   0.467   7.943 -0.7778  0.1959 -1.0783
19956SOL    HW261002   1.949   0.433   7.860  0.6238 -0.6092  1.2142
19957SOL     OW61003   4.103   4.597   8.191  0.0891  0.5577 -0.0804
19957SOL    HW161004   4.075   4.579   8.101 -0.7997  0.2645  0.2493
19957SOL    HW261005   4.023   4.590   8.243  0.5807  0.8251  0.7237
19958SOL     OW61006   6.061   4.225   8.076 -0.0713 -0.1916 -0.6328
19958SOL    HW161007   6.149   4.189   8.083  0.8984  2.1702  0.5663
19958SOL    HW261008   6.051   4.278   8.155 -2.7377 -0.6625 -0.5603
19959SOL     OW61009   0.214   6.131   1.612  0.5376  0.3428 -0.3207
19959SOL    HW161010   0.267   6.109   1.688  0.1284 -0.3666 -0.2345
19959SOL    HW261011   0.215   6.052   1.558  1.2058  0.9823 -1.2889
19960SOL     OW61012   8.342   6.460   6.644  0.4794  0.0884 -0.1292
19960SOL    HW161013   8.324   6.368   6.622  0.2367  0.0412  0.2541
19960SOL    HW261014   8.339   6.462   6.739 -0.8190  0.7618 -0.1647
19961SOL     OW61015   4.363   6.204   8.628  0.2801  0.6350  0.6846
19961SOL    HW161016   4.270   6.190   8.648 -0.1078  3.1101  0.8954
19961SOL    HW261017   4.368   6.195   8.533 -0.0851  0.0335  0.7162
19962SOL     OW61018   3.109   6.362   1.815  0.3995  0.0800 -0.1727
19962SOL    HW161019   3.170   6.436   1.809  2.0501 -1.1507  0.6512
19962SOL    HW261020   3.135   6.304   1.743  0.0308 -0.3418  0.0343
19963SOL     OW61021   2.581   4.953   2.676 -0.9235 -0.7604 -0.5907
19963SOL    HW161022   2.541   5.011   2.741 -0.1153 -0.1773 -0.5949
19963SOL    HW261023   2.662   4.998   2.651 -0.4483 -1.7345 -0.8512
19964SOL     OW61024   7.455   2.825   6.827 -0.1380  0.2561 -0.3643
19964SOL    HW161025   7.405   2.906   6.817  0.8484  1.1246  1.2562
19964SOL    HW261026   7.389   2.756   6.835 -1.0936  1.2909  1.1005
19965SOL     OW61027   2.159   1.479   0.036 -0.0471  0.1408 -0.2938
19965SOL    HW161028   2.242   1.472  -0.012  0.5512  1.7605  0.4289
19965SOL    HW261029   2.181   1.533   0.113 -1.7772  0.6091 -0.1006
19966SOL     OW61030   3.031   3.019   7.643  0.1561  0.3628  0.7335
19966SOL    HW161031   3.033   2.957   7.569  0.0252 -0.4250  1.3708
19966SOL    HW261032   3.104   3.078   7.626  1.4613 -1.0783  1.0256
19967SOL     OW61033   7.531   3.067   0.573 -0.0831 -0.5045 -0.2738
19967SOL    HW161034   7.480   3.027   0.502 -0.9823  2.0385 -1.1837
19967SOL    HW261035   7.611   3.097   0.530  0.2339 -0.6656  0.2086
19968SOL     OW61036   5.447   6.581   5.199 -0.7387  0.2394  0.0807
19968SOL    HW161037   5.383   6.631   5.149 -1.0083  1.3869  1.4793
19968SOL    HW261038   5.421   6.595   5.291 -1.0719 -2.8204  0.5497
19969SOL     OW61039   4.134   5.872   4.278 -0.0991  0.3495  0.3407
19969SOL    HW161040   4.055   5.925   4.282  0.1837  0.9186 -0.9562
19969SOL    HW261041   4.205   5.933   4.297  0.0706 -0.0758  1.1271
19970SOL     OW61042   8.379   0.993   8.818 -0.2167 -0.4788  0.2265
19970SOL    HW161043   8.387   1.009   8.912 -0.0562  1.2727 -0.0657
19970SOL    HW261044   8.299   1.039   8.792  0.2500 -0.1415 -0.6594
19971SOL     OW61045   3.168   6.611   6.618  0.4346 -0.5446 -0.3967
19971SOL    HW161046   3.084   6.616   6.571  0.2103 -0.3215  0.0221
19971SOL    HW261047   3.197   6.702   6.625 -1.0931 -0.1885  2.6651
19972SOL     OW61048   4.362   7.099   0.762 -0.0957  0.7151  0.5053
19972SOL    HW161049   4.447   7.133   0.735  0.0367 -0.5240 -0.7497
19972SOL    HW261050   4.329   7.164   0.823  1.6646  1.3173  0.8758
19973SOL     OW61051   1.517   9.088   2.411 -0.4394  0.5790 -0.3935
19973SOL    HW161052   1.593   9.101   2.468 -1.2855 -0.1137  0.9444
19973SOL    HW261053   1.516   9.164   2.353 -0.2477  1.9357  1.3341
19974SOL     OW61054   2.528   5.396   1.565 -0.4094 -0.0640  0.1519
19974SOL    HW161055   2.467   5.445   1.621 -1.1275 -0.7716  0.0172
19974SOL    HW261056   2.490   5.308   1.561 -0.1137 -0.1509 -1.0636
19975SOL     OW61057   0.502   1.395   6.079  0.0862 -0.6604  0.3275
19975SOL    HW161058   0.438   1.363   6.142  0.9322 -1.6832  0.7012
19975SOL    HW261059   0.454   1.458   6.025 -1.0028 -0.7857  1.1166
19976SOL     OW61060   2.091   7.380   8.588  0.2999 -0.0978 -0.0302
19976SOL    HW161061   2.013   7.387   8.533  1.8015  0.8366 -2.1775
19976SOL    HW261062   2.095   7.288   8.612 -1.9789 -0.0053  1.0196
19977SOL     OW61063   2.618   8.534   3.366 -0.2239  0.0808 -0.5353
19977SOL    HW161064   2.675   8.470   3.322 -1.2214 -0.6172 -0.8661
19977SOL    HW261065   2.556   8.480   3.416 -0.5578  0.8220 -0.1262
19978SOL     OW61066   2.360   4.955   3.563 -0.2762  0.4064  0.3872
19978SOL    HW161067   2.400   4.874   3.595  1.1041  0.6429 -0.6313
19978SOL    HW261068   2.360   5.013   3.640 -1.7879 -0.6975  1.2748
19979SOL     OW61069   8.229   8.456   4.377 -0.6073  0.0724 -0.4136
19979SOL    HW161070   8.200   8.438   4.288 -1.2946  3.0409 -0.9026
19979SOL    HW261071   8.162   8.515   4.413  1.4049  1.8017  0.7515
19980SOL     OW61072   0.219   4.798   0.039  0.6853 -0.2128 -0.0880
19980SOL    HW161073   0.175   4.828   0.119 -1.5289 -1.8354 -0.6069
19980SOL    HW261074   0.284   4.735   0.070  1.7710  1.1808  0.5902
19981SOL     OW61075   2.318   8.769   6.834  0.6385 -0.0433  0.0822
19981SOL    HW161076   2.395   8.759   6.889  0.2301  2.1959  1.1519
19981SOL    HW261077   2.352   8.775   6.745  1.6126  0.0744  0.4563
19982SOL     OW61078   6.471   1.283   4.381 -0.1545  0.1352  0.1710
19982SOL    HW161079   6.419   1.218   4.427  0.2091 -0.1077  0.2472
19982SOL    HW261080   6.468   1.361   4.436 -0.1973  0.0291  0.3186
19983SOL     OW61081   3.508   4.131   8.543 -0.7788  0.0365 -0.0617
19983SOL    HW161082   3.528   4.065   8.609  0.4786 -0.0043 -0.4513
19983SOL    HW261083   3.461   4.083   8.475  1.1760 -0.7800 -0.9147
19984SOL     OW61084   4.193   5.186   5.946 -0.0592 -0.4286  0.3448
19984SOL    HW161085   4.161   5.141   5.868  0.3039 -0.5683  0.2729
19984SOL    HW261086   4.123   5.175   6.010 -1.2276  1.3510 -0.5453
19985SOL     OW61087   8.193   3.290   1.089  0.0507 -0.3791  0.0782
19985SOL    HW161088   8.167   3.367   1.038  0.6267 -0.5179 -0.4318
19985SOL    HW261089   8.169   3.216   1.033 -0.8977 -0.5955  0.7488
19986SOL     OW61090   4.148   6.677   4.306 -0.0344  0.6109 -0.3525
19986SOL    HW161091   4.163   6.708   4.396 -0.1272  0.5186 -0.3049
19986SOL    HW261092   4.075   6.731   4.275 -1.1291 -0.4774  0.2064
19987SOL     OW61093   7.568   0.930   7.311 -0.1435 -0.2675  0.7672
19987SOL    HW161094   7.614   0.852   7.343  0.4483 -0.5169 -0.6037
19987SOL    HW261095   7.475   0.909   7.322  0.0229 -0.5803  1.7093
19988SOL     OW61096   6.165   5.873   1.374  0.0158 -0.0074  0.1055
19988SOL    HW161097   6.109   5.918   1.311  0.5351  0.4768 -0.0190
19988SOL    HW261098   6.124   5.787   1.386  1.0529 -0.9269 -2.4858
19989SOL     OW61099   2.603   0.343   8.884 -0.8435  0.3564 -0.0978
19989SOL    HW161100   2.643   0.301   8.808 -1.3171 -1.1781  0.4626
19989SOL    HW261101   2.672   0.398   8.921 -0.3718  0.5032 -1.1766
19990SOL     OW61102   5.864   7.937   3.160 -0.4218  0.1188  0.7888
19990SOL    HW161103   5.804   8.005   3.188  2.4564  2.9732  0.6291
19990SOL    HW261104   5.865   7.943   3.064 -0.9216 -0.9283  0.7017
19991SOL     OW61105   8.882   6.237   4.751  0.1890 -0.0545 -0.4342
19991SOL    HW161106   8.832   6.294   4.810  1.4543 -0.7725  1.4082
19991SOL    HW261107   8.821   6.166   4.730 -0.4551  0.4872 -0.4501
19992SOL     OW61108   1.077   2.699   3.307 -1.0382  0.7143 -0.2463
19992SOL    HW161109   1.085   2.791   3.331  0.3153  0.3542  0.8085
19992SOL    HW261110   1.132   2.653   3.370 -2.8825 -0.9828  0.2183
19993SOL     OW61111   2.064   7.041   2.747 -0.7451 -0.3423 -0.7364
19993SOL    HW161112   2.027   7.129   2.744 -2.0533 -0.8364 -0.1972
19993SOL    HW261113   2.046   7.004   2.661 -0.3253 -0.1412 -0.9134
19994SOL     OW61114   4.030   6.129   0.177 -0.1645 -0.1684  0.0490
19994SOL    HW161115   4.087   6.083   0.115  0.4433  1.6504 -0.8227
19994SOL    HW261116   3.961   6.167   0.123  0.1259  1.0738  0.5055
19995SOL     OW61117   1.225   0.512   1.179  0.3165 -1.1831  0.1646
19995SOL    HW161118   1.137   0.478   1.166 -0.4087  0.5391  0.3074
19995SOL    HW261119   1.260   0.461   1.252 -1.3675 -0.5217  1.5220
19996SOL     OW61120   4.095   4.472   2.290  0.1786  0.3363  0.1605
19996SOL    HW161121   4.060   4.555   2.258 -5.3104 -1.6329  0.1704
19996SOL    HW261122   4.082   4.476   2.385  1.6163  0.0717  0.3949
19997SOL     OW61123   4.209   5.042   1.524 -0.0565 -0.0540  0.1342
19997SOL    HW161124   4.303   5.030   1.536  0.0569 -1.0761 -1.4167
19997SOL    HW261125   4.201   5.083   1.438 -0.9865  1.4360  0.8970
19998SOL     OW61126   5.210   7.083   4.048  0.1772  0.7172 -0.0326
19998SOL    HW161127   5.283   7.090   4.110  0.6203  1.1172 -0.5925
19998SOL    HW261128   5.244   7.118   3.966  0.2365 -1.5604 -1.0729
19999SOL     OW61129   5.737   5.542   6.342  0.4973  0.3754 -0.2881
19999SOL    HW161130   5.743   5.465   6.398  1.7120 -0.6123 -1.6884
19999SOL    HW261131   5.648   5.540   6.307  0.3716 -0.1152  0.0582
20000SOL     OW61132   5.462   7.719   0.307 -0.2476  0.5510 -0.1757
20000SOL    HW161133   5.470   7.633   0.267  0.4276 -0.4411  1.9385
20000SOL    HW261134   5.524   7.774   0.259 -1.3751  0.1724 -2.1811
20001SOL     OW61135   2.805   7.301   7.499  0.0455 -0.0211 -0.3370
20001SOL    HW161136   2.783   7.380   7.451 -0.9847  0.5846  1.0806
20001SOL    HW261137   2.843   7.332   7.581  1.3534 -1.0263 -0.5193
20002SOL     OW61138   8.729   0.928   0.782  0.0305 -0.0800  0.0866
20002SOL    HW161139   8.715   0.839   0.748  1.6013  0.7303 -3.1530
20002SOL    HW261140   8.806   0.920   0.838  0.5903 -0.6998 -0.7364
20003SOL     OW61141   6.816   4.650   0.585 -0.1725 -0.0402 -0.5914
20003SOL    HW161142   6.850   4.561   0.596 -2.0254 -0.8583 -1.1816
20003SOL    HW261143   6.836   4.694   0.668  2.3015 -0.4133 -0.8992
20004SOL     OW61144   4.767   1.465   4.644 -0.0987 -0.0123  0.1222
20004SOL    HW161145   4.814   1.425   4.571 -0.2992 -1.0947  0.5719
20004SOL    HW261146   4.804   1.424   4.722 -2.2283 -1.4604  0.4725
20005SOL     OW61147   1.037   4.847   3.470  0.0600  0.0106  0.2710
20005SOL    HW161148   1.119   4.856   3.422  0.7652  0.6455  1.5288
20005SOL    HW261149   0.970   4.846   3.403  1.0921 -0.4569 -0.7905
20006SOL     OW61150   3.455   8.504   3.787 -0.4800  0.4107 -0.1015
20006SOL    HW161151   3.516   8.578   3.780  0.4581 -0.4814 -1.9799
20006SOL    HW261152   3.460   8.478   3.879  0.1001  1.8856  0.3205
20007SOL     OW61153   8.409   1.450   6.257  0.2273 -0.4406 -0.5080
20007SOL    HW161154   8.331   1.434   6.310  1.3770 -0.0015  1.4306
20007SOL    HW261155   8.396   1.398   6.178 -2.3345  0.1854 -0.5928
20008SOL     OW61156   6.544   1.994   1.496  0.1095  0.3856  0.1781
20008SOL    HW161157   6.571   1.983   1.587 -0.7308 -0.2458  0.3687
20008SOL    HW261158   6.594   2.069   1.464  0.5223  0.5170  1.1118
20009SOL     OW61159   3.755   5.380   2.795  0.0940 -0.1438  0.4980
20009SOL    HW161160   3.774   5.320   2.867  0.7907  0.0274  0.4633
20009SOL    HW261161   3.721   5.459   2.837 -0.2228 -0.3277  0.5866
20010SOL     OW61162   5.186   7.592   6.646 -0.0196 -0.4223  0.2527
20010SOL    HW161163   5.165   7.539   6.722  0.3921  1.1825  1.5254
20010SOL    HW261164   5.143   7.676   6.661  3.5849  1.5102  0.9414
20011SOL     OW61165   6.728   6.580   6.735  0.4842  0.1302 -0.3631
20011SOL    HW161166   6.763   6.522   6.803  0.5503 -0.7568 -1.1430
20011SOL    HW261167   6.805   6.627   6.703  0.5864 -0.0583 -0.3998
20012SOL     OW61168   0.632   1.034   6.708  0.0162  0.2359 -0.9073
20012SOL    HW161169   0.633   1.120   6.750 -0.9547 -0.9079  1.7085
20012SOL    HW261170   0.620   1.053   6.615 -0.8904  2.9021 -0.3548
20013SOL     OW61171   4.276   7.050   4.250  0.7126 -0.2439 -0.1002
20013SOL    HW161172   4.303   7.140   4.233 -0.7893  0.0353 -1.2371
20013SOL    HW261173   4.234   7.022   4.168  0.9823 -1.9118  0.2981
20014SOL     OW61174   2.654   6.607   8.728  0.7392  0.0542 -0.1789
20014SOL    HW161175   2.666   6.514   8.746  1.6638  0.2234  0.1122
20014SOL    HW261176   2.743   6.643   8.725  0.3577  1.1496  0.9078
20015SOL     OW61177   1.200   1.755   1.524 -0.6438  0.1264  0.1331
20015SOL    HW161178   1.250   1.675   1.541 -0.5251  0.0138 -0.6718
20015SOL    HW261179   1.260   1.809   1.471 -0.7804  0.6808  0.5456
20016SOL     OW61180   4.864   0.669   6.213 -0.2634  0.2400 -0.1422
20016SOL    HW161181   4.839   0.756   6.245 -0.0216 -0.0329  0.8224
20016SOL    HW261182   4.865   0.614   6.291 -1.0854 -0.7979 -0.8339
20017SOL     OW61183   2.828   1.051   2.118 -0.0327 -0.6325  0.7837
20017SOL    HW161184   2.740   1.013   2.123  0.0498 -1.4771 -2.3219
20017SOL    HW261185   2.814   1.143   2.095 -0.1071 -0.5981  0.9657
20018SOL     OW61186   0.956   4.539   0.032 -0.1447  0.1709  0.3133
20018SOL    HW161187   0.937   4.545  -0.062  0.2583  0.6551  0.2606
20018SOL    HW261188   0.879   4.579   0.074  0.3460  1.3369  0.1311
20019SOL     OW61189   4.819   3.865   0.960  0.1457  0.0043  0.0466
20019SOL    HW161190   4.726   3.841   0.964 -0.2344  1.2462 -0.8280
20019SOL    HW261191   4.819   3.961   0.962  1.1953  0.1600 -2.9336
20020SOL     OW61192   1.368   0.973   4.516  0.2694  0.2482  0.2159
20020SOL    HW161193   1.322   0.921   4.451 -3.3631  1.3843  1.6341
20020SOL    HW261194   1.391   1.054   4.470 -3.1475  1.4705  0.3482
20021SOL     OW61195   6.673   6.169   2.318  0.2907 -0.2062 -0.3580
20021SOL    HW161196   6.685   6.255   2.279 -1.7736 -1.0788 -3.2365
20021SOL    HW261197   6.682   6.108   2.245 -0.7791 -2.2264  1.1063
20022SOL     OW61198   4.623   3.547   4.686 -0.1563  0.3209  0.5068
20022SOL    HW161199   4.573   3.563   4.606 -1.4863 -0.7424  1.0960
20022SOL    HW261200   4.604   3.623   4.742  0.5389  0.9159 -0.0360
20023SOL     OW61201   8.975   1.526   5.463  0.4666  0.1535 -0.1565
20023SOL    HW161202   8.907   1.564   5.519 -2.5161 -1.9841 -2.0171
20023SOL    HW261203   8.993   1.440   5.502  0.1882 -0.3231 -1.0505
20024SOL     OW61204   0.412   2.366   7.062  0.1334  0.1047  0.2116
20024SOL    HW161205   0.435   2.273   7.068 -0.1886 -0.1399 -1.7003
20024SOL    HW261206   0.335   2.374   7.118  0.4255 -0.6819  0.7473
20025SOL     OW61207   3.653   2.197   1.044  0.6658 -0.4066  0.1913
20025SOL    HW161208   3.711   2.170   1.115  1.1113  0.7454  0.2859
20025SOL    HW261209   3.711   2.220   0.972  0.3271  0.3582  0.1472
20026SOL     OW61210   0.705   4.505   5.924  0.0148 -0.3927  0.3202
20026SOL    HW161211   0.637   4.440   5.903 -0.7230  0.2981  0.4919
20026SOL    HW261212   0.707   4.563   5.848  1.1156 -0.9596 -0.1064
20027SOL     OW61213   2.346   0.588   2.039 -0.1334 -0.2088 -0.5017
20027SOL    HW161214   2.398   0.556   2.113 -0.4073 -0.1798 -0.2942
20027SOL    HW261215   2.276   0.640   2.079 -0.4331 -0.4002 -0.7618
20028SOL     OW61216   0.755   2.165   7.444 -0.5698 -0.1108  0.2326
20028SOL    HW161217   0.827   2.228   7.449  0.0774 -0.6341 -1.6386
20028SOL    HW261218   0.749   2.127   7.532  2.0743 -0.7158  0.2267
20029SOL     OW61219   3.184   1.038   6.837 -0.2391  0.0115  0.4526
20029SOL    HW161220   3.174   0.946   6.816 -1.8582  0.6800 -2.1845
20029SOL    HW261221   3.094   1.072   6.841  0.2704  1.3031  2.4855
20030SOL     OW61222   1.721   0.935   1.033  0.8345  0.3100  0.8845
20030SOL    HW161223   1.806   0.974   1.013  1.5440 -0.8789  1.3981
20030SOL    HW261224   1.734   0.841   1.016 -0.4008  0.1245  0.8937
20031SOL     OW61225   1.898   7.067   7.203  0.3215 -0.5755 -0.5677
20031SOL    HW161226   1.843   6.990   7.187 -1.6375  0.2825  1.4676
20031SOL    HW261227   1.844   7.140   7.175  1.0333  0.2078  0.0653
20032SOL     OW61228   2.109   3.066   2.749 -0.5095  0.1169 -0.0472
20032SOL    HW161229   2.068   3.033   2.829 -2.1939 -2.5062 -1.8485
20032SOL    HW261230   2.037   3.080   2.688  0.8963 -1.5939 -2.2986
20033SOL     OW61231   1.355   4.568   8.411  0.5054  0.3992 -0.2126
20033SOL    HW161232   1.312   4.529   8.335 -0.0343  0.5287  0.0260
20033SOL    HW261233   1.388   4.653   8.380 -0.2181  0.7076 -0.1534
20034SOL     OW61234   6.858   8.834   0.508  0.1696 -0.0948 -0.1152
20034SOL    HW161235   6.772   8.873   0.524 -0.3628 -1.4076  0.3605
20034SOL    HW261236   6.871   8.774   0.582  2.3688  1.4643  0.8958
20035SOL     OW61237   3.407   7.388   1.711  0.3876 -0.0674 -0.5117
20035SOL    HW161238   3.495   7.395   1.673  0.5160  0.8137 -0.0729
20035SOL    HW261239   3.369   7.475   1.701 -0.1426 -0.2342  0.0086
20036SOL     OW61240   3.466   5.434   8.388 -0.4067  0.3151 -0.0182
20036SOL    HW161241   3.418   5.502   8.436 -1.2045  0.2853 -0.7563
20036SOL    HW261242   3.400   5.393   8.332  0.2549 -0.4846 -0.2250
20037SOL     OW61243   5.088   2.008   6.795  0.6628  0.0495  0.1819
20037SOL    HW161244   5.100   2.051   6.880 -0.8119 -0.8022  0.8628
20037SOL    HW261245   5.127   1.922   6.806  0.1475 -0.1955  0.1243
20038SOL     OW61246   2.296   7.431   2.200 -0.1398  0.1361  0.5914
20038SOL    HW161247   2.222   7.371   2.201 -0.6347  0.7223  0.3215
20038SOL    HW261248   2.371   7.377   2.178 -0.7150 -0.2463 -0.5163
20039SOL     OW61249   6.686   8.211   3.793 -0.4007  0.3757  0.0325
20039SOL    HW161250   6.666   8.122   3.820 -1.2108  0.6499  0.3644
20039SOL    HW261251   6.694   8.206   3.698  0.2531 -0.1710  0.1032
20040SOL     OW61252   3.855   1.623   2.096 -0.0897  0.5174 -0.0999
20040SOL    HW161253   3.831   1.532   2.080  0.1664  0.7447 -1.9887
20040SOL    HW261254   3.928   1.618   2.158  0.1125 -0.5719 -0.4024
20041SOL     OW61255   4.656   1.351   3.800 -0.2399  0.1149  0.6746
20041SOL    HW161256   4.674   1.397   3.718 -0.5983 -1.3341 -0.2370
20041SOL    HW261257   4.722   1.384   3.861 -0.1603  1.4436 -0.0878
20042SOL     OW61258   5.477   2.671   2.245 -0.1666 -0.9116  0.5983
20042SOL    HW161259   5.453   2.590   2.201 -0.3029 -0.8067  0.4804
20042SOL    HW261260   5.408   2.733   2.222 -0.3389 -0.9087  1.1087
20043SOL     OW61261   1.733   3.842   1.863  0.0420  0.1067  0.1145
20043SOL    HW161262   1.711   3.935   1.871  1.2617  0.3501  0.9186
20043SOL    HW261263   1.747   3.829   1.769  0.7911  0.9798  0.0840
20044SOL     OW61264   0.375   1.041   7.220 -0.3122 -0.0567  0.1028
20044SOL    HW161265   0.359   1.023   7.128  0.0248  0.1099  0.0069
20044SOL    HW261266   0.458   1.090   7.220  0.4967 -1.3784  0.6130
20045SOL     OW61267   4.900   8.015   1.221 -0.2649 -0.4724  0.0499
20045SOL    HW161268   4.977   7.959   1.213  0.5615  0.6080  0.2035
20045SOL    HW261269   4.934   8.104   1.212 -1.2172  0.1301  1.8870
20046SOL     OW61270   4.341   5.977   3.108 -0.1436 -0.1486 -0.1948
20046SOL    HW161271   4.292   6.034   3.167  0.6028  0.2702  0.0269
20046SOL    HW261272   4.274   5.920   3.070 -0.6216 -0.5910  1.2255
20047SOL     OW61273   3.269   4.140   7.018 -0.5445 -0.0450  0.6087
20047SOL    HW161274   3.277   4.051   6.985 -0.1479 -0.1328  0.9306
20047SOL    HW261275   3.226   4.188   6.947  0.7621 -0.1124 -0.2567
20048SOL     OW61276   1.700   4.341   0.835 -0.2555 -0.3280  0.1316
20048SOL    HW161277   1.776   4.293   0.801  0.7488  0.4584  1.1779
20048SOL    HW261278   1.627   4.313   0.780  0.7418 -1.3054 -0.7383
20049SOL     OW61279   7.023   5.271   2.833  0.1142 -0.0141 -0.2613
20049SOL    HW161280   6.989   5.344   2.781  1.0443 -0.1639 -1.1010
20049SOL    HW261281   7.008   5.298   2.924 -0.7544  0.6305 -0.5800
20050SOL     OW61282   8.110   0.028   3.485  0.2254  0.2986 -0.3817
20050SOL    HW161283   8.089  -0.044   3.426 -1.2443 -0.6003  1.1265
20050SOL    HW261284   8.114   0.105   3.429  0.5532 -0.7643 -1.8656
20051SOL     OW61285   1.675   7.182   6.479 -0.2749  0.0018 -0.4062
20051SOL    HW161286   1.725   7.178   6.561 -0.9619 -0.4031  0.0058
20051SOL    HW261287   1.674   7.091   6.447  0.0642  0.1744 -0.9057
20052SOL     OW61288   1.680   1.925   8.584 -0.1047  0.0115  0.3994
20052SOL    HW161289   1.685   2.020   8.576 -1.7423  0.0959  0.1029
20052SOL    HW261290   1.716   1.892   8.502 -2.3497  0.4867 -0.8456
20053SOL     OW61291   5.327   2.466   5.674  0.5210  0.0865 -0.0343
20053SOL    HW161292   5.375   2.545   5.696 -0.8941  0.6014  1.3451
20053SOL    HW261293   5.308   2.425   5.758  0.3479 -1.2006 -0.6715
20054SOL     OW61294   0.046   2.965   2.079  0.1499  0.3636  0.1931
20054SOL    HW161295   0.013   2.890   2.130 -0.4990  0.4638 -0.0599
20054SOL    HW261296   0.035   2.938   1.988  2.3709 -0.2772  0.0665
20055SOL     OW61297   4.445   4.060   4.586  0.1392  0.3726 -0.0255
20055SOL    HW161298   4.514   4.094   4.644  1.2890  0.8969 -1.6358
20055SOL    HW261299   4.364   4.099   4.620  0.7346  0.4932  1.3380
20056SOL     OW61300   4.886   1.004   3.645 -0.3198  1.0329 -0.0293
20056SOL    HW161301   4.907   0.940   3.713  1.1691  0.1198 -1.2766
20056SOL    HW261302   4.887   0.953   3.564 -1.2684  2.2487 -0.8270
20057SOL     OW61303   0.496   3.642   1.743  0.2630  0.4228 -0.1525
20057SOL    HW161304   0.511   3.688   1.826  1.4394 -0.4568  0.1269
20057SOL    HW261305   0.501   3.549   1.765 -2.5746  0.0429 -0.6204
20058SOL     OW61306   1.925   4.515   0.431 -0.3507  0.3356 -0.2948
20058SOL    HW161307   1.933   4.508   0.526 -0.0448 -0.0342 -0.3464
20058SOL    HW261308   1.915   4.609   0.414 -0.2206  0.4180  0.0891
20059SOL     OW61309   8.992   4.707   1.935 -0.0355  1.1414  0.6303
20059SOL    HW161310   9.046   4.711   1.856 -0.3828  0.9138  0.3775
20059SOL    HW261311   9.042   4.756   2.001  1.1198 -0.1857  0.7842
20060SOL     OW61312   2.879   5.670   1.637  0.1513 -0.3964  0.2981
20060SOL    HW161313   2.844   5.734   1.575  2.9786  0.5820 -0.4417
20060SOL    HW261314   2.850   5.585   1.602 -1.8470  0.3027  0.0949
20061SOL     OW61315   0.720   4.965   7.379 -0.5247 -0.2675 -0.4664
20061SOL    HW161316   0.683   5.032   7.322 -2.4241  0.4773  1.5152
20061SOL    HW261317   0.654   4.897   7.383 -0.1916 -0.5564  0.4021
20062SOL     OW61318   4.763   8.119   6.461 -0.4831 -0.5079 -0.5776
20062SOL    HW161319   4.779   8.192   6.401  1.9261 -0.7793 -0.3744
20062SOL    HW261320   4.760   8.159   6.548  0.0173 -0.5443 -0.5405
20063SOL     OW61321   1.324   4.618   5.168  0.0759 -0.0767 -0.4775
20063SOL    HW161322   1.280   4.548   5.215  1.0250 -0.3751 -0.0138
20063SOL    HW261323   1.412   4.585   5.151  0.1432  0.5109 -1.3724
20064SOL     OW61324   4.021   3.726   3.713  0.0455 -0.0110  0.1775
20064SOL    HW161325   3.954   3.714   3.646 -1.9590  0.1422  2.0362
20064SOL    HW261326   4.031   3.640   3.753 -0.5434  0.3657  1.1906
20065SOL     OW61327   3.643   9.002   6.499  0.3144 -0.2782  0.1033
20065SOL    HW161328   3.678   8.914   6.513  1.6478  0.4170  1.4358
20065SOL    HW261329   3.641   9.042   6.587  2.3337  1.9333 -0.7408
20066SOL     OW61330   7.400   1.623   4.473  0.0289  0.0245  0.2622
20066SOL    HW161331   7.328   1.618   4.537  1.5929 -2.9009  1.9816
20066SOL    HW261332   7.361   1.592   4.391 -1.2645  0.9274  0.5025
20067SOL     OW61333   4.417   7.980   2.444  0.1092 -0.5967  0.2136
20067SOL    HW161334   4.416   8.066   2.486 -1.8038 -0.9101  0.9158
20067SOL    HW261335   4.501   7.941   2.470  0.6201  0.7034  0.5930
20068SOL     OW61336   2.171   3.209   8.384  0.0916  0.2628 -0.1635
20068SOL    HW161337   2.203   3.243   8.468  1.5610 -3.1621  0.8293
20068SOL    HW261338   2.221   3.257   8.318  0.2307  1.7512  0.9635
20069SOL     OW61339   3.092   4.641   2.381 -0.4298  0.4368  0.3780
20069SOL    HW161340   3.133   4.626   2.296 -1.1812 -2.7791  0.4632
20069SOL    HW261341   3.151   4.600   2.444 -0.7105  1.3210  1.2517
20070SOL     OW61342   6.736   0.608   2.759 -1.0952 -0.1701 -0.1797
20070SOL    HW161343   6.641   0.599   2.755 -0.9600 -2.7822  0.5997
20070SOL    HW261344   6.757   0.603   2.852 -0.1140 -0.9321 -0.4213
20071SOL     OW61345   2.026   1.203   1.180 -0.7862 -0.0654 -0.2095
20071SOL    HW161346   2.111   1.223   1.140 -1.2186  0.1590 -1.0565
20071SOL    HW261347   1.986   1.142   1.119 -0.4084 -1.8103  1.2200
20072SOL     OW61348   8.336   2.911   0.057  0.2390 -0.0314 -0.6836
20072SOL    HW161349   8.387   2.980   0.100  3.1529 -1.4332 -1.6052
20072SOL    HW261350   8.288   2.956  -0.012  2.3144  1.0843 -1.4770
20073SOL     OW61351   0.656   8.607   5.475  0.3948  0.3583 -0.7118
20073SOL    HW161352   0.627   8.551   5.547 -0.1311  1.8215  0.2497
20073SOL    HW261353   0.605   8.687   5.485  0.8784  0.8910 -2.2652
20074SOL     OW61354   5.630   6.514   7.634 -0.8190 -0.4722  0.3491
20074SOL    HW161355   5.660   6.479   7.718  1.2010 -1.0344 -0.5549
20074SOL    HW261356   5.610   6.436   7.581 -0.5805 -0.1684 -0.1970
20075SOL     OW61357   4.433   0.045   5.006  0.0646 -0.3854  1.0951
20075SOL    HW161358   4.463  -0.023   5.065  0.8730  0.3579  1.5598
20075SOL    HW261359   4.430   0.003   4.920  1.8708 -0.6662  1.1360
20076SOL     OW61360   8.620   8.371   4.905  0.1184  0.8571 -0.0414
20076SOL    HW161361   8.588   8.326   4.827 -1.6591 -1.2739  1.8088
20076SOL    HW261362   8.605   8.464   4.887 -1.7495  0.3125 -1.6243
20077SOL     OW61363   8.581   5.454   3.990 -0.6655  0.1740  0.3593
20077SOL    HW161364   8.649   5.522   3.987 -1.9097  1.4835  0.6816
20077SOL    HW261365   8.591   5.413   4.076 -0.0644  0.1090  0.2622
20078SOL     OW61366   6.679   4.643   7.895  0.2591  0.1512  0.2122
20078SOL    HW161367   6.718   4.638   7.808  0.9796 -1.4609  0.6098
20078SOL    HW261368   6.650   4.734   7.902 -0.8506  0.0676 -2.1371
20079SOL     OW61369   4.309   7.805   5.288 -0.2281 -0.0587  0.6556
20079SOL    HW161370   4.275   7.754   5.214 -2.5550  1.6561  0.3925
20079SOL    HW261371   4.343   7.885   5.247 -0.1943  0.2663  1.3118
20080SOL     OW61372   0.493   2.661   0.610  0.1039 -0.5931  0.0215
20080SOL    HW161373   0.463   2.608   0.537  0.1591 -1.4398  0.6014
20080SOL    HW261374   0.562   2.716   0.573 -2.0902  1.4243 -1.3396
20081SOL     OW61375   9.054   5.738   3.833  0.3879  0.2071 -0.3628
20081SOL    HW161376   9.138   5.783   3.838 -0.7513  2.5763 -0.8246
20081SOL    HW261377   9.017   5.767   3.750 -1.2388 -0.0776  0.2266
20082SOL     OW61378   8.648   4.221   3.848  0.5614  0.3250 -1.0665
20082SOL    HW161379   8.711   4.293   3.862  1.8487 -1.3281  4.2010
20082SOL    HW261380   8.595   4.221   3.928 -0.5434 -3.4536 -1.6314
20083SOL     OW61381   5.476   3.404   8.033  0.4122 -0.8682  0.0353
20083SOL    HW161382   5.516   3.482   7.994 -0.6003 -0.7418 -0.8092
20083SOL    HW261383   5.460   3.429   8.124  1.3889 -0.6020  0.1457
20084SOL     OW61384   3.823   8.575   4.959  0.0142  0.1554  0.5061
20084SOL    HW161385   3.901   8.584   5.013  1.0762  1.4932 -1.1489
20084SOL    HW261386   3.845   8.504   4.898 -0.6271 -0.3960  0.9013
20085SOL     OW61387   3.043   4.170   1.969 -0.7122 -0.3546  0.2118
20085SOL    HW161388   3.094   4.101   2.011  1.0948 -0.1338 -1.4722
20085SOL    HW261389   2.978   4.124   1.916 -1.5814 -0.6638  1.5100
20086SOL     OW61390   0.394   1.680   0.253 -0.7237 -0.4413  0.3272
20086SOL    HW161391   0.409   1.597   0.297 -0.8561  0.5297  2.3036
20086SOL    HW261392   0.351   1.735   0.319 -1.0667  1.0550 -1.0706
20087SOL     OW61393   5.025   2.263   8.125 -0.0856  0.2575 -0.2791
20087SOL    HW161394   5.015   2.231   8.035  0.6402 -1.0357  0.0639
20087SOL    HW261395   5.089   2.333   8.119 -1.3948  1.4521 -1.0011
20088SOL     OW61396   3.465   1.468   3.545 -0.2858  0.1300 -0.3313
20088SOL    HW161397   3.465   1.417   3.464 -1.0838  0.0425 -0.2889
20088SOL    HW261398   3.557   1.475   3.570 -0.1527 -1.2098 -0.3903
20089SOL     OW61399   6.982   6.275   0.159  0.4802  0.3318 -0.3632
20089SOL    HW161400   6.976   6.185   0.193  0.0256  0.7017  0.5602
20089SOL    HW261401   7.072   6.302   0.180  0.2633  0.4885  0.4086
20090SOL     OW61402   6.724   0.228   7.611  0.9849 -0.3808  0.1549
20090SOL    HW161403   6.733   0.320   7.584 -0.1611 -0.4000 -0.3448
20090SOL    HW261404   6.814   0.198   7.622  1.3789  1.0161  1.0904
20091SOL     OW61405   0.472   4.053   8.074 -0.4335 -0.3068  0.5939
20091SOL    HW161406   0.454   4.140   8.039 -3.8731 -1.6463 -1.5400
20091SOL    HW261407   0.547   4.022   8.023 -0.3718  0.7061  0.0477
20092SOL     OW61408   6.954   1.151   6.914 -0.5769 -0.2886 -0.5962
20092SOL    HW161409   6.907   1.227   6.882 -1.7543 -0.6122  0.2943
20092SOL    HW261410   6.888   1.082   6.921  0.2007 -1.0253 -0.1765
20093SOL     OW61411   4.081   6.666   4.604  0.4666 -0.3974  0.2386
20093SOL    HW161412   4.091   6.757   4.576  0.9736 -0.6038 -0.2714
20093SOL    HW261413   4.006   6.633   4.555 -0.3748  0.0390  1.1995
20094SOL     OW61414   2.891   8.711   4.707 -0.5408 -0.4525 -0.1542
20094SOL    HW161415   2.872   8.704   4.614 -1.6983 -1.8918  0.1638
20094SOL    HW261416   2.892   8.621   4.738 -1.0252  0.0507  1.3918
20095SOL     OW61417   0.358   2.530   5.208  0.9408 -0.7252 -1.0563
20095SOL    HW161418   0.437   2.555   5.256  1.5650 -2.3144 -1.2031
20095SOL    HW261419   0.358   2.588   5.132  0.2084  1.4752  0.5150
20096SOL     OW61420   3.805   8.237   0.394 -0.2507 -0.6527  0.1302
20096SOL    HW161421   3.862   8.241   0.317  0.1120 -1.3683  0.3552
20096SOL    HW261422   3.809   8.326   0.431 -2.4845  0.5295 -2.1141
20097SOL     OW61423   5.520   4.363   3.209 -0.0441 -0.3357  0.4284
20097SOL    HW161424   5.426   4.364   3.192  0.1368 -1.1177 -0.7915
20097SOL    HW261425   5.528   4.369   3.304 -1.2884  0.6656  0.4988
20098SOL     OW61426   0.067   8.269   5.129  0.0019 -0.3138 -0.3876
20098SOL    HW161427   0.053   8.177   5.107  0.7583 -0.4919 -0.1318
20098SOL    HW261428   0.154   8.272   5.168 -0.0601  0.4960 -0.2931
20099SOL     OW61429   7.857   1.978   6.628 -0.3167  0.1978  0.6608
20099SOL    HW161430   7.803   1.917   6.578 -0.6679 -1.0078  2.4276
20099SOL    HW261431   7.794   2.029   6.679  0.1232 -0.2275  1.6535
20100SOL     OW61432   6.635   8.258   6.072  0.3530  0.4282  0.5523
20100SOL    HW161433   6.586   8.340   6.060 -1.2307 -0.7184 -1.5350
20100SOL    HW261434   6.584   8.209   6.136  0.1721  0.2767  0.2951
20101SOL     OW61435   1.995   4.707   7.143 -0.2439  0.2998 -0.2167
20101SOL    HW161436   1.914   4.701   7.092 -1.4591  3.6240  1.0239
20101SOL    HW261437   1.968   4.745   7.227  2.4007  0.0502  0.8481
20102SOL     OW61438   1.223   5.499   1.797  0.2603 -0.4756  0.3513
20102SOL    HW161439   1.243   5.448   1.875 -0.4724  0.6231  1.3027
20102SOL    HW261440   1.164   5.444   1.746  3.2755 -2.6013 -1.1422
20103SOL     OW61441   5.857   7.450   4.564  0.1176  0.0311 -0.1684
20103SOL    HW161442   5.868   7.390   4.637 -0.9167  0.9410  0.7659
20103SOL    HW261443   5.935   7.506   4.568 -0.3256  0.6023  0.7660
20104SOL     OW61444   1.938   7.430   6.951  0.1202  0.0008  0.2822
20104SOL    HW161445   1.911   7.361   7.011  0.6721 -0.8316 -0.3908
20104SOL    HW261446   1.881   7.504   6.971 -0.9744 -0.8901  0.5425
20105SOL     OW61447   8.967   6.078   0.939  0.2468  0.2353  0.1071
20105SOL    HW161448   9.028   6.139   0.897  0.8560 -0.5023 -0.1175
20105SOL    HW261449   9.009   6.057   1.023  0.6028 -0.7056 -0.2882
20106SOL     OW61450   8.861   5.051   8.115  0.4365 -0.0252 -0.4389
20106SOL    HW161451   8.899   5.008   8.039  0.4907  0.6411 -0.7930
20106SOL    HW261452   8.883   4.993   8.188 -0.4468 -1.1647 -1.0382
20107SOL     OW61453   1.137   6.000   7.863  0.0426 -0.4135  0.2437
20107SOL    HW161454   1.208   5.963   7.811  0.4831  2.6541 -1.5852
20107SOL    HW261455   1.062   6.001   7.803 -0.2023  0.7004  0.5504
20108SOL     OW61456   5.479   5.273   7.307 -0.1534 -0.4659 -0.7297
20108SOL    HW161457   5.440   5.361   7.314  1.6691  0.3976 -0.9689
20108SOL    HW261458   5.408   5.219   7.273 -0.8601  1.2770 -2.2128
20109SOL     OW61459   7.723   0.086   3.979 -1.0407 -0.0235  0.1362
20109SOL    HW161460   7.817   0.080   3.995 -0.9248 -0.3822 -0.6799
20109SOL    HW261461   7.685   0.015   4.032 -0.6195 -1.4296 -1.3620
20110SOL     OW61462   7.323   4.391   3.573  0.0159  0.2235  0.4543
20110SOL    HW161463   7.408   4.432   3.556  0.1463  0.3612  1.3589
20110SOL    HW261464   7.344   4.299   3.589 -0.2861 -0.2574 -1.6571
20111SOL     OW61465   2.813   4.619   4.924  0.4075 -0.5435 -0.2297
20111SOL    HW161466   2.825   4.628   4.830  1.0324 -1.9352 -0.3034
20111SOL    HW261467   2.832   4.706   4.959 -1.3379  0.3913 -1.5102
20112SOL     OW61468   7.916   7.521   5.266 -1.0403  0.0324  0.5626
20112SOL    HW161469   7.875   7.605   5.285 -0.2135  0.3122  1.1794
20112SOL    HW261470   8.002   7.527   5.307 -0.4222 -0.5795 -0.6246
20113SOL     OW61471   0.422   3.227   8.061  0.0538  0.2463 -0.4622
20113SOL    HW161472   0.400   3.285   8.134 -1.6450 -2.7512  1.6332
20113SOL    HW261473   0.354   3.245   7.996 -0.0553  1.0253 -0.1511
20114SOL     OW61474   7.149   8.836   5.278  0.3154  0.2783  0.9391
20114SOL    HW161475   7.196   8.845   5.195 -1.2682 -0.1335 -0.0504
20114SOL    HW261476   7.124   8.926   5.301  0.1893  0.3255  0.6191
20115SOL     OW61477   1.598   0.781   2.088  1.2329  0.0452 -0.0716
20115SOL    HW161478   1.609   0.833   2.167  0.6100  0.8844 -0.5251
20115SOL    HW261479   1.686   0.749   2.068  1.6717  1.1144  0.0949
20116SOL     OW61480   3.098   5.544   8.315 -0.2393  0.1522  0.0815
20116SOL    HW161481   3.122   5.466   8.264 -1.6044 -0.0696 -0.2520
20116SOL    HW261482   3.125   5.523   8.404 -0.3446 -0.5923 -0.0547
20117SOL     OW61483   1.602   7.071   2.514 -0.0664  0.4465 -0.1907
20117SOL    HW161484   1.675   7.131   2.529  0.5325 -0.1381 -0.7148
20117SOL    HW261485   1.543   7.120   2.457  1.0542  0.0956 -1.7153
20118SOL     OW61486   1.570   8.245   4.380 -0.0418 -0.3057  0.5433
20118SOL    HW161487   1.496   8.220   4.436  1.1077 -0.0771  2.2603
20118SOL    HW261488   1.626   8.297   4.438 -0.8425  3.7836 -2.0049
20119SOL     OW61489   3.379   6.592   8.060  0.2974 -0.7072 -0.5406
20119SOL    HW161490   3.312   6.655   8.033  0.2225  0.2650  1.6600
20119SOL    HW261491   3.456   6.615   8.009  0.6181  2.0094  0.9563
20120SOL     OW61492   5.913   8.145   5.142  0.0379 -0.5144  0.3127
20120SOL    HW161493   5.958   8.108   5.067  1.2447 -1.2108  1.3454
20120SOL    HW261494   5.960   8.226   5.161 -0.7640  0.0756 -0.1467
20121SOL     OW61495   7.031   8.320   2.891 -0.0298  0.3800 -0.1416
20121SOL    HW161496   7.081   8.244   2.862 -0.7217 -0.5424  1.0224
20121SOL    HW261497   7.081   8.355   2.965 -1.2698 -0.8015  1.3065
20122SOL     OW61498   6.533   0.867   4.681  0.1268  0.3285 -0.0511
20122SOL    HW161499   6.591   0.853   4.756 -0.9507  1.4415  1.0199
20122SOL    HW261500   6.473   0.792   4.684  1.5193 -0.8926 -1.2345
20123SOL     OW61501   1.248   3.022   8.971  0.5083 -0.5239 -0.1282
20123SOL    HW161502   1.269   3.082   8.900 -1.4144 -1.0848 -1.2499
20123SOL    HW261503   1.313   3.040   9.038  2.2966  0.1360 -1.9528
20124SOL     OW61504   0.718   5.978   8.065  0.3742  0.1510 -0.1795
20124SOL    HW161505   0.658   5.908   8.090  0.9178 -0.2223  0.1275
20124SOL    HW261506   0.731   5.966   7.971  1.2397 -0.8003  0.0452
20125SOL     OW61507   5.958   2.005   3.320  0.1184 -0.5433  0.0037
20125SOL    HW161508   6.006   1.927   3.343 -0.8980 -0.3145  3.3334
20125SOL    HW261509   6.025   2.072   3.304  0.9259 -1.5372 -0.9004
20126SOL     OW61510   0.187   3.316   4.682 -0.2521 -0.0627 -0.2106
20126SOL    HW161511   0.246   3.255   4.638 -0.5803  0.3441 -1.2543
20126SOL    HW261512   0.105   3.267   4.690 -0.3168  0.0029 -0.4483
20127SOL     OW61513   5.465   5.915   0.301 -0.8871  0.3052  0.4988
20127SOL    HW161514   5.493   5.884   0.215 -0.3831  0.6648  0.5244
20127SOL    HW261515   5.403   5.985   0.283 -0.2940  0.8246  0.4055
20128SOL     OW61516   4.558   8.589   6.947 -0.1243 -0.5549  0.2947
20128SOL    HW161517   4.646   8.598   6.911 -0.9760  1.8570 -1.5248
20128SOL    HW261518   4.520   8.516   6.898  1.3728 -2.9303  2.4709
20129SOL     OW61519   5.270   0.102   0.559 -0.6130  0.0645 -0.2359
20129SOL    HW161520   5.238   0.156   0.486 -1.0445  0.6991  0.4157
20129SOL    HW261521   5.199   0.039   0.574  0.3717 -1.5426 -1.7892
20130SOL     OW61522   4.921   5.348   5.228  0.3164  0.5487  0.1003
20130SOL    HW161523   4.920   5.444   5.221  0.0254  0.4994 -0.7413
20130SOL    HW261524   4.955   5.319   5.143  1.4501 -0.0725  0.7442
20131SOL     OW61525   7.040   3.942   3.221 -0.4829  0.0648 -0.3105
20131SOL    HW161526   7.114   3.882   3.219  1.0796  1.5995  3.0773
20131SOL    HW261527   7.080   4.028   3.233 -2.7499  0.8677  2.5588
20132SOL     OW61528   3.494   4.900   8.568 -0.4054  0.1052  0.1001
20132SOL    HW161529   3.452   4.816   8.550 -0.0097 -0.0204 -0.2426
20132SOL    HW261530   3.553   4.882   8.641 -0.8308  0.2492  0.4864
20133SOL     OW61531   5.329   2.041   7.704  0.5171  0.2438  0.2612
20133SOL    HW161532   5.273   2.079   7.636  1.2936  0.2525 -0.3748
20133SOL    HW261533   5.268   2.021   7.776 -0.4433 -0.5607 -0.7523
20134SOL     OW61534   3.581   7.354   8.002  0.3482 -0.0038 -0.0576
20134SOL    HW161535   3.581   7.337   8.096 -1.2553  0.0591 -0.0229
20134SOL    HW261536   3.570   7.449   7.995 -0.7087 -0.1356 -0.3041
20135SOL     OW61537   6.069   4.115   4.292 -0.4117  0.0416 -0.4242
20135SOL    HW161538   6.047   4.087   4.203 -1.8888  0.6408 -0.2640
20135SOL    HW261539   5.990   4.159   4.324  0.4616  0.7727  0.8049
20136SOL     OW61540   3.248   7.518   8.870  0.2086 -0.1170  0.1157
20136SOL    HW161541   3.259   7.593   8.813 -0.5784 -0.8844 -1.1005
20136SOL    HW261542   3.329   7.468   8.861 -0.0801 -0.4593 -0.7096
20137SOL     OW61543   6.499   0.640   7.123 -1.0828 -0.3944 -0.1310
20137SOL    HW161544   6.432   0.584   7.083 -1.2814 -0.2739  0.0302
20137SOL    HW261545   6.574   0.633   7.065 -1.2693 -0.4534 -0.3669
20138SOL     OW61546   5.950   6.470   2.240  0.2775  1.0203  0.2775
20138SOL    HW161547   5.903   6.391   2.214 -0.2306  1.5971 -0.6128
20138SOL    HW261548   5.887   6.518   2.294 -0.3296  1.9525 -1.1887
20139SOL     OW61549   3.849   0.708   3.395  0.0008 -0.3799 -0.1876
20139SOL    HW161550   3.874   0.637   3.336 -0.3015 -0.6676  0.0270
20139SOL    HW261551   3.931   0.733   3.439 -0.4693 -3.2088  2.5972
20140SOL     OW61552   1.617   2.230   8.539  0.0495  0.0055 -0.1977
20140SOL    HW161553   1.568   2.237   8.621 -0.4998 -1.5650 -0.3588
20140SOL    HW261554   1.684   2.298   8.545  1.1934 -1.2054  2.3867
20141SOL     OW61555   9.100   6.270   2.659  0.4189  0.1749 -0.2515
20141SOL    HW161556   9.087   6.361   2.685  1.6424 -0.3213  2.4081
20141SOL    HW261557   9.194   6.255   2.670  0.0071 -1.8309  0.9669
20142SOL     OW61558   6.012   0.971   0.471 -0.3687 -0.2962 -0.6591
20142SOL    HW161559   6.059   0.942   0.550 -1.6635  1.3240  0.7669
20142SOL    HW261560   5.965   0.893   0.441 -0.4864 -0.7443  0.6349
20143SOL     OW61561   2.114   7.794   5.163  0.4915 -0.2726  0.5142
20143SOL    HW161562   2.033   7.754   5.194  0.8225 -1.3680  0.0338
20143SOL    HW261563   2.166   7.807   5.242 -0.3274  0.9167  0.8913
20144SOL     OW61564   3.131   3.336   3.890 -0.3251  0.1606 -0.1189
20144SOL    HW161565   3.096   3.424   3.880 -2.3391 -0.5783 -0.0418
20144SOL    HW261566   3.100   3.306   3.975  0.7699 -0.4494  0.0919
20145SOL     OW61567   5.747   0.734   2.782 -0.5771 -0.3921  0.1392
20145SOL    HW161568   5.789   0.819   2.798  0.8082 -1.0746  0.2496
20145SOL    HW261569   5.654   0.750   2.798 -0.0354  0.4104  3.1762
20146SOL     OW61570   6.746   4.491   8.934  0.0869  0.5856  0.0419
20146SOL    HW161571   6.837   4.490   8.906  0.2047  0.8990  0.4229
20146SOL    HW261572   6.697   4.462   8.856  0.2843  2.7680 -0.9661
20147SOL     OW61573   7.148   6.881   5.386 -0.2501 -0.8060 -0.5345
20147SOL    HW161574   7.092   6.870   5.309 -3.0759 -1.1364  1.3988
20147SOL    HW261575   7.188   6.968   5.375  1.0343 -1.6510 -3.2330
20148SOL     OW61576   4.824   1.956   8.189 -0.3873  0.7348 -0.1506
20148SOL    HW161577   4.783   1.972   8.104 -2.4542 -0.3113  0.5841
20148SOL    HW261578   4.751   1.941   8.249  1.0354  0.6808  1.6702
20149SOL     OW61579   7.943   2.969   7.625 -0.3079  0.3127  0.3654
20149SOL    HW161580   7.991   2.901   7.578 -0.0210  1.1320 -0.5404
20149SOL    HW261581   7.955   3.048   7.573 -2.0706  0.6970  0.4847
20150SOL     OW61582   4.311   6.685   3.558  0.2190  0.4190 -0.4562
20150SOL    HW161583   4.219   6.661   3.570  0.4678 -0.0894  0.4948
20150SOL    HW261584   4.360   6.607   3.582  0.8963  0.5445 -1.3764
20151SOL     OW61585   4.545   2.191   3.288 -0.2930  0.1748 -0.1105
20151SOL    HW161586   4.533   2.105   3.247 -0.4367 -0.7344  1.7178
20151SOL    HW261587   4.635   2.189   3.321 -0.4598  0.5124  0.3728
20152SOL     OW61588   1.999   3.883   8.831 -0.8028 -0.0735 -0.2196
20152SOL    HW161589   2.034   3.809   8.781  0.8114 -0.2530  1.1102
20152SOL    HW261590   2.031   3.961   8.784  0.7827 -0.2398  0.5363
20153SOL     OW61591   0.626   5.861   4.554 -0.0638 -0.0877  0.0343
20153SOL    HW161592   0.700   5.823   4.506 -0.1111  0.1876 -0.2615
20153SOL    HW261593   0.664   5.897   4.634  0.3280  1.1507 -0.6871
20154SOL     OW61594   8.005   3.204   2.586 -0.2574 -0.1920  0.0974
20154SOL    HW161595   8.056   3.225   2.664 -0.1267 -1.4916  0.3794
20154SOL    HW261596   7.942   3.276   2.579 -0.0274  0.1351  1.1911
20155SOL     OW61597   4.665   8.865   1.918 -0.5215  0.4206 -0.4725
20155SOL    HW161598   4.661   8.922   1.841  1.7768 -0.2366 -1.1575
20155SOL    HW261599   4.756   8.837   1.922 -0.6855  0.0350  2.2378
20156SOL     OW61600   5.698   2.685   1.346  0.4568 -0.2875 -0.1784
20156SOL    HW161601   5.760   2.755   1.323  0.4989 -0.2234  0.1312
20156SOL    HW261602   5.674   2.703   1.436  1.3276 -1.3181  0.2847
20157SOL     OW61603   2.719   5.119   5.626  0.1837  0.3174 -0.4931
20157SOL    HW161604   2.658   5.047   5.642 -1.0647  1.7785  1.9093
20157SOL    HW261605   2.780   5.084   5.561 -0.7703 -2.6371  0.0249
20158SOL     OW61606   2.689   2.581   4.175 -0.4355 -0.4336  0.1431
20158SOL    HW161607   2.771   2.571   4.127  0.4018  0.5136  1.3228
20158SOL    HW261608   2.639   2.503   4.152 -0.1712  0.0394 -2.3804
20159SOL     OW61609   7.755   5.545   1.826 -0.0710  0.4639 -0.1765
20159SOL    HW161610   7.730   5.507   1.742 -0.3410 -0.1395  0.1736
20159SOL    HW261611   7.697   5.620   1.837  0.9700  1.4599 -1.2222
20160SOL     OW61612   0.471   1.602   8.390  0.1665  0.0775 -0.5931
20160SOL    HW161613   0.548   1.585   8.443  2.6728  0.8790 -3.6754
20160SOL    HW261614   0.468   1.530   8.327 -1.8163 -0.0843 -0.3876
20161SOL     OW61615   1.852   5.618   3.229 -0.0715 -0.4891  0.4000
20161SOL    HW161616   1.900   5.700   3.218 -0.0244 -0.2543  2.0628
20161SOL    HW261617   1.761   5.645   3.236 -0.4107 -0.8642 -1.9173
20162SOL     OW61618   0.235   3.019   6.862 -0.1625  0.3963  0.3525
20162SOL    HW161619   0.156   2.966   6.862 -0.3966  0.7178 -0.7352
20162SOL    HW261620   0.275   3.003   6.948 -1.0563 -0.2749  0.6581
20163SOL     OW61621   7.625   2.562   2.359 -0.3110 -0.0526 -0.2432
20163SOL    HW161622   7.628   2.467   2.349 -0.6270 -0.0644 -0.2604
20163SOL    HW261623   7.612   2.595   2.269  0.9158  0.0729 -0.3934
20164SOL     OW61624   1.489   4.707   4.616  0.2511  0.2465 -0.0592
20164SOL    HW161625   1.442   4.639   4.665  1.5692 -0.3444  0.4445
20164SOL    HW261626   1.468   4.688   4.524 -0.5400  0.0446  0.1521
20165SOL     OW61627   7.618   8.563   6.589  0.3639  0.4957  0.1609
20165SOL    HW161628   7.675   8.491   6.620 -0.8021 -0.4135  0.2605
20165SOL    HW261629   7.658   8.592   6.507  2.1061  1.2595  1.2174
20166SOL     OW61630   5.393   5.274   5.869  0.2289 -0.3782 -0.4386
20166SOL    HW161631   5.389   5.300   5.777  1.8171 -1.1650 -0.7558
20166SOL    HW261632   5.472   5.317   5.902  0.3256 -1.0662  0.2379
20167SOL     OW61633   6.605   0.340   6.820 -0.5649 -0.2335 -0.5461
20167SOL    HW161634   6.517   0.309   6.797 -0.4922  0.4018 -1.7766
20167SOL    HW261635   6.664   0.275   6.782 -0.4110  1.2897 -3.1495
20168SOL     OW61636   5.759   4.920   0.508  0.9200 -0.6238 -0.1263
20168SOL    HW161637   5.844   4.962   0.525  0.1570  0.7701  0.3996
20168SOL    HW261638   5.758   4.905   0.414  2.5167 -2.4406  0.0779
20169SOL     OW61639   7.134   6.874   6.199  0.1066 -0.1360  0.4724
20169SOL    HW161640   7.140   6.816   6.123 -1.5674 -0.3120  0.4502
20169SOL    HW261641   7.182   6.953   6.173 -2.9084  1.0796 -2.0191
20170SOL     OW61642   5.055   1.302   5.143  0.0441  0.1501 -0.0393
20170SOL    HW161643   5.063   1.220   5.191  1.4907  1.1440  1.5116
20170SOL    HW261644   5.081   1.280   5.054  0.1095 -1.1185  0.2718
20171SOL     OW61645   1.567   0.194   2.636 -0.2206  0.0085  0.1158
20171SOL    HW161646   1.594   0.278   2.673 -0.2138 -0.0055  0.1427
20171SOL    HW261647   1.474   0.188   2.655 -0.6157  0.8012 -1.3952
20172SOL     OW61648   1.666   4.380   4.624 -0.3976 -0.7470  0.2651
20172SOL    HW161649   1.708   4.312   4.571  0.2037  0.1558 -0.4422
20172SOL    HW261650   1.603   4.421   4.565  1.5689  1.5267 -0.4439
20173SOL     OW61651   7.872   8.427   7.925 -0.5723 -0.3434  0.0414
20173SOL    HW161652   7.896   8.342   7.963 -0.4945 -0.4313 -0.2051
20173SOL    HW261653   7.890   8.418   7.832  1.0247  0.4990  0.2369
20174SOL     OW61654   1.790   1.517   0.255  0.1410 -0.1590  0.4955
20174SOL    HW161655   1.771   1.447   0.318  0.5347 -1.0535 -0.3594
20174SOL    HW261656   1.882   1.538   0.270  1.0093 -2.1575 -1.4270
20175SOL     OW61657   6.404   7.269   7.338 -0.6175 -0.3074  0.4162
20175SOL    HW161658   6.363   7.236   7.418 -1.7173 -1.2216 -0.4900
20175SOL    HW261659   6.485   7.310   7.368 -0.7840 -1.0213  1.9540
20176SOL     OW61660   0.212   6.669   5.149  0.5810  0.4340  0.5427
20176SOL    HW161661   0.137   6.648   5.093  2.4510  1.4097 -2.5918
20176SOL    HW261662   0.262   6.588   5.153  0.9301  0.6158 -0.0434
20177SOL     OW61663   2.726   3.108   8.949 -0.1247 -0.3679  0.0759
20177SOL    HW161664   2.739   3.032   9.007 -0.2039 -0.2985  0.1840
20177SOL    HW261665   2.639   3.096   8.912 -0.7639  0.4489  1.2560
20178SOL     OW61666   7.627   5.436   3.156 -0.5628 -0.1282 -0.3869
20178SOL    HW161667   7.572   5.514   3.158 -1.3575 -0.6694 -0.6629
20178SOL    HW261668   7.699   5.459   3.098 -0.5544  0.5537 -0.1088
20179SOL     OW61669   2.351   4.974   8.027 -0.5122  0.5066 -0.3190
20179SOL    HW161670   2.405   4.923   8.089  0.9763  2.9120  0.4977
20179SOL    HW261671   2.262   4.942   8.041  0.0343 -0.2561  1.8150
20180SOL     OW61672   4.625   1.087   3.720  0.3975 -0.6435 -0.1073
20180SOL    HW161673   4.707   1.074   3.672 -0.2329 -0.0383 -1.3975
20180SOL    HW261674   4.631   1.175   3.755  0.0607 -0.3758 -0.7093
20181SOL     OW61675   5.660   7.047   3.231 -0.3629 -0.0324  0.5347
20181SOL    HW161676   5.693   7.137   3.222  0.1717 -0.3494 -1.0068
20181SOL    HW261677   5.708   7.012   3.306 -0.6375  0.9813  1.2062
20182SOL     OW61678   8.643   7.913   0.255 -0.2053  0.6937 -0.1711
20182SOL    HW161679   8.594   7.963   0.321 -1.6480  0.1058 -0.7586
20182SOL    HW261680   8.727   7.895   0.297 -0.1832  2.3586  0.6067
20183SOL     OW61681   4.060   6.765   8.959 -0.3000  0.4988 -0.6436
20183SOL    HW161682   3.989   6.736   8.901  0.1877 -0.5861 -0.7178
20183SOL    HW261683   4.137   6.719   8.927  0.3613  1.3557 -0.3064
20184SOL     OW61684   3.166   3.649   7.586 -0.3140  0.2559  0.3618
20184SOL    HW161685   3.106   3.697   7.530 -0.1032  0.8851  0.6646
20184SOL    HW261686   3.115   3.575   7.620  0.1100 -1.3613 -2.2498
20185SOL     OW61687   5.193   0.846   2.125 -0.3537 -0.3791 -0.0506
20185SOL    HW161688   5.176   0.917   2.186  1.1160 -0.9488  1.1044
20185SOL    HW261689   5.146   0.870   2.046  1.0502  2.4879 -0.1435
20186SOL     OW61690   0.487   9.097   8.335 -0.4042  0.1221  0.8570
20186SOL    HW161691   0.538   9.018   8.354  0.8108  1.1276  2.0131
20186SOL    HW261692   0.397   9.066   8.324 -0.3864 -1.1886  3.6442
20187SOL     OW61693   4.130   1.779   7.175  0.2831 -0.6117 -0.1175
20187SOL    HW161694   4.158   1.786   7.266 -1.9420  0.9172  0.5245
20187SOL    HW261695   4.077   1.700   7.171  2.4735 -2.1730 -0.7961
20188SOL     OW61696   7.912   1.649   2.506 -0.2010  0.0884 -0.8892
20188SOL    HW161697   8.002   1.622   2.485 -0.3593  0.9263 -2.8588
20188SOL    HW261698   7.859   1.610   2.437 -0.8334  2.6508 -1.9562
20189SOL     OW61699   6.042   5.155   7.451  0.4934 -0.3975  0.0681
20189SOL    HW161700   6.116   5.148   7.511  0.0029 -0.6701  0.6442
20189SOL    HW261701   5.969   5.115   7.497  0.3176 -1.4473 -1.0750
20190SOL     OW61702   0.747   0.096   8.661 -0.2637  0.1525  0.1602
20190SOL    HW161703   0.682   0.166   8.659 -0.8256 -0.3689 -1.1443
20190SOL    HW261704   0.698   0.017   8.638  0.6499 -0.4038  0.0822
20191SOL     OW61705   7.770   3.993   2.404 -0.1701  0.1928  0.0020
20191SOL    HW161706   7.683   3.955   2.394  0.7326 -1.8176 -0.8431
20191SOL    HW261707   7.801   4.005   2.314  1.5584 -2.0544  0.2113
20192SOL     OW61708   8.238   5.555   2.597  0.1148 -0.4223  0.1962
20192SOL    HW161709   8.160   5.608   2.617  0.3533  0.8857 -1.9854
20192SOL    HW261710   8.310   5.603   2.637 -0.0741 -1.1678  1.4693
20193SOL     OW61711   2.413   9.112   6.865  0.1734  0.2633 -0.2103
20193SOL    HW161712   2.472   9.126   6.938  0.1213 -0.5626  0.0044
20193SOL    HW261713   2.346   9.053   6.900 -0.8579  1.2881 -0.4038
20194SOL     OW61714   7.571   6.730   6.171 -0.0847  0.5034  0.5466
20194SOL    HW161715   7.559   6.637   6.185  1.0272  0.3865  0.8474
20194SOL    HW261716   7.609   6.763   6.253  0.1239  1.0930  0.2248
20195SOL     OW61717   7.623   5.219   3.942 -0.1666  0.1448 -0.2577
20195SOL    HW161718   7.705   5.260   3.969 -1.1655 -0.1729  3.9086
20195SOL    HW261719   7.613   5.144   4.001 -3.8322  0.6854  0.0691
20196SOL     OW61720   7.155   8.638   4.415  0.3817 -0.0445 -0.1087
20196SOL    HW161721   7.080   8.588   4.447  0.2769  0.1746 -0.0151
20196SOL    HW261722   7.214   8.572   4.380  0.2145 -0.2302 -0.0404
20197SOL     OW61723   5.026   5.939   5.596  0.2976  0.1509 -0.3294
20197SOL    HW161724   4.951   5.963   5.650 -0.3408 -2.0793 -0.1123
20197SOL    HW261725   5.092   6.006   5.613 -0.2826  0.1089  2.4104
20198SOL     OW61726   3.916   3.013   0.313  0.2784  0.2697  0.1441
20198SOL    HW161727   3.965   2.984   0.391 -0.9114  2.6693  1.9219
20198SOL    HW261728   3.983   3.044   0.253  1.1275  0.3159  1.0838
20199SOL     OW61729   0.937   7.125   1.130  0.5549  0.0368 -0.0110
20199SOL    HW161730   0.899   7.118   1.043 -0.8292  1.2629  0.4665
20199SOL    HW261731   1.030   7.108   1.117  0.1334 -1.4633 -1.4548
20200SOL     OW61732   2.411   4.394   1.446 -0.5297 -0.1501  0.1922
20200SOL    HW161733   2.414   4.321   1.508  1.2821 -0.2063  0.0865
20200SOL    HW261734   2.398   4.472   1.502 -0.9568 -0.3871  0.4348
20201SOL     OW61735   6.368   1.234   8.466  0.1423 -0.0753 -0.3587
20201SOL    HW161736   6.385   1.266   8.378 -0.4084  2.1309  0.2788
20201SOL    HW261737   6.439   1.271   8.519 -1.5672  1.8259  0.7396
20202SOL     OW61738   5.806   7.599   8.182  0.5922 -0.7118 -0.0196
20202SOL    HW161739   5.877   7.631   8.238  0.6676 -2.6430  1.0812
20202SOL    HW261740   5.772   7.523   8.229 -0.4635 -1.3920 -1.8195
20203SOL     OW61741   6.193   1.213   1.321  0.9014  0.3199  0.0130
20203SOL    HW161742   6.227   1.213   1.410  0.4607  2.3202  0.2132
20203SOL    HW261743   6.262   1.173   1.269  2.0369  1.0042  0.9593
20204SOL     OW61744   0.041   5.814   5.237  0.1486 -0.0269 -0.7821
20204SOL    HW161745   0.079   5.860   5.162 -0.3995 -1.1583 -1.8015
20204SOL    HW261746   0.066   5.722   5.223 -1.0818 -0.4527 -0.2988
20205SOL     OW61747   6.042   4.356   0.695 -0.7360  0.2640  0.5167
20205SOL    HW161748   5.973   4.302   0.655 -1.6853  1.1443  0.9131
20205SOL    HW261749   6.124   4.312   0.672 -1.0723  1.3116 -3.4168
20206SOL     OW61750   7.364   6.910   5.889 -0.0932 -0.4321  0.0025
20206SOL    HW161751   7.363   6.972   5.816 -0.3255  0.3598  0.6606
20206SOL    HW261752   7.363   6.966   5.967 -0.7338 -1.2736  0.6108
20207SOL     OW61753   1.483   5.715   7.023 -0.0063 -0.1523  0.1008
20207SOL    HW161754   1.459   5.733   7.114  0.2196 -0.7735  0.2880
20207SOL    HW261755   1.499   5.801   6.985 -1.0429  0.1757  0.3850
20208SOL     OW61756   4.353   8.515   2.910  0.2032 -0.1573 -0.4150
20208SOL    HW161757   4.392   8.515   2.823  2.0553  1.0123  0.3472
20208SOL    HW261758   4.297   8.593   2.911 -1.6632 -1.4219 -1.2588
20209SOL     OW61759   3.297   6.867   6.672 -0.4158 -0.4721 -0.6713
20209SOL    HW161760   3.391   6.874   6.690  0.2413 -1.2424 -3.3246
20209SOL    HW261761   3.278   6.940   6.613 -2.0209  0.9038  1.3966
20210SOL     OW61762   3.557   2.699   8.424 -0.2251 -0.1582 -0.5449
20210SOL    HW161763   3.613   2.640   8.475 -1.9461 -0.7980  0.6945
20210SOL    HW261764   3.610   2.722   8.347  1.5540 -1.0468  0.3633
20211SOL     OW61765   7.188   0.655   5.037  0.2883 -0.2268 -0.3017
20211SOL    HW161766   7.158   0.567   5.012  0.4749 -0.0449 -1.2185
20211SOL    HW261767   7.107   0.704   5.051  0.1742 -0.8769  1.5253
20212SOL     OW61768   7.591   0.190   6.599 -0.2781  0.1859 -0.2863
20212SOL    HW161769   7.588   0.274   6.643  0.0948 -0.8437  1.8242
20212SOL    HW261770   7.501   0.159   6.601 -0.4084  0.5043 -1.0285
20213SOL     OW61771   3.831   8.068   8.282  0.0783  0.4455  0.3670
20213SOL    HW161772   3.877   8.054   8.199 -1.2520 -1.5572 -0.1121
20213SOL    HW261773   3.901   8.085   8.346  1.5981 -2.6543 -0.2920
20214SOL     OW61774   0.842   1.210   0.221  0.1863  0.6968  0.4802
20214SOL    HW161775   0.898   1.276   0.263  0.7516  1.0429 -0.7545
20214SOL    HW261776   0.800   1.257   0.149  0.0989 -0.1349 -0.0207
20215SOL     OW61777   1.710   1.206   8.654  0.4369  0.1074 -0.0531
20215SOL    HW161778   1.615   1.210   8.642  0.3853 -0.4682  0.1253
20215SOL    HW261779   1.745   1.258   8.582  0.0001 -0.0259 -0.3705
20216SOL     OW61780   8.197   1.156   0.062  0.3864 -0.0352  0.0245
20216SOL    HW161781   8.192   1.252   0.070 -0.0552 -0.1968  2.4020
20216SOL    HW261782   8.108   1.126   0.081  0.6745 -0.9438 -0.0239
20217SOL     OW61783   6.403   4.873   6.663 -0.5812  0.5242  0.6147
20217SOL    HW161784   6.345   4.812   6.617  0.9241  0.0174 -0.7081
20217SOL    HW261785   6.367   4.959   6.645 -1.3852  0.1734  0.5087
20218SOL     OW61786   8.920   3.256   2.207  0.0330 -1.0030 -0.3420
20218SOL    HW161787   8.895   3.334   2.258  0.3077 -0.7523 -0.5853
20218SOL    HW261788   8.963   3.292   2.129  2.9885 -1.3989  0.9644
20219SOL     OW61789   1.659   0.473   6.434 -0.1042 -0.0252 -0.1043
20219SOL    HW161790   1.568   0.497   6.449  0.0759  0.1109  0.8177
20219SOL    HW261791   1.661   0.377   6.445 -0.5453 -0.3588 -2.3627
20220SOL     OW61792   1.578   1.560   5.106  0.5947 -0.4400 -0.3709
20220SOL    HW161793   1.595   1.592   5.017  0.6930 -0.1535 -0.2499
20220SOL    HW261794   1.553   1.468   5.094  2.7254 -1.0433 -0.5300
20221SOL     OW61795   3.792   6.925   1.400  0.0109  0.1248  0.3364
20221SOL    HW161796   3.707   6.964   1.379 -0.7652 -0.5101  2.0820
20221SOL    HW261797   3.810   6.867   1.327  0.0323  1.8738 -1.1310
20222SOL     OW61798   0.880   0.945   0.192 -0.8984  0.0278 -0.1349
20222SOL    HW161799   0.879   0.924   0.285 -0.7423  0.3234 -0.0653
20222SOL    HW261800   0.871   1.040   0.189 -0.4435  0.0618 -0.4054
20223SOL     OW61801   2.904   7.897   2.160  0.0790 -0.1893 -0.1315
20223SOL    HW161802   2.922   7.977   2.110  1.4965 -1.3138 -1.5197
20223SOL    HW261803   2.923   7.921   2.251 -0.6080  1.3420 -0.3592
20224SOL     OW61804   1.723   8.086   2.965 -0.5624  0.1892  0.2416
20224SOL    HW161805   1.671   8.022   2.915 -1.2141  0.3146  0.7416
20224SOL    HW261806   1.675   8.169   2.954 -0.3811  0.3399  0.5811
20225SOL     OW61807   7.662   8.126   6.551 -0.7048  0.0264 -0.2207
20225SOL    HW161808   7.659   8.103   6.644  0.1116 -1.1002 -0.4535
20225SOL    HW261809   7.616   8.210   6.546  0.3615  0.7560  1.3910
20226SOL     OW61810   7.178   4.019   6.041  0.2673  0.6386  0.2280
20226SOL    HW161811   7.175   3.929   6.075  0.4679  0.7847  0.6371
20226SOL    HW261812   7.270   4.044   6.047  0.1957  0.9107  0.2138
20227SOL     OW61813   1.982   7.457   4.332  0.4752  0.1263 -0.4479
20227SOL    HW161814   1.964   7.363   4.335  3.8971 -0.6393  2.1866
20227SOL    HW261815   2.015   7.472   4.244  1.0267 -1.4165 -0.5308
20228SOL     OW61816   7.713   5.749   4.091 -0.4084 -0.0597  0.2903
20228SOL    HW161817   7.643   5.726   4.031  0.4660  1.0056 -1.2200
20228SOL    HW261818   7.676   5.818   4.147 -0.7154  0.1678 -0.1939
20229SOL     OW61819   1.369   3.542   4.450 -0.3205  0.4354 -0.2334
20229SOL    HW161820   1.330   3.587   4.375 -1.4738 -1.2327 -0.7058
20229SOL    HW261821   1.322   3.577   4.526 -2.9732 -1.5463 -0.7877
20230SOL     OW61822   8.930   3.093   3.968 -1.0617  0.5626  0.7997
20230SOL    HW161823   9.008   3.096   4.023 -0.6631 -2.0909  0.5223
20230SOL    HW261824   8.857   3.106   4.028 -0.5153  0.5580  1.4743
20231SOL     OW61825   0.693   6.353   7.119 -0.1502  0.1531 -0.1127
20231SOL    HW161826   0.717   6.360   7.027 -0.9674 -0.0833 -0.3578
20231SOL    HW261827   0.599   6.332   7.117 -0.2293  0.3872  0.7737
20232SOL     OW61828   6.915   0.702   0.452  0.3028 -0.7626 -0.5643
20232SOL    HW161829   6.847   0.644   0.488  1.1251 -1.9895 -0.9265
20232SOL    HW261830   6.997   0.653   0.463  0.8475 -0.2817 -2.1907
20233SOL     OW61831   7.841   6.905   6.794 -0.1104 -0.4737  0.0003
20233SOL    HW161832   7.839   6.925   6.888  1.1520  1.9158 -0.4074
20233SOL    HW261833   7.889   6.822   6.789  2.1586  0.6564  1.3616
20234SOL     OW61834   2.106   6.524   5.946  0.1736 -0.5502 -0.0145
20234SOL    HW161835   2.068   6.456   6.001 -0.2021 -1.4694 -1.3631
20234SOL    HW261836   2.168   6.570   6.003  1.6103 -3.0085  0.5256
20235SOL     OW61837   6.316   4.913   5.730 -0.0220 -0.3187 -0.5031
20235SOL    HW161838   6.223   4.929   5.744  0.3748  1.8384  0.0066
20235SOL    HW261839   6.329   4.921   5.636 -0.0547  1.4271 -0.3874
20236SOL     OW61840   1.988   5.875   3.269 -0.1255  0.0251  0.5876
20236SOL    HW161841   2.040   5.875   3.189 -0.7604  2.2650  0.1243
20236SOL    HW261842   2.029   5.941   3.324  0.5289 -1.7299  2.3498
20237SOL     OW61843   1.374   6.433   2.991  0.4384 -0.3113  0.4449
20237SOL    HW161844   1.343   6.394   2.910  0.4918  0.8527 -0.1528
20237SOL    HW261845   1.381   6.527   2.972  0.7892 -0.0652  1.6819
20238SOL     OW61846   6.709   4.537   3.977  0.5968  0.3661 -0.6700
20238SOL    HW161847   6.796   4.498   3.975  1.1017  1.3584  0.4648
20238SOL    HW261848   6.724   4.628   4.002 -0.8247  0.3509  0.3832
20239SOL     OW61849   2.884   6.933   8.477 -0.2835  0.1444  0.0304
20239SOL    HW161850   2.816   6.898   8.420  0.9502 -0.1574 -1.2889
20239SOL    HW261851   2.923   7.005   8.427 -0.9937  1.7396  1.6253
20240SOL     OW61852   5.820   8.283   8.861 -0.6450 -0.4753  0.0382
20240SOL    HW161853   5.840   8.195   8.893 -2.7110 -1.5267 -1.3552
20240SOL    HW261854   5.902   8.313   8.821  0.0296 -1.8554  0.3148
20241SOL     OW61855   0.374   8.428   2.405  0.4133 -0.4508 -0.1014
20241SOL    HW161856   0.288   8.387   2.418  0.5666 -1.2674 -1.5167
20241SOL    HW261857   0.432   8.355   2.385  0.5351  0.4142 -3.5462
20242SOL     OW61858   7.653   6.629   2.464 -0.3966  0.0920  0.0521
20242SOL    HW161859   7.650   6.538   2.494  2.0915 -0.0625  0.0772
20242SOL    HW261860   7.592   6.632   2.390 -1.7384 -1.1553  1.0616
20243SOL     OW61861   2.752   7.316   6.350  0.0923  0.4181  0.1606
20243SOL    HW161862   2.755   7.265   6.432 -2.6902  0.1410  0.1608
20243SOL    HW261863   2.742   7.250   6.282  1.4385  0.7190 -0.3654
20244SOL     OW61864   4.617   4.922   6.085 -0.0755 -0.5159 -0.2862
20244SOL    HW161865   4.684   4.938   6.018 -1.9774 -0.5609 -2.3044
20244SOL    HW261866   4.645   4.842   6.129  1.5838 -0.0983 -0.4939
20245SOL     OW61867   8.695   8.301   0.391 -1.0392 -0.4225  0.0506
20245SOL    HW161868   8.762   8.300   0.322 -1.3989  0.5585 -0.3350
20245SOL    HW261869   8.640   8.225   0.373 -0.6594 -0.6271 -0.2603
20246SOL     OW61870   5.507   7.479   8.545  0.2837 -0.3015  0.4403
20246SOL    HW161871   5.463   7.405   8.503  1.8019 -1.3147  0.5536
20246SOL    HW261872   5.480   7.473   8.637  0.8972 -1.1099  0.5761
20247SOL     OW61873   6.576   4.462   1.398 -0.4318  0.4164  0.4526
20247SOL    HW161874   6.483   4.476   1.417 -0.4649  0.1420  0.5003
20247SOL    HW261875   6.590   4.369   1.416 -0.5171  0.0790 -1.0725
20248SOL     OW61876   1.584   2.798   6.775  0.4335  0.0876 -0.1290
20248SOL    HW161877   1.508   2.811   6.831  0.0414  1.1979 -0.8892
20248SOL    HW261878   1.556   2.828   6.689  0.9667 -1.7602 -0.9973
20249SOL     OW61879   5.404   7.920   5.608 -0.0807  0.1362  0.1718
20249SOL    HW161880   5.448   7.929   5.692  2.0915 -1.4466 -0.7152
20249SOL    HW261881   5.365   7.833   5.610 -0.0965  0.1230 -0.3993
20250SOL     OW61882   4.856   6.747   3.459 -0.4427  0.4171 -0.3491
20250SOL    HW161883   4.838   6.708   3.544  0.3601 -1.3711 -0.9443
20250SOL    HW261884   4.951   6.752   3.454 -0.4915  0.9895 -0.9393
20251SOL     OW61885   6.411   7.051   3.019  0.1601 -0.8635 -0.0283
20251SOL    HW161886   6.360   7.115   2.969  2.4671  1.4227  0.3370
20251SOL    HW261887   6.364   7.044   3.103  0.9971  2.2382  0.8393
20252SOL     OW61888   4.659   3.607   5.490 -0.2844 -0.2071  0.5472
20252SOL    HW161889   4.581   3.652   5.456 -0.3852  0.6201  1.8033
20252SOL    HW261890   4.625   3.547   5.556  0.0453 -0.7679  0.2175
20253SOL     OW61891   3.732   0.426   5.587 -0.3802 -0.4910 -0.4289
20253SOL    HW161892   3.702   0.427   5.678  0.4644  0.2986 -0.1495
20253SOL    HW261893   3.697   0.345   5.551  1.8620 -2.4526  1.4887
20254SOL     OW61894   2.418   7.278   7.059  0.3511  0.0856  0.2488
20254SOL    HW161895   2.401   7.192   7.020  1.7266  0.3317 -0.9496
20254SOL    HW261896   2.355   7.336   7.017 -0.3253 -0.2374  0.7831
20255SOL     OW61897   3.689   2.358   3.265  0.4436  0.2120  0.4192
20255SOL    HW161898   3.604   2.371   3.223  0.6495  1.5274  0.3797
20255SOL    HW261899   3.743   2.431   3.235  1.0440  0.3878  1.8411
20256SOL     OW61900   6.321   2.716   1.318  0.3705 -0.2207 -0.0933
20256SOL    HW161901   6.308   2.647   1.253 -2.1266  0.3878 -0.3277
20256SOL    HW261902   6.274   2.685   1.395 -0.2983  0.9435 -0.0147
20257SOL     OW61903   6.726   8.149   7.382 -0.1044  0.4190  0.2702
20257SOL    HW161904   6.658   8.211   7.407  0.3898  0.3424  1.9347
20257SOL    HW261905   6.678   8.069   7.359 -0.6737  1.0314 -0.7704
20258SOL     OW61906   4.961   1.339   0.568  0.2764 -0.1985  0.0133
20258SOL    HW161907   4.941   1.388   0.488 -0.2536  0.1616  0.3595
20258SOL    HW261908   4.908   1.260   0.562 -0.6972  0.3959  0.5687
20259SOL     OW61909   4.941   9.020   2.217 -0.9561 -0.3020  0.2662
20259SOL    HW161910   4.924   9.084   2.287  1.7400  1.9336 -0.9109
20259SOL    HW261911   5.023   8.978   2.242 -0.5922 -0.3528 -0.9294
20260SOL     OW61912   8.997   8.388   2.363  0.5690 -0.5752 -0.0813
20260SOL    HW161913   8.971   8.383   2.271 -1.2470  2.6731  0.1096
20260SOL    HW261914   8.925   8.348   2.411  0.9081 -1.0702  0.0301
20261SOL     OW61915   4.740   5.758   3.300 -0.7347 -0.7819 -0.8834
20261SOL    HW161916   4.645   5.761   3.306 -0.8313  1.0311 -2.4953
20261SOL    HW261917   4.769   5.845   3.328  0.2101 -0.3305 -3.0382
20262SOL     OW61918   5.195   4.216   7.676 -0.0342  0.5827  0.5720
20262SOL    HW161919   5.220   4.267   7.599 -0.7932 -0.7324 -0.5983
20262SOL    HW261920   5.236   4.131   7.662 -0.3730  0.2598  1.5223
20263SOL     OW61921   6.471   1.511   2.845  0.0462 -0.0800 -0.7557
20263SOL    HW161922   6.559   1.513   2.884  1.0249 -0.3700 -2.8539
20263SOL    HW261923   6.413   1.500   2.920  1.8566 -0.9651  0.5999
20264SOL     OW61924   1.505   6.078   3.219  0.6005 -0.3000  0.2464
20264SOL    HW161925   1.598   6.097   3.208  0.6594 -1.6889 -2.5591
20264SOL    HW261926   1.466   6.096   3.133 -1.7190  0.0011  1.2640
20265SOL     OW61927   4.387   1.334   1.459  0.6036  0.4610 -0.4313
20265SOL    HW161928   4.472   1.326   1.417  0.9706  0.4718  0.2949
20265SOL    HW261929   4.330   1.274   1.410  0.9144  0.7851 -1.1949
20266SOL     OW61930   4.714   8.747   5.778 -0.0986  0.2104 -0.3093
20266SOL    HW161931   4.727   8.724   5.870 -0.6234  0.3604 -0.1905
20266SOL    HW261932   4.797   8.785   5.750 -0.0078  0.3689  0.1698
20267SOL     OW61933   9.096   0.543   1.490  0.0574  0.2185  0.0800
20267SOL    HW161934   9.118   0.637   1.488 -0.0060  0.2257 -0.7302
20267SOL    HW261935   9.062   0.528   1.578  0.1279  0.9470  0.2372
20268SOL     OW61936   4.077   1.320   2.363 -0.8556  0.3078  0.0730
20268SOL    HW161937   4.003   1.299   2.306 -0.1405 -1.6562 -0.2110
20268SOL    HW261938   4.039   1.323   2.451 -1.5248  0.8332 -0.2270
20269SOL     OW61939   8.285   8.752   7.456  0.3308  0.1075  0.1183
20269SOL    HW161940   8.248   8.840   7.447 -1.6186 -0.6786  0.0328
20269SOL    HW261941   8.270   8.711   7.371  1.0217 -0.3939  0.2329
20270SOL     OW61942   7.975   3.196   7.458 -0.0444 -0.1527 -0.2282
20270SOL    HW161943   7.917   3.264   7.424  0.0734  0.1322  0.1267
20270SOL    HW261944   8.054   3.203   7.405 -0.5900 -1.0227 -1.1983
20271SOL     OW61945   0.932   8.125   2.899 -0.1688  0.5117  0.0500
20271SOL    HW161946   0.948   8.059   2.966  0.8171  0.1992 -0.4793
20271SOL    HW261947   1.015   8.132   2.851 -0.7554  0.9588 -0.9317
20272SOL     OW61948   8.566   5.167   0.485 -0.2760 -0.8178 -0.4351
20272SOL    HW161949   8.549   5.253   0.447  1.3709  0.2822  1.1050
20272SOL    HW261950   8.654   5.175   0.522 -0.9640 -2.4290  1.7578
20273SOL     OW61951   8.706   5.663   5.097 -0.2102 -0.3924  0.3562
20273SOL    HW161952   8.790   5.645   5.055  0.1597 -1.1185  1.3658
20273SOL    HW261953   8.648   5.593   5.067  0.2369 -1.2920  1.5255
20274SOL     OW61954   6.148   5.269   0.858 -0.1999  0.3138 -0.5794
20274SOL    HW161955   6.174   5.325   0.932  0.0158 -2.2853  1.4552
20274SOL    HW261956   6.070   5.223   0.889  0.6095 -1.7536 -1.4310
20275SOL     OW61957   7.281   8.417   0.544  0.0200  0.1625 -0.2723
20275SOL    HW161958   7.248   8.377   0.625 -0.3256 -1.7687 -1.3053
20275SOL    HW261959   7.307   8.505   0.570 -4.7121  1.4727  0.9601
20276SOL     OW61960   8.446   0.590   1.297 -0.5512 -0.0468  0.2285
20276SOL    HW161961   8.431   0.661   1.359 -2.0577  1.1293 -1.3886
20276SOL    HW261962   8.474   0.634   1.217 -1.8292 -1.2149 -0.9080
20277SOL     OW61963   1.995   4.833   8.756 -0.2170  0.0442 -0.1324
20277SOL    HW161964   2.034   4.752   8.723 -0.5178  0.0724 -0.5546
20277SOL    HW261965   2.068   4.894   8.764 -0.0644 -0.1248 -0.2481
20278SOL     OW61966   3.647   6.919   7.906  0.3086 -0.1011 -0.0480
20278SOL    HW161967   3.622   6.884   7.821  3.0865  0.3188 -1.1495
20278SOL    HW261968   3.688   7.003   7.886 -0.9940  1.1116  1.9751
20279SOL     OW61969   2.643   3.182   3.345  0.1287 -0.2299 -0.2664
20279SOL    HW161970   2.601   3.265   3.322  0.1916 -0.1020  0.0708
20279SOL    HW261971   2.634   3.176   3.440 -2.4833 -1.9923 -0.5174
20280SOL     OW61972   4.191   0.429   8.185 -0.2365  0.1038  0.0628
20280SOL    HW161973   4.282   0.413   8.211 -0.1319  1.8478  0.9067
20280SOL    HW261974   4.145   0.446   8.267 -1.0372  0.5587 -0.4734
20281SOL     OW61975   7.923   8.152   4.807  0.0742 -0.3980 -0.2944
20281SOL    HW161976   7.960   8.092   4.872  0.6414 -0.7030 -0.8928
20281SOL    HW261977   7.883   8.096   4.741  0.2700 -0.1168 -0.6583
20282SOL     OW61978   3.439   6.911   3.395  0.3107 -0.0448 -0.1042
20282SOL    HW161979   3.380   6.876   3.462 -2.5713  0.5479 -2.1570
20282SOL    HW261980   3.399   6.994   3.370  1.6430  0.0460 -2.0883
20283SOL     OW61981   8.635   5.227   6.408  0.1438  0.2350  0.0396
20283SOL    HW161982   8.589   5.287   6.350  1.2967  0.8771 -0.2487
20283SOL    HW261983   8.610   5.254   6.496  0.1593  0.7278 -0.1074
20284SOL     OW61984   2.913   7.145   6.989 -0.2388  0.4854  0.1125
20284SOL    HW161985   2.979   7.209   6.960  0.9387  0.6728  2.9330
20284SOL    HW261986   2.831   7.195   6.990  0.3811  1.5370  0.7326
20285SOL     OW61987   0.232   1.810   5.661  0.3580  0.0282 -0.1674
20285SOL    HW161988   0.295   1.837   5.594 -0.6879  1.4670 -0.6179
20285SOL    HW261989   0.175   1.747   5.617  0.9524 -0.6376  0.0003
20286SOL     OW61990   7.765   1.820   3.028  0.0798  0.1530  0.2874
20286SOL    HW161991   7.782   1.911   3.005 -1.2331  0.1058 -1.0574
20286SOL    HW261992   7.847   1.774   3.009  0.1638  0.7560 -0.8668
20287SOL     OW61993   1.682   5.668   5.033  0.0524  0.1237 -0.1228
20287SOL    HW161994   1.656   5.625   5.114  1.9303  1.2851  1.1981
20287SOL    HW261995   1.778   5.667   5.035  0.1646  2.2489 -1.1594
20288SOL     OW61996   3.752   8.854   4.835  0.2984 -0.2535  0.2314
20288SOL    HW161997   3.839   8.894   4.840 -0.0451  0.3341  1.9003
20288SOL    HW261998   3.769   8.760   4.837  1.0154 -0.2542 -2.1987
20289SOL     OW61999   1.566   1.657   0.494 -0.2920  0.4815 -0.1016
20289SOL    HW162000   1.569   1.584   0.432 -2.4165 -0.5910  0.9542
20289SOL    HW262001   1.491   1.710   0.466  1.7831  2.9591 -1.4547
20290SOL     OW62002   0.262   5.074   4.034  0.7519  0.4304 -0.3197
20290SOL    HW162003   0.287   5.166   4.028 -0.1206  0.6726 -0.4039
20290SOL    HW262004   0.323   5.028   3.976  3.6788  0.3909  2.5445
20291SOL     OW62005   9.075   8.676   2.279 -0.2782 -0.1996  0.1168
20291SOL    HW162006   8.988   8.681   2.240 -1.3686 -1.4399  2.2227
20291SOL    HW262007   9.114   8.597   2.240  0.1835  0.6695 -1.2579
20292SOL     OW62008   7.315   4.442   0.927 -0.8412  0.1257 -0.3029
20292SOL    HW162009   7.302   4.513   0.864 -2.4800 -1.7892 -2.2670
20292SOL    HW262010   7.255   4.464   0.999 -0.9445  0.9756 -0.6294
20293SOL     OW62011   5.666   4.293   4.008  0.3822  0.0995  0.0326
20293SOL    HW162012   5.640   4.319   3.920  1.9164  0.6802 -0.2900
20293SOL    HW262013   5.650   4.199   4.012 -1.2331  0.3337 -0.2758
20294SOL     OW62014   5.077   4.543   4.507 -0.1389 -0.4326  0.2093
20294SOL    HW162015   5.147   4.508   4.561 -0.3996 -1.8573 -0.3076
20294SOL    HW262016   4.997   4.520   4.553 -0.3235  2.5772  1.6151
20295SOL     OW62017   0.559   6.020   4.351  0.1708 -0.2528 -0.1441
20295SOL    HW162018   0.545   5.963   4.427  0.2530 -1.2159 -0.8229
20295SOL    HW262019   0.615   6.090   4.383  1.7619 -1.6480  0.2599
20296SOL     OW62020   2.213   4.558   3.819  0.4284  0.1918 -0.3810
20296SOL    HW162021   2.260   4.513   3.749  0.6673  1.5967 -1.1742
20296SOL    HW262022   2.278   4.615   3.859  0.1887 -0.3081  0.7403
20297SOL     OW62023   7.957   0.294   5.157 -0.0715 -0.3537  0.1039
20297SOL    HW162024   7.874   0.267   5.196 -1.3786  0.5639 -1.9107
20297SOL    HW262025   7.989   0.215   5.113 -0.6335 -0.3617 -0.3146
20298SOL     OW62026   0.246   2.503   1.220 -0.1134  0.1132  0.0844
20298SOL    HW162027   0.260   2.568   1.289  0.1771 -2.6170  2.8150
20298SOL    HW262028   0.152   2.507   1.202 -0.5352 -0.3194  2.0198
20299SOL     OW62029   5.039   7.506   5.193 -0.2656 -0.1297 -0.0323
20299SOL    HW162030   5.086   7.496   5.276  0.0881 -0.5095 -0.2737
20299SOL    HW262031   5.078   7.440   5.135 -1.7765 -1.1460  0.0560
20300SOL     OW62032   5.802   0.603   5.131 -0.2019 -0.2604 -0.1115
20300SOL    HW162033   5.831   0.693   5.113  0.3894 -0.7316 -1.6498
20300SOL    HW262034   5.745   0.612   5.207 -0.2044  1.4297 -0.2592
20301SOL     OW62035   5.210   6.032   0.356  0.2116 -0.0441 -0.6396
20301SOL    HW162036   5.133   5.976   0.368  1.8699 -2.4172 -0.3708
20301SOL    HW262037   5.221   6.076   0.440  0.6551 -1.7990  0.2766
20302SOL     OW62038   5.133   1.190   8.661  0.3562 -0.6035 -0.9028
20302SOL    HW162039   5.193   1.214   8.732 -0.2017 -1.7077 -0.0296
20302SOL    HW262040   5.140   1.262   8.599  0.0234  0.9763  0.7995
20303SOL     OW62041   5.186   1.584   6.467  0.1576 -0.1180  0.7882
20303SOL    HW162042   5.244   1.509   6.472  0.3340 -0.2560 -1.9407
20303SOL    HW262043   5.243   1.657   6.441 -0.2977  0.6116  1.7594
20304SOL     OW62044   7.269   1.791   5.985 -0.2107 -0.1550 -0.4636
20304SOL    HW162045   7.248   1.764   6.075 -3.3903  1.4659 -0.5809
20304SOL    HW262046   7.364   1.778   5.978 -0.1336 -2.2392  2.4202
20305SOL     OW62047   2.710   4.279   5.514 -0.2896 -0.1729  0.0295
20305SOL    HW162048   2.725   4.356   5.568 -1.4733 -0.8934  1.4666
20305SOL    HW262049   2.654   4.222   5.568 -0.2770 -1.5940 -1.3721
20306SOL     OW62050   7.207   4.619   4.032  0.0273  0.0930 -0.1360
20306SOL    HW162051   7.218   4.555   3.962  0.4384  0.2776 -0.2384
20306SOL    HW262052   7.290   4.619   4.079 -1.0424 -1.9711  2.0092
20307SOL     OW62053   6.487   0.794   5.517 -0.4476  0.5244 -0.0593
20307SOL    HW162054   6.498   0.829   5.429  2.5873 -1.4890 -0.6075
20307SOL    HW262055   6.479   0.699   5.505  1.2910  0.0578  1.8312
20308SOL     OW62056   8.147   0.540   0.846 -0.0553 -0.7812  0.2506
20308SOL    HW162057   8.067   0.588   0.870  0.0398 -1.6452  2.5310
20308SOL    HW262058   8.123   0.448   0.853  1.0822 -1.0519  0.8058
20309SOL     OW62059   6.724   1.659   6.037 -0.1597  0.6315  0.2162
20309SOL    HW162060   6.805   1.708   6.026  0.5172 -0.7882 -1.6254
20309SOL    HW262061   6.665   1.695   5.970 -0.0621 -0.2227 -0.3416
20310SOL     OW62062   2.950   1.087   8.859  0.3860 -0.5575 -0.0282
20310SOL    HW162063   2.989   1.137   8.930 -0.0226  1.3323 -1.0472
20310SOL    HW262064   3.022   1.074   8.797  0.5488 -1.4733  0.3475
20311SOL     OW62065   8.644   1.321   7.306 -0.6705  0.0006  0.6328
20311SOL    HW162066   8.651   1.296   7.214  0.3934  0.0887  0.6723
20311SOL    HW262067   8.597   1.405   7.304 -0.0379  0.3542  0.1027
20312SOL     OW62068   3.934   5.943   7.501  0.0703  0.3020  0.3812
20312SOL    HW162069   3.910   5.891   7.578  2.0720 -0.8963  0.2798
20312SOL    HW262070   3.982   5.882   7.445 -0.8634  1.2925 -1.6023
20313SOL     OW62071   3.391   1.664   1.426  0.5735 -0.2726 -0.0440
20313SOL    HW162072   3.367   1.702   1.510 -0.4920 -0.3726 -0.2940
20313SOL    HW262073   3.365   1.729   1.361  1.9076  0.0518 -0.2880
20314SOL     OW62074   0.599   4.166   5.930 -0.5150  0.2498 -0.7072
20314SOL    HW162075   0.561   4.100   5.872 -1.8703  0.0596  0.3622
20314SOL    HW262076   0.530   4.187   5.992  1.0136  0.1108  1.1512
20315SOL     OW62077   3.362   0.910   5.226 -0.2024  0.4979 -0.2003
20315SOL    HW162078   3.350   0.997   5.187  1.4499 -0.1358 -2.3082
20315SOL    HW262079   3.278   0.866   5.215 -0.4093  1.0991 -1.1356
20316SOL     OW62080   3.461   5.427   1.871 -0.1306  0.2831  0.5799
20316SOL    HW162081   3.445   5.418   1.965  0.4832 -1.3268  0.5540
20316SOL    HW262082   3.379   5.400   1.830 -0.0952  0.0955  0.6323
20317SOL     OW62083   5.076   8.081   2.496 -0.2457 -0.0438  0.0406
20317SOL    HW162084   5.022   8.072   2.574 -1.4339 -0.0296 -0.7574
20317SOL    HW262085   5.051   8.165   2.459  0.4940  0.0658 -0.2358
20318SOL     OW62086   2.097   5.519   6.774 -0.2386 -0.1062 -0.1563
20318SOL    HW162087   2.004   5.535   6.762 -0.2986 -0.7324 -0.5879
20318SOL    HW262088   2.118   5.557   6.859 -0.1511  3.1335 -1.5007
20319SOL     OW62089   8.555   8.663   5.290  0.1148  0.2130  0.3509
20319SOL    HW162090   8.578   8.710   5.371  0.0900 -0.9777  1.0800
20319SOL    HW262091   8.507   8.586   5.321 -0.2720 -0.0377 -0.8414
20320SOL     OW62092   4.689   3.812   8.474 -0.4939 -0.2780 -0.2875
20320SOL    HW162093   4.689   3.720   8.447  0.6537 -0.3255 -0.1619
20320SOL    HW262094   4.681   3.861   8.392 -1.4588 -0.4866 -0.3257
20321SOL     OW62095   6.037   4.852   0.286  0.3358 -0.4273 -0.1808
20321SOL    HW162096   6.079   4.875   0.369 -0.0620 -2.2303  0.5747
20321SOL    HW262097   5.950   4.891   0.292  0.5738  0.1088 -0.1073
20322SOL     OW62098   3.451   5.213   2.755  0.1089 -0.1146 -0.0595
20322SOL    HW162099   3.385   5.277   2.781 -0.8585 -0.8328 -0.6986
20322SOL    HW262100   3.404   5.129   2.754  0.5972 -0.4027 -2.1302
20323SOL     OW62101   2.150   7.259   4.446  0.3536  0.0016 -0.2999
20323SOL    HW162102   2.078   7.209   4.407 -0.8297  1.2647  0.1589
20323SOL    HW262103   2.107   7.317   4.509  1.6777  1.3493 -0.5616
20324SOL     OW62104   5.454   2.644   0.237  0.0069  0.1920  0.0387
20324SOL    HW162105   5.470   2.561   0.191 -0.1876 -0.9467  1.9139
20324SOL    HW262106   5.393   2.691   0.180 -0.8637 -1.4935 -0.5138
20325SOL     OW62107   4.165   6.638   5.686 -0.7775 -0.4473 -0.0162
20325SOL    HW162108   4.178   6.550   5.651 -1.5004 -0.3244 -0.6147
20325SOL    HW262109   4.204   6.634   5.773 -0.1703 -1.1533 -0.3033
20326SOL     OW62110   8.669   0.296   6.083 -0.2169  0.4448 -0.2216
20326SOL    HW162111   8.664   0.267   6.174  0.5814  1.4119  0.1581
20326SOL    HW262112   8.757   0.272   6.055 -0.3431  0.4513 -0.6314
20327SOL     OW62113   7.066   6.590   2.031 -0.3619 -0.2540  0.5019
20327SOL    HW162114   6.982   6.556   2.000  0.2151 -0.4331 -0.9280
20327SOL    HW262115   7.073   6.556   2.120 -1.3847 -0.9962  0.3257
20328SOL     OW62116   7.772   1.500   0.178  0.6749 -0.0667 -0.0403
20328SOL    HW162117   7.696   1.520   0.234  0.1333 -0.1793 -0.7160
20328SOL    HW262118   7.847   1.533   0.227 -0.0414  2.4533 -0.4951
20329SOL     OW62119   4.202   7.286   6.795  0.1912 -0.0099  0.3405
20329SOL    HW162120   4.285   7.270   6.840 -0.7697 -0.1014  2.2268
20329SOL    HW262121   4.193   7.381   6.793 -1.7542  0.1402  4.6241
20330SOL     OW62122   4.662   6.303   2.028  0.3130 -0.0473 -0.6095
20330SOL    HW162123   4.719   6.227   2.017  0.2196 -0.5887  1.9916
20330SOL    HW262124   4.664   6.322   2.122 -1.2605  1.9274 -0.8920
20331SOL     OW62125   4.430   3.694   5.382 -0.4233 -0.0510  0.0927
20331SOL    HW162126   4.386   3.668   5.301 -0.4545  0.7250 -0.1456
20331SOL    HW262127   4.360   3.724   5.439 -0.2241  1.1555 -0.2759
20332SOL     OW62128   8.462   1.544   7.336  0.4049 -0.4009  0.6525
20332SOL    HW162129   8.442   1.582   7.251 -0.9790  1.1307  1.5813
20332SOL    HW262130   8.500   1.616   7.387  1.0209 -1.2246  1.4028
20333SOL     OW62131   8.648   3.198   1.397  0.1140 -0.3749  0.5683
20333SOL    HW162132   8.732   3.166   1.428 -0.2121 -1.2754  0.5360
20333SOL    HW262133   8.599   3.220   1.476 -0.4869 -2.0848  0.7029
20334SOL     OW62134   4.889   6.510   3.317 -0.3562  0.2550  1.0090
20334SOL    HW162135   4.971   6.543   3.354 -0.3761 -1.0795  2.3698
20334SOL    HW262136   4.822   6.539   3.379 -0.7176  0.0847  0.7021
20335SOL     OW62137   0.472   9.029   4.372  0.5206 -0.1055  0.1208
20335SOL    HW162138   0.533   9.045   4.300  0.8921  0.0260  0.4572
20335SOL    HW262139   0.519   8.971   4.431  0.2994 -0.0497  0.3575
20336SOL     OW62140   7.421   8.256   0.155  0.0884 -0.1385  0.1716
20336SOL    HW162141   7.418   8.178   0.212 -1.4232 -0.7397 -0.6703
20336SOL    HW262142   7.441   8.328   0.215  1.6288 -1.1567  0.9642
20337SOL     OW62143   7.479   2.905   5.097 -0.5066 -0.0139 -0.0685
20337SOL    HW162144   7.403   2.959   5.114  0.3675  0.6080  2.2110
20337SOL    HW262145   7.554   2.961   5.118  0.5651 -0.9775 -1.1264
20338SOL     OW62146   3.698   7.635   6.394 -0.2146  0.1769 -0.3566
20338SOL    HW162147   3.787   7.668   6.398 -0.2810  0.3004  0.0872
20338SOL    HW262148   3.657   7.663   6.476 -0.6572  0.1101 -0.5469
20339SOL     OW62149   3.430   1.031   0.537 -0.2360 -0.3697  0.5308
20339SOL    HW162150   3.335   1.036   0.546 -0.2356 -1.3573  1.2243
20339SOL    HW262151   3.445   0.990   0.452 -0.4008  0.4568  0.0876
20340SOL     OW62152   7.084   1.276   7.136  0.1881  0.0593 -0.3429
20340SOL    HW162153   7.043   1.248   7.054 -0.5873  0.9990 -0.2941
20340SOL    HW262154   7.174   1.299   7.111  0.0030  0.1951 -0.9026
20341SOL     OW62155   6.141   5.268   7.800 -0.3788 -0.9604 -0.0135
20341SOL    HW162156   6.150   5.336   7.733  2.1728 -0.8044  0.3969
20341SOL    HW262157   6.158   5.314   7.882 -1.7298 -1.5163  0.6156
20342SOL     OW62158   3.078   5.192   0.959 -0.1974  0.1819  1.2566
20342SOL    HW162159   2.992   5.234   0.957 -0.0333  0.5086  0.8264
20342SOL    HW262160   3.064   5.109   1.005 -0.7172  0.2842  1.2846
20343SOL     OW62161   4.162   3.330   8.530  0.4626 -0.0449  0.0179
20343SOL    HW162162   4.153   3.284   8.614  1.3871 -0.6303 -0.1903
20343SOL    HW262163   4.099   3.402   8.535 -0.1718 -0.6422  0.8268
20344SOL     OW62164   4.224   0.082   1.266  0.5931  0.0197  0.3257
20344SOL    HW162165   4.213  -0.003   1.223 -0.0437  0.4521 -0.3961
20344SOL    HW262166   4.134   0.110   1.285  0.8464  0.0924  1.4438
20345SOL     OW62167   6.478   1.325   1.196 -0.4111 -0.0421  0.0204
20345SOL    HW162168   6.488   1.317   1.291  0.7433 -0.5398 -0.1164
20345SOL    HW262169   6.481   1.419   1.179 -1.3698  0.0859  0.5406
20346SOL     OW62170   4.111   5.702   6.143  0.2206  0.5108 -0.0074
20346SOL    HW162171   4.139   5.768   6.206 -1.0814 -0.6154  1.8615
20346SOL    HW262172   4.188   5.686   6.088  0.6380  3.3517 -0.3659
20347SOL     OW62173   1.829   0.667   4.071 -0.1365  0.2520  0.0787
20347SOL    HW162174   1.873   0.725   4.009  1.8625  0.2702  1.4153
20347SOL    HW262175   1.846   0.579   4.037 -0.8514  0.3310 -0.5018
20348SOL     OW62176   2.679   1.765   8.521 -0.1216 -0.0452  0.5091
20348SOL    HW162177   2.750   1.785   8.582  0.4445  1.1192 -0.4718
20348SOL    HW262178   2.720   1.771   8.435 -1.2182 -0.2323 -0.0362
20349SOL     OW62179   5.330   5.699   7.660 -0.4995  0.5238 -0.5581
20349SOL    HW162180   5.366   5.615   7.690  2.1948  1.4643 -0.9209
20349SOL    HW262181   5.338   5.696   7.565 -0.9079  0.9920 -0.6116
20350SOL     OW62182   8.364   5.477   7.421  0.2218 -0.2382  0.1940
20350SOL    HW162183   8.393   5.519   7.502  1.1552 -2.4895  1.1035
20350SOL    HW262184   8.323   5.396   7.449 -0.0189 -0.7662 -1.5598
20351SOL     OW62185   7.710   1.601   3.467 -0.7273  0.4544  0.1494
20351SOL    HW162186   7.697   1.637   3.379  1.2937  0.7123 -0.1015
20351SOL    HW262187   7.780   1.536   3.456 -0.7008  0.2266  1.4986
20352SOL     OW62188   7.404   0.420   0.495  0.6172 -0.1613  0.3581
20352SOL    HW162189   7.404   0.333   0.535 -0.1545 -0.5876 -0.5063
20352SOL    HW262190   7.469   0.414   0.425 -1.5911 -1.1033 -1.7549
20353SOL     OW62191   8.716   3.548   6.977  0.3778 -0.6576 -0.3327
20353SOL    HW162192   8.672   3.566   7.060  1.8735 -0.8190  0.5472
20353SOL    HW262193   8.802   3.515   7.003  0.9403 -0.5595 -1.9612
20354SOL     OW62194   6.519   4.427   8.778  0.2929 -0.4835  0.3358
20354SOL    HW162195   6.474   4.511   8.766  1.5543  0.1143 -0.3716
20354SOL    HW262196   6.448   4.365   8.795 -0.7803  0.4892 -0.4011
20355SOL     OW62197   4.630   7.217   2.543  0.6708  0.0555 -1.2162
20355SOL    HW162198   4.576   7.295   2.528 -0.0635 -0.2959 -0.5352
20355SOL    HW262199   4.720   7.246   2.528  0.6578  1.6847  1.2871
20356SOL     OW62200   8.315   2.855   5.069  0.3909  0.6513 -0.5705
20356SOL    HW162201   8.279   2.792   5.131 -0.8933  0.9170 -1.0300
20356SOL    HW262202   8.344   2.928   5.123  1.8756 -0.2872 -0.0317
20357SOL     OW62203   6.628   7.646   2.898  0.2672  0.0600 -0.4814
20357SOL    HW162204   6.717   7.657   2.863 -0.2157  1.8199 -1.2679
20357SOL    HW262205   6.629   7.560   2.939  1.9325 -0.5596 -1.7008
20358SOL     OW62206   5.809   5.798   2.073 -0.3850 -0.5560 -0.1841
20358SOL    HW162207   5.758   5.719   2.058  1.3346 -1.9482  0.9111
20358SOL    HW262208   5.745   5.862   2.105 -1.8283 -1.4386 -1.1979
20359SOL     OW62209   5.411   6.025   2.462 -0.9040 -0.6003  0.5479
20359SOL    HW162210   5.341   5.960   2.466 -1.2144 -0.2096  2.7822
20359SOL    HW262211   5.470   6.001   2.533  0.6487 -0.2554 -0.5868
20360SOL     OW62212   5.661   2.000   8.102  0.0062 -0.3489 -0.4987
20360SOL    HW162213   5.650   1.916   8.147 -0.1504 -0.7698 -1.3051
20360SOL    HW262214   5.653   1.979   8.009 -1.2567  0.7587 -0.6621
20361SOL     OW62215   6.590   8.806   6.168 -0.1862  0.3483 -0.2675
20361SOL    HW162216   6.614   8.875   6.229  0.6450  0.3786 -0.6112
20361SOL    HW262217   6.651   8.817   6.094 -1.5851  0.7309 -1.4070
20362SOL     OW62218   1.685   8.426   2.432  0.1631  0.0698 -0.1220
20362SOL    HW162219   1.768   8.449   2.390  0.0056 -1.5880 -1.4525
20362SOL    HW262220   1.705   8.347   2.482 -0.4080  0.1603  0.2562
20363SOL     OW62221   3.058   4.983   3.940  0.5534 -0.3319  0.8163
20363SOL    HW162222   2.994   5.012   4.005 -0.2594  0.1058 -0.1524
20363SOL    HW262223   3.124   4.935   3.990 -1.5660 -2.6145  1.6015
20364SOL     OW62224   8.186   4.821   5.754 -0.4736 -0.0228 -0.0687
20364SOL    HW162225   8.237   4.840   5.675 -1.8598  3.6718 -0.2575
20364SOL    HW262226   8.144   4.737   5.735  2.5273 -1.3631 -1.4013
20365SOL     OW62227   2.591   1.070   9.091 -0.0377 -0.2106  0.3255
20365SOL    HW162228   2.580   1.017   9.170 -0.0416 -1.0723 -0.2359
20365SOL    HW262229   2.647   1.016   9.034 -0.7016  0.0389 -0.5768
20366SOL     OW62230   3.104   3.890   2.896  0.8772  0.1754  0.0225
20366SOL    HW162231   3.049   3.847   2.831 -0.3611 -3.5715  3.1340
20366SOL    HW262232   3.192   3.884   2.861  0.1263 -0.3801 -1.9027
20367SOL     OW62233   6.007   4.821   7.678 -0.2666 -0.1622  0.9138
20367SOL    HW162234   5.971   4.910   7.687 -0.3870 -0.1368  0.1919
20367SOL    HW262235   6.016   4.808   7.584 -3.0344 -2.0014  0.7726
20368SOL     OW62236   2.003   4.175   4.646  0.6498 -0.0200 -0.0086
20368SOL    HW162237   1.947   4.233   4.594  0.2726  0.4588  0.9015
20368SOL    HW262238   1.991   4.205   4.736  1.0854 -1.0009  0.3894
20369SOL     OW62239   5.087   3.731   3.483 -0.4197 -0.1340 -0.6414
20369SOL    HW162240   5.080   3.825   3.500 -2.8809 -0.5598  1.1791
20369SOL    HW262241   5.045   3.719   3.398  1.7110  0.5975 -1.8666
20370SOL     OW62242   3.223   9.030   2.561 -0.6934  0.2797  0.2761
20370SOL    HW162243   3.138   9.060   2.528 -0.9257  0.0735  0.6800
20370SOL    HW262244   3.281   9.105   2.546 -0.0366 -0.7894 -3.3014
20371SOL     OW62245   2.878   3.038   8.703  0.4168  0.7462  0.1457
20371SOL    HW162246   2.819   3.110   8.727 -2.2377 -1.4431  0.6894
20371SOL    HW262247   2.830   2.988   8.637  2.4850 -0.1792 -0.7490
20372SOL     OW62248   8.566   2.502   7.271 -0.3662 -0.1004 -0.1366
20372SOL    HW162249   8.518   2.559   7.212 -0.3088 -0.4781 -0.5528
20372SOL    HW262250   8.638   2.557   7.304 -0.1974  0.0097 -0.6824
20373SOL     OW62251   6.376   0.045   3.300  0.1331  0.1304  0.5928
20373SOL    HW162252   6.454   0.008   3.341 -0.9894 -0.9583  1.8798
20373SOL    HW262253   6.409   0.101   3.230  2.0358 -0.5421  0.8968
20374SOL     OW62254   4.329   8.578   5.681  0.1090 -0.6497  0.1555
20374SOL    HW162255   4.355   8.491   5.651  0.5549 -0.6933  0.6715
20374SOL    HW262256   4.406   8.633   5.667 -0.1997 -0.3113 -0.2557
20375SOL     OW62257   1.933   4.544   0.716  0.0065 -0.2109  0.6595
20375SOL    HW162258   1.869   4.564   0.784  0.2500 -0.9355  1.1145
20375SOL    HW262259   1.964   4.629   0.686 -1.5526  0.1698  0.0500
20376SOL     OW62260   2.615   0.296   5.535  0.5208  0.0358  0.2450
20376SOL    HW162261   2.573   0.372   5.576 -2.5504 -1.0257 -0.7209
20376SOL    HW262262   2.653   0.248   5.608 -0.8241  0.5417  1.3114
20377SOL     OW62263   0.815   0.501   2.173  0.3941  0.8205 -1.0716
20377SOL    HW162264   0.727   0.537   2.176  0.5961  1.3303  1.1200
20377SOL    HW262265   0.869   0.566   2.219  1.1810 -1.1696  1.0276
20378SOL     OW62266   1.215   0.760   0.454  0.2998 -0.7127 -0.1989
20378SOL    HW162267   1.177   0.797   0.374  2.0871 -0.6742 -1.0794
20378SOL    HW262268   1.257   0.679   0.425  0.2612 -1.1219  0.8714
20379SOL     OW62269   3.729   2.987   5.457  0.5807  0.2627 -0.2770
20379SOL    HW162270   3.701   3.073   5.426  1.5700  0.2755 -1.1875
20379SOL    HW262271   3.786   3.005   5.532 -0.0650  0.3322  0.2101
20380SOL     OW62272   6.463   0.385   2.648 -0.0984  0.2465 -0.2442
20380SOL    HW162273   6.413   0.304   2.660  1.8828 -0.8272  1.4065
20380SOL    HW262274   6.530   0.382   2.716  2.8776  1.1008 -2.8953
20381SOL     OW62275   1.374   1.816   0.350 -0.0012 -0.3980 -0.3631
20381SOL    HW162276   1.382   1.856   0.263 -0.0866  0.6237  0.0813
20381SOL    HW262277   1.284   1.836   0.377 -0.1951 -1.3035 -0.3145
20382SOL     OW62278   5.503   7.908   3.134  0.7670 -0.6188 -0.7208
20382SOL    HW162279   5.548   7.825   3.120  0.6361 -0.7457 -0.4100
20382SOL    HW262280   5.478   7.907   3.226 -0.3472 -0.7961 -0.9997
20383SOL     OW62281   3.591   7.948   8.234  0.4464 -0.1933  0.2450
20383SOL    HW162282   3.655   8.020   8.231  1.2462 -0.9182 -1.0771
20383SOL    HW262283   3.534   7.963   8.159 -0.3024 -0.1441  0.8108
20384SOL     OW62284   0.356   5.644   6.939 -0.2030  0.3081  0.0082
20384SOL    HW162285   0.296   5.591   6.993  0.5309 -1.3290 -0.7016
20384SOL    HW262286   0.336   5.734   6.962 -1.2686 -0.2804  1.5624
20385SOL     OW62287   7.874   6.622   0.391  0.0424 -0.1090  0.1479
20385SOL    HW162288   7.834   6.677   0.459 -1.9130 -0.7093 -0.4744
20385SOL    HW262289   7.934   6.682   0.345 -0.4727  0.9531  0.8103
20386SOL     OW62290   9.002   2.240   8.498  0.1217  0.4270 -0.8345
20386SOL    HW162291   9.034   2.176   8.562  0.0870  0.8694 -0.3752
20386SOL    HW262292   8.930   2.284   8.542  0.0201  0.6515 -1.2255
20387SOL     OW62293   5.245   2.265   8.884  0.0866  1.0712  0.6701
20387SOL    HW162294   5.330   2.307   8.889 -0.3407  2.5662 -2.2044
20387SOL    HW262295   5.220   2.249   8.975  3.0599  1.2752  1.6113
20388SOL     OW62296   5.642   8.147   0.816 -0.1827  0.0640  0.1976
20388SOL    HW162297   5.620   8.219   0.876 -1.8804  0.2761 -0.6126
20388SOL    HW262298   5.715   8.180   0.764  1.3774 -0.1401  2.1205
20389SOL     OW62299   8.879   6.788   1.811 -0.0525  0.1781 -0.7110
20389SOL    HW162300   8.803   6.827   1.768  0.1764 -0.8786 -2.1836
20389SOL    HW262301   8.936   6.861   1.831 -1.8287  1.1164  1.3271
20390SOL     OW62302   7.289   8.740   2.467  0.2093 -0.7728  0.0192
20390SOL    HW162303   7.334   8.819   2.435  0.8112 -1.6659 -1.4219
20390SOL    HW262304   7.197   8.756   2.450  0.3294 -0.3902 -0.2913
20391SOL     OW62305   8.434   0.327   7.843  0.0934  0.8740 -0.0171
20391SOL    HW162306   8.475   0.412   7.826 -0.1708  0.7956 -1.1286
20391SOL    HW262307   8.362   0.323   7.781  0.3676 -0.3456 -0.2686
20392SOL     OW62308   5.680   6.389   4.056  0.3216  0.0975  0.4072
20392SOL    HW162309   5.594   6.348   4.041  0.4774 -0.6134  1.3509
20392SOL    HW262310   5.726   6.380   3.973 -0.1080 -0.5424  0.2309
20393SOL     OW62311   0.115   3.000   0.915  0.1054  0.1454 -0.4459
20393SOL    HW162312   0.149   3.090   0.908 -0.5281  0.4062 -0.2466
20393SOL    HW262313   0.176   2.956   0.974  0.5619  0.3721 -0.7376
20394SOL     OW62314   3.163   8.148   1.489  0.4281  0.0087  0.0396
20394SOL    HW162315   3.166   8.233   1.533 -2.9337  0.5366 -0.4943
20394SOL    HW262316   3.163   8.169   1.396 -2.3638 -0.2947 -0.1278
20395SOL     OW62317   4.354   0.819   4.900 -0.1938  0.0186 -0.3595
20395SOL    HW162318   4.376   0.895   4.848  0.6536  0.1788  0.2139
20395SOL    HW262319   4.343   0.748   4.837 -0.6910  0.5471 -0.8666
20396SOL     OW62320   1.454   5.094   7.791 -0.0513  0.9213  0.1809
20396SOL    HW162321   1.432   5.023   7.731 -0.2614  2.4944 -1.7163
20396SOL    HW262322   1.371   5.140   7.805  0.1149  0.9234  1.2347
20397SOL     OW62323   0.677   2.460   5.088  0.1809 -0.3148  0.0672
20397SOL    HW162324   0.732   2.465   5.010  0.5601 -1.8680  0.1890
20397SOL    HW262325   0.604   2.519   5.071  1.4045  1.0903 -0.4858
20398SOL     OW62326   0.314   2.970   5.021  0.1709 -0.5651  0.3631
20398SOL    HW162327   0.271   2.918   5.088 -0.4675  0.9101  1.1645
20398SOL    HW262328   0.302   3.061   5.050  0.3096  0.1011 -1.4861
20399SOL     OW62329   0.724   2.562   2.599 -0.5214  0.0062 -0.0061
20399SOL    HW162330   0.785   2.584   2.528  1.2307  1.2831  1.7676
20399SOL    HW262331   0.654   2.626   2.591  0.3441  1.0104  0.1635
20400SOL     OW62332   1.288   1.394   8.337  0.0326  0.1430  0.8596
20400SOL    HW162333   1.352   1.364   8.273  0.1630 -1.6369  1.7633
20400SOL    HW262334   1.332   1.385   8.422 -2.1455 -3.7562  1.8017
20401SOL     OW62335   4.694   5.699   6.997 -0.0484  0.2024 -0.4363
20401SOL    HW162336   4.676   5.673   7.087 -0.9113  1.3180 -0.2658
20401SOL    HW262337   4.788   5.685   6.986 -0.1610 -1.1761  0.2123
20402SOL     OW62338   2.194   2.932   8.401  0.4422  0.1622  0.0981
20402SOL    HW162339   2.151   3.017   8.395 -0.2418 -0.2206 -0.6142
20402SOL    HW262340   2.209   2.906   8.310  0.3500 -0.6153  0.2985
20403SOL     OW62341   7.614   2.274   1.501  0.5900  0.3198 -0.3490
20403SOL    HW162342   7.609   2.217   1.424 -1.0215  0.2768 -0.2429
20403SOL    HW262343   7.580   2.358   1.471  1.4776  0.7904 -0.0851
20404SOL     OW62344   7.261   0.101   7.421  0.5019 -0.4511 -0.3737
20404SOL    HW162345   7.355   0.083   7.420  0.6353  0.1214 -2.3029
20404SOL    HW262346   7.246   0.158   7.346 -1.8231 -3.0248 -2.0934
20405SOL     OW62347   1.356   3.109   2.065  0.5207 -0.6694  0.5993
20405SOL    HW162348   1.385   3.032   2.113 -2.4235 -2.2636  0.0561
20405SOL    HW262349   1.415   3.114   1.990  0.9661 -2.2375  0.8071
20406SOL     OW62350   8.050   7.995   0.044  0.0090 -0.4317 -0.1249
20406SOL    HW162351   8.136   7.977   0.006  0.0210  2.1841 -1.5298
20406SOL    HW262352   8.064   8.066   0.105 -1.0700 -0.3828  0.0947
20407SOL     OW62353   7.930   0.105   8.009  0.6285  0.1250 -0.1876
20407SOL    HW162354   7.915   0.200   8.012  1.5295  0.3215 -1.1043
20407SOL    HW262355   8.005   0.091   8.067  1.1314  0.1395 -0.8140
20408SOL     OW62356   5.363   0.173   7.658  0.0601 -0.5917 -0.5818
20408SOL    HW162357   5.434   0.194   7.719  1.4612 -2.1523 -1.5982
20408SOL    HW262358   5.315   0.255   7.648  1.8607  0.5878 -0.0139
20409SOL     OW62359   2.450   9.073   8.444 -0.0843 -0.7664  0.0205
20409SOL    HW162360   2.375   9.130   8.426  1.6744  0.8987 -2.8841
20409SOL    HW262361   2.482   9.101   8.530 -0.5722  1.1404 -0.3811
20410SOL     OW62362   9.071   3.191   9.064 -0.1666  0.6426  0.0059
20410SOL    HW162363   8.979   3.202   9.039  0.1320 -1.1904 -2.2375
20410SOL    HW262364   9.106   3.130   8.999  3.0513  2.4519 -0.1590
20411SOL     OW62365   4.621   7.323   0.245 -0.7199 -0.2754  0.3702
20411SOL    HW162366   4.535   7.358   0.267 -0.3841  0.4852  0.4884
20411SOL    HW262367   4.680   7.360   0.311 -0.5364 -1.9779  1.2211
20412SOL     OW62368   1.514   2.641   2.702  0.6469 -0.4274  0.6325
20412SOL    HW162369   1.445   2.706   2.690  0.2220 -0.5774  2.0875
20412SOL    HW262370   1.495   2.573   2.637 -0.0259 -0.0300  0.4058
20413SOL     OW62371   3.182   7.204   0.331  0.1711  0.0659 -0.0830
20413SOL    HW162372   3.245   7.230   0.264  0.6795 -0.4985  0.1718
20413SOL    HW262373   3.096   7.218   0.290  0.4804 -0.3974 -0.8957
20414SOL     OW62374   6.860   5.115   8.573 -0.4152 -0.1524 -0.4419
20414SOL    HW162375   6.903   5.067   8.644 -0.6307 -0.5468 -0.5724
20414SOL    HW262376   6.834   5.198   8.612 -3.6675 -1.6643  1.0218
20415SOL     OW62377   3.156   1.852   8.469 -0.0267 -0.2424 -0.3660
20415SOL    HW162378   3.232   1.856   8.410  1.0279  0.9350  1.0259
20415SOL    HW262379   3.146   1.941   8.501 -1.5867 -0.5422  0.0164
20416SOL     OW62380   9.044   4.725   0.702 -0.0166  0.6348 -0.2146
20416SOL    HW162381   8.967   4.716   0.758 -0.9658  2.3466 -1.1700
20416SOL    HW262382   9.035   4.811   0.663  2.8984  1.3085  0.3717
20417SOL     OW62383   0.199   4.394   3.960 -0.6534 -0.3895 -0.2253
20417SOL    HW162384   0.187   4.390   3.865  1.4831 -1.8141 -0.5004
20417SOL    HW262385   0.207   4.488   3.978  0.7476 -0.1667 -1.7430
20418SOL     OW62386   5.344   5.310   3.114  0.1059 -0.1217 -0.4027
20418SOL    HW162387   5.418   5.252   3.130 -0.9803 -1.1170  1.3847
20418SOL    HW262388   5.303   5.321   3.200 -1.0033  1.5388 -1.0916
20419SOL     OW62389   2.482   1.237   6.026 -0.8237 -0.3852 -0.0631
20419SOL    HW162390   2.464   1.213   6.117 -0.0423 -2.4209 -0.3986
20419SOL    HW262391   2.470   1.332   6.024  1.5618  0.1131  2.7476
20420SOL     OW62392   3.145   4.855   0.648 -0.0049  0.3594  0.4255
20420SOL    HW162393   3.184   4.783   0.696  0.1296  1.2194  1.6601
20420SOL    HW262394   3.076   4.814   0.595  1.8751 -1.0347 -1.0652
20421SOL     OW62395   7.776   4.957   3.823 -0.6576  0.0436 -0.4294
20421SOL    HW162396   7.812   5.003   3.747  0.9530 -1.5333 -0.6845
20421SOL    HW262397   7.851   4.912   3.862 -2.3109 -3.8329 -1.2627
20422SOL     OW62398   3.937   8.714   7.308 -0.6863  0.0150  0.4672
20422SOL    HW162399   3.844   8.693   7.318 -1.2150  2.0350  0.2353
20422SOL    HW262400   3.961   8.758   7.390 -0.3174  0.7106  0.0009
20423SOL     OW62401   3.948   2.621   8.558  0.0200  0.6230  0.4333
20423SOL    HW162402   3.878   2.669   8.603 -0.4344  0.4494 -0.0780
20423SOL    HW262403   3.987   2.566   8.626  0.0978  1.2054  0.8731
20424SOL     OW62404   1.469   4.253   6.233 -0.6175 -0.1518  0.1847
20424SOL    HW162405   1.432   4.301   6.307  2.0922  0.1070  1.5035
20424SOL    HW262406   1.516   4.319   6.182  2.3833 -1.1011  1.5176
20425SOL     OW62407   7.183   0.755   2.234 -0.7775 -0.1902  0.2223
20425SOL    HW162408   7.129   0.699   2.289 -2.1147  0.1493 -0.6973
20425SOL    HW262409   7.161   0.844   2.260 -0.9653 -0.0390 -0.4213
20426SOL     OW62410   8.726   5.994   7.290 -0.8487 -0.4496  0.0977
20426SOL    HW162411   8.808   5.964   7.328 -0.4462  1.3837  0.8005
20426SOL    HW262412   8.665   5.998   7.365 -1.5173 -1.5402 -0.3689
20427SOL     OW62413   0.671   4.964   1.672 -0.1660 -0.0010  0.3197
20427SOL    HW162414   0.644   4.888   1.620  0.2211 -0.2131  0.4232
20427SOL    HW262415   0.590   4.995   1.713 -0.5852  0.5028 -0.8366
20428SOL     OW62416   3.922   1.020   8.578 -0.1065 -0.2383  0.0943
20428SOL    HW162417   3.909   0.956   8.648  0.7326  0.0772  0.5456
20428SOL    HW262418   3.878   1.099   8.610 -0.1628 -0.2465  0.0380
20429SOL     OW62419   2.383   7.969   9.117  0.5102  0.4168 -0.0201
20429SOL    HW162420   2.446   8.024   9.163  3.3628 -0.8171 -2.0958
20429SOL    HW262421   2.385   8.001   9.026  0.4183 -1.4788 -0.7401
20430SOL     OW62422   0.272   1.286   4.102 -0.5503 -0.3919 -0.0923
20430SOL    HW162423   0.305   1.289   4.013 -0.0682 -0.1684  0.0888
20430SOL    HW262424   0.186   1.326   4.098  0.5838  2.2485  0.0170
20431SOL     OW62425   8.790   6.973   5.728 -0.5192  0.7057 -0.0828
20431SOL    HW162426   8.846   6.988   5.803 -0.0200  2.4150 -0.7415
20431SOL    HW262427   8.701   6.974   5.763 -0.2315 -0.5621  0.7472
20432SOL     OW62428   8.871   2.241   2.538  0.5425  0.4075 -0.2643
20432SOL    HW162429   8.871   2.215   2.445  1.4168 -1.8833  0.3116
20432SOL    HW262430   8.869   2.337   2.536 -0.0034  0.4127 -2.6330
20433SOL     OW62431   4.839   0.826   4.273 -0.2767  0.1384  0.0694
20433SOL    HW162432   4.929   0.857   4.259 -0.0691 -1.0338 -1.4660
20433SOL    HW262433   4.819   0.850   4.363  1.6152  0.3348  0.4742
20434SOL     OW62434   0.208   7.309   2.759 -0.2689 -0.1983 -0.7048
20434SOL    HW162435   0.158   7.337   2.682  1.1666 -1.4607 -2.1811
20434SOL    HW262436   0.201   7.213   2.759 -0.2953 -0.2229  0.8072
20435SOL     OW62437   6.483   0.822   3.402 -1.0838 -0.1126  0.3322
20435SOL    HW162438   6.528   0.741   3.426 -0.5217  0.3629  0.9119
20435SOL    HW262439   6.391   0.797   3.393 -0.3718 -2.1278 -5.2378
20436SOL     OW62440   2.813   4.974   6.020 -0.0401 -0.1207  0.1692
20436SOL    HW162441   2.733   4.983   6.071 -1.5107 -1.5795 -1.7502
20436SOL    HW262442   2.830   4.880   6.018  1.5904  0.1294  0.2877
20437SOL     OW62443   6.412   5.593   8.789  0.2824  0.0931  0.0395
20437SOL    HW162444   6.395   5.501   8.769 -2.0079  0.0777  1.7452
20437SOL    HW262445   6.400   5.638   8.705  1.2464 -1.1153 -0.7713
20438SOL     OW62446   6.739   2.555   6.683 -0.6595 -0.4418  0.1548
20438SOL    HW162447   6.684   2.600   6.620  0.5358  0.6065 -0.1853
20438SOL    HW262448   6.722   2.462   6.669  0.3660 -0.3050 -2.4917
20439SOL     OW62449   2.798   8.945   4.798  0.1536 -0.0674 -0.0850
20439SOL    HW162450   2.784   8.938   4.892 -0.9528  0.5180 -0.1847
20439SOL    HW262451   2.812   8.855   4.768 -0.8485 -0.4062  0.4432
20440SOL     OW62452   2.565   4.936   8.502  0.1017  0.2208 -0.0209
20440SOL    HW162453   2.647   4.944   8.455  0.6421  1.6499  1.0804
20440SOL    HW262454   2.576   4.859   8.557 -0.1393 -0.8426 -1.4280
20441SOL     OW62455   0.903   0.382   4.206 -0.2484 -0.3485 -0.0953
20441SOL    HW162456   0.953   0.302   4.220  2.0209  1.3643  2.5651
20441SOL    HW262457   0.886   0.416   4.294  0.0483  2.7448 -1.0872
20442SOL     OW62458   2.854   2.615   4.384 -0.0093  0.1159 -0.2785
20442SOL    HW162459   2.836   2.707   4.363 -0.3784  0.2609  0.6449
20442SOL    HW262460   2.816   2.567   4.310  0.3415  0.7048 -0.8568
20443SOL     OW62461   4.917   5.207   3.528 -0.2440  0.0897  0.1561
20443SOL    HW162462   4.987   5.162   3.576  0.6853  2.8963  1.6918
20443SOL    HW262463   4.837   5.159   3.550  0.4441  0.1049  3.0646
20444SOL     OW62464   0.804   8.976   1.613  0.1787 -0.4577  0.3181
20444SOL    HW162465   0.841   9.061   1.636  0.9750 -0.5673 -0.5203
20444SOL    HW262466   0.718   8.975   1.657  0.3821  0.5509  0.7694
20445SOL     OW62467   5.740   1.810   5.790  0.1374  0.5296  0.3377
20445SOL    HW162468   5.805   1.821   5.721  1.4525  1.5016  1.6741
20445SOL    HW262469   5.676   1.749   5.753  0.7673  1.0477 -1.7324
20446SOL     OW62470   1.285   2.828   0.910  0.3109 -0.4977 -0.4987
20446SOL    HW162471   1.366   2.843   0.958  1.0354  0.4918 -1.9586
20446SOL    HW262472   1.312   2.778   0.833 -0.4447 -0.0962 -1.0369
20447SOL     OW62473   8.381   8.099   8.307 -0.0125  0.2131 -0.0830
20447SOL    HW162474   8.347   8.052   8.383 -0.1920  2.0125  1.0195
20447SOL    HW262475   8.434   8.034   8.261  1.8319 -0.4664  2.7171
20448SOL     OW62476   7.473   4.400   5.595  0.5992  0.0196  0.1940
20448SOL    HW162477   7.417   4.475   5.610 -0.0663 -0.4968  0.3198
20448SOL    HW262478   7.498   4.407   5.502 -0.9673 -0.6044 -0.2980
20449SOL     OW62479   9.010   1.566   6.182 -0.1140  0.1270 -0.8979
20449SOL    HW162480   8.962   1.557   6.264  1.2445  0.7892  0.0293
20449SOL    HW262481   9.032   1.659   6.177  0.0516  0.0517 -1.8799
20450SOL     OW62482   5.040   5.292   8.580 -0.2583 -0.3309  0.2412
20450SOL    HW162483   5.110   5.304   8.516  1.0688 -0.6436  1.5588
20450SOL    HW262484   4.967   5.255   8.530  0.3183  0.4838 -1.2740
20451SOL     OW62485   2.680   4.474   5.105  0.3373 -0.0189  0.1438
20451SOL    HW162486   2.754   4.423   5.138 -0.0341 -0.3704  0.4442
20451SOL    HW262487   2.718   4.532   5.039  0.8914 -0.1388  0.3576
20452SOL     OW62488   5.336   5.963   1.518 -0.1626  0.3799 -0.2261
20452SOL    HW162489   5.366   6.047   1.554 -0.1746 -0.4308  1.7998
20452SOL    HW262490   5.389   5.897   1.564 -0.7479 -0.7821 -1.1593
20453SOL     OW62491   6.059   2.050   8.648  0.2193  0.1868  0.0428
20453SOL    HW162492   6.019   1.988   8.586 -0.5328 -0.0942  0.7918
20453SOL    HW262493   6.130   2.001   8.689 -0.5231 -0.2667  0.8031
20454SOL     OW62494   3.959   3.400   6.701 -0.9350  0.6486  0.0226
20454SOL    HW162495   3.926   3.418   6.789 -0.7637 -0.7340  0.3922
20454SOL    HW262496   3.881   3.394   6.647 -1.3186 -1.6436  0.7125
20455SOL     OW62497   4.888   5.904   3.832 -0.3995  0.3695 -0.1929
20455SOL    HW162498   4.843   5.988   3.836 -1.4372 -0.1175 -1.2162
20455SOL    HW262499   4.822   5.842   3.803  0.6658 -0.5645 -0.7286
20456SOL     OW62500   5.845   6.930   1.882 -0.2271  0.2846 -0.0812
20456SOL    HW162501   5.836   6.845   1.925 -2.0325  0.8218  0.6843
20456SOL    HW262502   5.825   6.913   1.790 -3.5477  0.3247  0.5349
20457SOL     OW62503   0.665   1.954   2.933  0.0901 -0.0263 -0.4018
20457SOL    HW162504   0.576   1.949   2.898  0.2534  0.8189 -0.9704
20457SOL    HW262505   0.720   1.970   2.857  0.5748  0.7262  0.0935
20458SOL     OW62506   0.460   0.055   1.157  0.0390  0.1056 -0.3523
20458SOL    HW162507   0.367   0.052   1.135  0.2347 -1.0702 -1.1570
20458SOL    HW262508   0.479   0.148   1.171 -1.3375  0.3168  0.2318
20459SOL     OW62509   6.839   7.869   4.870 -0.3332  0.2680  0.5613
20459SOL    HW162510   6.822   7.775   4.881  1.4660  0.0145  1.7710
20459SOL    HW262511   6.860   7.900   4.959  1.8305  1.1602 -0.1860
20460SOL     OW62512   0.943   5.079   7.463 -0.4047  0.1987  0.3054
20460SOL    HW162513   0.942   5.175   7.459  0.4855  0.3629  2.5701
20460SOL    HW262514   0.864   5.053   7.416  1.0997  1.8074 -3.5134
20461SOL     OW62515   3.711   8.153   2.414 -0.3773 -0.4518  0.5412
20461SOL    HW162516   3.748   8.109   2.490  1.4524  0.8215  0.4605
20461SOL    HW262517   3.616   8.154   2.430 -0.2074 -1.9250  1.8262
20462SOL     OW62518   2.809   0.190   5.722 -0.3344 -0.3888 -0.3313
20462SOL    HW162519   2.798   0.265   5.781 -2.6465 -1.5070  0.8031
20462SOL    HW262520   2.896   0.201   5.685  0.8309  0.9729  2.4966
20463SOL     OW62521   0.449   8.861   1.978 -0.5100 -0.1133 -0.1809
20463SOL    HW162522   0.448   8.951   2.012  0.0638 -0.6915  1.4740
20463SOL    HW262523   0.362   8.849   1.940  0.3158  2.0915 -3.2001
20464SOL     OW62524   7.225   0.303   2.329  0.3826 -0.0816  0.4637
20464SOL    HW162525   7.260   0.244   2.397 -0.2679  0.5467  1.3669
20464SOL    HW262526   7.130   0.298   2.340  0.2195 -0.6504 -1.0049
20465SOL     OW62527   4.998   4.636   3.538 -0.7924 -0.0432 -0.2568
20465SOL    HW162528   4.990   4.541   3.533  0.2204 -0.1757  0.3287
20465SOL    HW262529   4.911   4.669   3.516 -1.1793 -1.1055 -0.3640
20466SOL     OW62530   7.340   8.043   1.437 -0.2762  0.4194  0.3711
20466SOL    HW162531   7.300   7.999   1.512 -0.2337 -0.6903 -0.2328
20466SOL    HW262532   7.305   7.995   1.361 -0.4795  1.6436 -0.3303
20467SOL     OW62533   0.481   8.397   6.055  0.0500  0.5163 -0.3386
20467SOL    HW162534   0.426   8.319   6.051  1.6098 -0.5702 -1.6539
20467SOL    HW262535   0.420   8.467   6.079 -1.5222 -0.9553  0.1814
20468SOL     OW62536   3.300   7.844   5.040  0.6620 -0.0363 -0.1845
20468SOL    HW162537   3.247   7.913   4.998 -0.9066 -1.0054  0.0952
20468SOL    HW262538   3.336   7.885   5.118  1.1232  0.9318 -0.8905
20469SOL     OW62539   8.300   5.098   1.562  1.1989  0.5924 -0.6955
20469SOL    HW162540   8.253   5.035   1.507 -1.9753  1.4217  0.8134
20469SOL    HW262541   8.357   5.044   1.616 -1.4893 -1.1307  0.6330
20470SOL     OW62542   4.576   6.267   3.950  0.4819  0.3762  0.3808
20470SOL    HW162543   4.588   6.191   4.006  1.3377  1.1301  1.2591
20470SOL    HW262544   4.636   6.253   3.877 -0.0284 -0.2123  0.0650
20471SOL     OW62545   6.612   6.794   1.800 -0.0232  0.3799  0.2553
20471SOL    HW162546   6.635   6.838   1.882  0.9944  0.9892 -0.3287
20471SOL    HW262547   6.542   6.847   1.763  0.7995  1.1912 -0.1632
20472SOL     OW62548   4.741   3.357   5.075 -0.1539  0.2887 -0.1338
20472SOL    HW162549   4.746   3.364   4.980  3.5990  2.7946  0.0267
20472SOL    HW262550   4.695   3.436   5.103 -0.8582 -0.2214  0.1813
20473SOL     OW62551   6.946   3.579   8.976  0.4444 -0.0075 -0.7269
20473SOL    HW162552   6.938   3.557   9.069 -0.2092  0.5960 -0.6347
20473SOL    HW262553   6.989   3.664   8.975  0.5503 -0.0640 -0.9791
20474SOL     OW62554   2.886   3.803   5.751  0.0737 -0.1713  0.3182
20474SOL    HW162555   2.959   3.865   5.747 -0.6079  0.6292  0.0674
20474SOL    HW262556   2.918   3.725   5.707  1.0497 -0.1184  0.9016
20475SOL     OW62557   1.833   0.471   0.197 -0.3536  0.1455 -0.3638
20475SOL    HW162558   1.744   0.505   0.202 -0.1212  0.5373  1.6563
20475SOL    HW262559   1.887   0.547   0.177 -0.3636  0.0667 -0.6998
20476SOL     OW62560   6.050   4.391   3.867  0.6165 -0.7530 -0.0587
20476SOL    HW162561   6.075   4.439   3.946 -1.3229 -1.0918  0.8197
20476SOL    HW262562   6.109   4.424   3.799 -0.0235  2.2544  0.6863
20477SOL     OW62563   8.776   6.028   3.474  0.5638  0.5171  0.2683
20477SOL    HW162564   8.797   6.078   3.395  0.4037 -1.2691 -0.9727
20477SOL    HW262565   8.685   5.999   3.461  0.0350  1.3872  1.7961
20478SOL     OW62566   7.133   8.168   3.661 -0.0444 -0.8747 -0.3238
20478SOL    HW162567   7.074   8.129   3.597 -0.1698 -1.6152  0.2244
20478SOL    HW262568   7.175   8.240   3.615 -0.4021 -1.1687 -1.1185
20479SOL     OW62569   7.384   5.018   4.961  0.2889 -0.6378  0.1279
20479SOL    HW162570   7.460   5.075   4.969  0.6521 -1.0404 -0.3790
20479SOL    HW262571   7.335   5.054   4.887 -0.5749  0.2374  1.0754
20480SOL     OW62572   8.111   6.675   1.993  0.0853  0.2595  0.0248
20480SOL    HW162573   8.123   6.767   1.968 -0.8563  0.9151  1.8111
20480SOL    HW262574   8.197   6.647   2.024  0.3715  0.5211 -0.5087
20481SOL     OW62575   2.112   2.319   8.830  0.6489 -0.0470 -0.1595
20481SOL    HW162576   2.023   2.354   8.830  0.5001 -0.0582  3.0428
20481SOL    HW262577   2.165   2.388   8.790 -0.5662  0.7996 -0.3621
20482SOL     OW62578   4.812   7.434   6.061 -0.4221 -0.0882 -0.6834
20482SOL    HW162579   4.874   7.482   6.116 -0.0719  1.2015 -2.1126
20482SOL    HW262580   4.865   7.370   6.014 -0.3907  0.1230 -0.9375
20483SOL     OW62581   2.476   3.845   7.492  0.2127  0.1184  0.3291
20483SOL    HW162582   2.542   3.804   7.436  0.8558  0.3622  0.9019
20483SOL    HW262583   2.409   3.876   7.431  0.3896 -0.5466 -0.2184
20484SOL     OW62584   2.112   8.914   0.731 -0.1809  0.3013 -0.9275
20484SOL    HW162585   2.096   8.889   0.640  0.5077 -0.0685 -0.9514
20484SOL    HW262586   2.192   8.967   0.728  0.9260 -1.2722 -0.3295
20485SOL     OW62587   1.221   7.134   8.570  0.3281 -0.3046 -0.2180
20485SOL    HW162588   1.201   7.053   8.617  0.6597  0.2568  0.9346
20485SOL    HW262589   1.310   7.155   8.596  0.4826  0.0952 -1.0305
20486SOL     OW62590   5.447   3.910   8.454 -0.4966  0.3756  0.4049
20486SOL    HW162591   5.488   3.845   8.398 -2.0400  0.0691 -0.4281
20486SOL    HW262592   5.388   3.958   8.396 -0.4525  1.5780  1.3077
20487SOL     OW62593   1.360   5.192   4.846  0.2623 -0.1754  0.2815
20487SOL    HW162594   1.432   5.222   4.902  0.4057  0.8375 -0.4165
20487SOL    HW262595   1.308   5.271   4.830 -0.0086 -0.5324 -0.6634
20488SOL     OW62596   6.518   6.040   9.110  0.2147 -0.3697 -0.2757
20488SOL    HW162597   6.466   6.005   9.037  0.7777 -0.8961 -0.4290
20488SOL    HW262598   6.509   5.973   9.179 -0.8457  0.4227  0.3906
20489SOL     OW62599   5.623   6.649   2.956  0.3027  0.1227 -0.1079
20489SOL    HW162600   5.662   6.600   2.884  1.7911 -2.1422  2.0810
20489SOL    HW262601   5.545   6.597   2.980 -1.3187  1.9050 -1.2099
20490SOL     OW62602   3.009   1.437   4.988 -0.1940 -0.4723  0.5817
20490SOL    HW162603   3.103   1.432   4.969 -0.5379  0.2579 -1.6014
20490SOL    HW262604   2.984   1.526   4.963 -1.8201 -1.2499 -0.8271
20491SOL     OW62605   2.856   1.902   4.080  0.4552 -0.2025  0.0078
20491SOL    HW162606   2.820   1.821   4.044  1.5283  0.1562 -2.1055
20491SOL    HW262607   2.945   1.906   4.043  0.9872  1.1492  1.3538
20492SOL     OW62608   4.770   3.444   0.302 -0.2099 -0.0570  0.5263
20492SOL    HW162609   4.825   3.522   0.313 -1.8925  1.0042  1.9603
20492SOL    HW262610   4.795   3.410   0.216  0.7660  1.9227 -0.0596
20493SOL     OW62611   2.316   4.738   1.857 -0.1844  0.3349 -0.7520
20493SOL    HW162612   2.301   4.731   1.951 -0.1407 -0.8011 -0.8178
20493SOL    HW262613   2.241   4.788   1.825 -1.4147 -1.2356 -0.4221
20494SOL     OW62614   1.210   1.056   8.899 -0.1318  0.3151 -0.0436
20494SOL    HW162615   1.213   1.049   8.995 -0.2044 -0.1664 -0.0712
20494SOL    HW262616   1.131   1.009   8.874 -0.2343  0.6366 -0.3273
20495SOL     OW62617   4.078   8.533   8.828  0.4534 -0.1646 -0.4685
20495SOL    HW162618   4.126   8.471   8.773 -0.1732 -0.2949 -0.8813
20495SOL    HW262619   3.986   8.520   8.804  0.0408 -0.9590  1.3291
20496SOL     OW62620   5.417   8.256   7.269 -0.0341 -0.1387 -0.3627
20496SOL    HW162621   5.467   8.278   7.347  0.9087  1.9965 -1.4678
20496SOL    HW262622   5.478   8.203   7.216  0.2151  0.4580 -0.6803
20497SOL     OW62623   1.862   2.441   7.907 -0.5684 -0.7411 -0.1483
20497SOL    HW162624   1.789   2.407   7.855 -1.1354 -0.1401  0.2433
20497SOL    HW262625   1.923   2.368   7.912 -0.1204 -0.5844 -2.3135
20498SOL     OW62626   0.512   5.098   7.629  0.0176 -0.2332  0.2620
20498SOL    HW162627   0.559   5.174   7.594 -0.9346  1.7222  2.8905
20498SOL    HW262628   0.580   5.040   7.661  0.7303  0.6419  0.3665
20499SOL     OW62629   7.958   1.391   1.863  0.0365  0.2759 -0.1750
20499SOL    HW162630   8.040   1.388   1.912  0.1081  1.3762 -0.2104
20499SOL    HW262631   7.970   1.326   1.794  1.0624  0.7317 -0.4525
20500SOL     OW62632   5.069   7.412   4.420 -0.2927  0.2719  0.5549
20500SOL    HW162633   5.020   7.330   4.427  0.3752 -0.1501  0.3731
20500SOL    HW262634   5.123   7.414   4.499  0.5713 -0.0581 -0.0127
20501SOL     OW62635   0.989   2.082   5.560 -0.2999 -0.3240 -0.1123
20501SOL    HW162636   1.014   2.084   5.652 -1.3296 -0.0893  0.1824
20501SOL    HW262637   0.893   2.076   5.562 -0.4334  0.9736 -1.1602
20502SOL     OW62638   6.998   5.993   6.171  0.2858  0.5751 -0.2895
20502SOL    HW162639   6.924   5.996   6.232 -0.8525 -2.0914 -1.4140
20502SOL    HW262640   7.069   6.038   6.218 -1.8476  2.8445  1.0101
20503SOL     OW62641   6.142   6.446   3.513  0.2741 -0.2858  0.0973
20503SOL    HW162642   6.179   6.366   3.550  1.2283  0.5577  1.0169
20503SOL    HW262643   6.200   6.468   3.440  0.0932 -0.3360 -0.0653
20504SOL     OW62644   2.854   3.827   2.644  0.4066 -0.0439 -0.0941
20504SOL    HW162645   2.833   3.918   2.663  3.2084  0.5429  0.7405
20504SOL    HW262646   2.824   3.813   2.554  0.4066  1.8881 -0.4383
20505SOL     OW62647   2.263   8.833   8.746  0.0372  0.2834 -0.5250
20505SOL    HW162648   2.219   8.753   8.773 -1.5911  1.7909  1.6003
20505SOL    HW262649   2.318   8.856   8.821  0.5003  1.1617 -1.1180
20506SOL     OW62650   4.127   2.364   8.210  0.1567 -0.2914 -0.2696
20506SOL    HW162651   4.065   2.291   8.218  0.4993 -0.5123  0.4910
20506SOL    HW262652   4.183   2.339   8.136 -1.8923  0.8747 -2.3421
20507SOL     OW62653   6.713   7.889   0.935 -0.2035  0.0619 -0.1261
20507SOL    HW162654   6.756   7.834   1.001 -2.9889 -1.4146  0.6121
20507SOL    HW262655   6.654   7.944   0.986 -0.1116  1.1589 -1.1775
20508SOL     OW62656   4.522   5.478   8.753  0.3773 -0.5305  0.0991
20508SOL    HW162657   4.475   5.511   8.676 -0.2714  1.2918  1.2228
20508SOL    HW262658   4.458   5.425   8.800  0.4595 -0.7626 -0.0441
20509SOL     OW62659   4.563   3.967   7.510 -0.1466  0.5299 -0.3213
20509SOL    HW162660   4.572   4.050   7.463 -1.0339  1.7977  1.6092
20509SOL    HW262661   4.616   3.978   7.589 -1.8654  0.0761  0.9526
20510SOL     OW62662   7.458   6.732   4.467 -0.1450  0.2345 -0.1419
20510SOL    HW162663   7.476   6.802   4.530 -2.1407 -0.6196  1.5006
20510SOL    HW262664   7.531   6.736   4.404  0.1809  3.2603  0.3077
20511SOL     OW62665   0.085   2.322   1.878  0.5099  0.2647 -0.4736
20511SOL    HW162666   0.139   2.257   1.832  0.9486  1.6447 -2.0375
20511SOL    HW262667   0.132   2.405   1.865  0.2133  0.8466  1.8621
20512SOL     OW62668   3.541   6.682   5.983 -0.3790 -0.1458 -0.7968
20512SOL    HW162669   3.451   6.699   6.010  0.3500 -1.5471  3.1402
20512SOL    HW262670   3.536   6.601   5.932 -1.3352 -0.0423 -0.8944
20513SOL     OW62671   0.791   0.574   6.156  0.0524 -0.1403  0.0297
20513SOL    HW162672   0.773   0.552   6.247 -0.5379 -0.7466 -0.2247
20513SOL    HW262673   0.884   0.552   6.143 -0.3562 -1.9462 -0.0437
20514SOL     OW62674   3.768   6.081   8.611 -0.4581  0.7433 -0.2503
20514SOL    HW162675   3.847   6.134   8.620 -1.1312  1.8342 -0.4626
20514SOL    HW262676   3.713   6.132   8.551 -1.1563 -0.1812 -0.4043
20515SOL     OW62677   5.653   5.069   2.121 -0.5123  0.2698  0.8795
20515SOL    HW162678   5.558   5.067   2.108 -0.3661  0.2328 -0.2841
20515SOL    HW262679   5.689   5.085   2.034  0.5118  1.3714  1.4787
20516SOL     OW62680   3.017   3.945   5.484 -0.0722 -0.7047 -0.0035
20516SOL    HW162681   3.028   3.962   5.390  0.2484 -0.4131  0.0866
20516SOL    HW262682   3.105   3.925   5.516 -0.0468  0.0362  0.4001
20517SOL     OW62683   2.892   0.157   1.741 -0.1473 -0.0305 -0.0350
20517SOL    HW162684   2.908   0.251   1.727 -0.3129  0.1439  0.8899
20517SOL    HW262685   2.797   0.148   1.740 -0.1228 -0.3070 -0.7827
20518SOL     OW62686   1.701   5.014   0.075  0.2981 -0.2243 -0.1349
20518SOL    HW162687   1.730   4.973  -0.006 -1.4595  0.9863 -1.4437
20518SOL    HW262688   1.663   4.942   0.126  0.0240 -0.7481 -1.0565
20519SOL     OW62689   3.621   3.928   7.151  0.1910  0.5389  0.2701
20519SOL    HW162690   3.694   3.969   7.104  1.5169 -0.4086  1.4297
20519SOL    HW262691   3.655   3.843   7.179 -1.1617  0.3318  1.3879
20520SOL     OW62692   7.871   8.771   4.328  0.2965  0.1004  0.0904
20520SOL    HW162693   7.837   8.698   4.277 -0.0486 -0.3158  0.8879
20520SOL    HW262694   7.947   8.735   4.374  1.8225  0.9861 -1.5859
20521SOL     OW62695   5.205   5.102   3.337 -0.1613 -0.0281 -0.0679
20521SOL    HW162696   5.184   5.074   3.426  0.2801 -0.6733 -0.1597
20521SOL    HW262697   5.139   5.169   3.316 -2.2182 -2.0227 -0.3834
20522SOL     OW62698   1.053   8.059   6.629  0.3871  0.1186  0.0653
20522SOL    HW162699   1.016   8.138   6.668  0.4954  0.9553 -1.4595
20522SOL    HW262700   0.986   8.029   6.567  0.6175 -0.6152  0.1624
20523SOL     OW62701   8.576   0.390   4.993 -0.3715  0.1958 -0.5697
20523SOL    HW162702   8.597   0.468   5.043  1.3795  0.2046 -1.2525
20523SOL    HW262703   8.575   0.419   4.902  1.1975 -0.7233 -0.9053
20524SOL     OW62704   2.320   4.916   0.911 -0.3033  0.3810  0.2435
20524SOL    HW162705   2.254   4.855   0.943 -0.0461  0.8058  1.6693
20524SOL    HW262706   2.355   4.875   0.832 -0.4811 -1.0700  0.8836
20525SOL     OW62707   8.034   2.820   6.951 -0.0055 -0.1328 -0.0855
20525SOL    HW162708   8.040   2.725   6.941  0.1198  0.0385 -1.9389
20525SOL    HW262709   8.120   2.853   6.925 -0.5013  0.5700 -0.8955
20526SOL     OW62710   0.071   4.026   2.967  0.2763  0.0766  0.2061
20526SOL    HW162711   0.140   4.009   2.903 -0.1679  1.5087 -0.6852
20526SOL    HW262712   0.113   4.012   3.052  1.3590 -0.1259 -0.3479
20527SOL     OW62713   1.468   2.969   3.130  0.1569  0.1898  0.5088
20527SOL    HW162714   1.548   3.016   3.154 -0.4241  0.7128  1.5076
20527SOL    HW262715   1.462   2.979   3.035  0.4993  1.4205  0.5987
20528SOL     OW62716   4.325   8.356   4.134  0.0968 -0.4518  0.2591
20528SOL    HW162717   4.406   8.407   4.137 -0.9057  1.2470 -0.1581
20528SOL    HW262718   4.255   8.422   4.135 -1.2670 -1.8160 -0.5935
20529SOL     OW62719   7.397   1.797   8.125  0.5758  0.4226 -0.5125
20529SOL    HW162720   7.365   1.818   8.037  1.4885  1.2914 -0.6557
20529SOL    HW262721   7.490   1.780   8.113  0.6914  0.4756  0.2758
20530SOL     OW62722   2.356   6.395   1.914  0.5225 -0.0623 -0.7368
20530SOL    HW162723   2.322   6.470   1.865 -0.1670  0.3373  0.3028
20530SOL    HW262724   2.400   6.434   1.990  2.5324 -0.6155 -1.5439
20531SOL     OW62725   0.634   3.886   7.930 -0.1342  0.2577  0.2027
20531SOL    HW162726   0.559   3.877   7.871  1.5301 -0.5465 -1.9117
20531SOL    HW262727   0.653   3.796   7.959  0.1249  0.4332  0.5918
20532SOL     OW62728   3.406   1.176   5.092 -0.3286  0.2859  0.2205
20532SOL    HW162729   3.332   1.168   5.031  0.9278 -0.9199 -1.2597
20532SOL    HW262730   3.479   1.203   5.036  0.6952 -0.1058  1.3400
20533SOL     OW62731   5.274   4.771   2.085  0.6119  0.5885 -0.3332
20533SOL    HW162732   5.330   4.698   2.110  1.2808  1.5043  0.9695
20533SOL    HW262733   5.335   4.841   2.061  0.0482  1.4121  0.5524
20534SOL     OW62734   1.142   5.937   4.882 -0.3019  0.1621 -0.1028
20534SOL    HW162735   1.070   5.975   4.932  0.4251 -2.4579  3.3637
20534SOL    HW262736   1.220   5.976   4.920  0.2846 -1.9802  1.0419
20535SOL     OW62737   5.392   2.521   9.090  0.6218 -0.0963  0.5072
20535SOL    HW162738   5.301   2.521   9.059  1.0294  0.6243 -0.7737
20535SOL    HW262739   5.436   2.458   9.033  1.4468  1.4652 -0.6782
20536SOL     OW62740   2.676   2.536   8.029  0.3898  0.6816 -0.9312
20536SOL    HW162741   2.690   2.614   7.975 -0.0216  2.3533  1.2355
20536SOL    HW262742   2.594   2.553   8.075 -0.2048 -1.4871 -1.0446
20537SOL     OW62743   6.881   3.193   7.500  0.3239 -0.0809  0.2530
20537SOL    HW162744   6.847   3.237   7.423 -0.6586  1.5645  1.5547
20537SOL    HW262745   6.853   3.102   7.490 -1.6661  0.5532 -0.3230
20538SOL     OW62746   1.324   3.110   8.569 -0.1969  0.4381  0.4526
20538SOL    HW162747   1.243   3.094   8.520 -0.3246  0.2887  0.7131
20538SOL    HW262748   1.365   3.024   8.576 -0.5138  0.3484  1.2025
20539SOL     OW62749   7.251   2.945   8.828 -0.0134 -0.3007 -0.4741
20539SOL    HW162750   7.299   2.866   8.853 -0.0341 -0.0289  0.4374
20539SOL    HW262751   7.295   3.016   8.874 -0.7287  0.0660 -0.3460
20540SOL     OW62752   1.104   1.338   9.078  0.0019  0.2795 -0.3711
20540SOL    HW162753   1.071   1.400   9.143 -2.9834 -0.6311 -0.8622
20540SOL    HW262754   1.106   1.388   8.996 -1.8668 -0.0067 -0.6526
20541SOL     OW62755   4.117   7.736   1.624  0.0975 -0.1284  0.2260
20541SOL    HW162756   4.088   7.719   1.534  1.6533  0.8534 -0.4907
20541SOL    HW262757   4.170   7.661   1.647 -1.2197 -0.9322  0.7865
20542SOL     OW62758   2.387   6.593   3.321 -0.0361  0.4168 -0.1262
20542SOL    HW162759   2.296   6.566   3.308 -0.6054  2.0031  0.3227
20542SOL    HW262760   2.385   6.645   3.402  1.0162  1.5063 -0.7690
20543SOL     OW62761   1.969   7.592   7.931  0.4629 -0.3603  0.2676
20543SOL    HW162762   1.956   7.681   7.896  0.3323 -0.8314 -0.9522
20543SOL    HW262763   1.930   7.535   7.864 -0.3487 -1.2985  1.5012
20544SOL     OW62764   6.425   7.901   7.761  0.5328 -0.0885 -0.1558
20544SOL    HW162765   6.409   7.826   7.819  0.1541 -0.1478 -0.3301
20544SOL    HW262766   6.514   7.928   7.780 -0.5856  1.9734  2.8838
20545SOL     OW62767   7.170   8.426   8.062  0.4063 -0.5180  0.8347
20545SOL    HW162768   7.128   8.473   8.134 -2.7719 -0.1265 -1.0543
20545SOL    HW262769   7.193   8.494   7.999  1.4021 -1.0008  0.6648
20546SOL     OW62770   5.146   8.872   3.278 -0.7863  0.0809 -0.0873
20546SOL    HW162771   5.088   8.796   3.271 -1.3177  0.5145 -0.4232
20546SOL    HW262772   5.156   8.887   3.372  0.4883 -1.2821  0.0351
20547SOL     OW62773   4.960   1.249   7.519  0.2761 -0.1599  0.2734
20547SOL    HW162774   5.009   1.166   7.522  1.2499  0.3038 -1.3452
20547SOL    HW262775   4.915   1.253   7.603 -0.6763 -2.8419 -0.0020
20548SOL     OW62776   5.745   4.161   2.812  0.3617 -0.3866 -0.0899
20548SOL    HW162777   5.728   4.113   2.731  1.7658 -0.6164 -0.2756
20548SOL    HW262778   5.763   4.094   2.877  1.7963 -0.1495 -0.2194
20549SOL     OW62779   8.722   6.922   4.126  0.2305  0.6280 -0.0045
20549SOL    HW162780   8.809   6.953   4.102 -0.2423  1.4410 -0.7024
20549SOL    HW262781   8.738   6.844   4.180  1.3922  1.0154  0.2304
20550SOL     OW62782   2.384   0.730   1.427 -0.0553  0.2288  0.0756
20550SOL    HW162783   2.316   0.787   1.461 -0.4217 -0.8517  1.2071
20550SOL    HW262784   2.463   0.757   1.473 -0.1160  0.1849  0.2057
20551SOL     OW62785   0.374   3.496   9.115 -0.4002  0.6256  0.1418
20551SOL    HW162786   0.325   3.450   9.184 -2.2324  0.9467 -0.8822
20551SOL    HW262787   0.353   3.589   9.130  2.2164  1.1080  1.3917
20552SOL     OW62788   7.730   6.417   1.934 -0.1514 -0.6235  0.8577
20552SOL    HW162789   7.693   6.330   1.920 -0.7290 -0.3291  0.5421
20552SOL    HW262790   7.686   6.473   1.871  1.5948 -0.4613 -0.2941
20553SOL     OW62791   8.245   5.110   4.538  0.1927 -0.0644  0.2295
20553SOL    HW162792   8.279   5.165   4.467  0.4924 -1.3830 -0.6814
20553SOL    HW262793   8.290   5.026   4.527  0.1736 -0.3312  1.9410
20554SOL     OW62794   5.412   7.454   3.885  0.1549  0.1261  0.2984
20554SOL    HW162795   5.506   7.462   3.870  0.1119  0.1468  0.0347
20554SOL    HW262796   5.398   7.491   3.973  0.2103  1.3250 -0.1819
20555SOL     OW62797   3.170   0.581   0.441 -0.4145  0.0284 -0.5158
20555SOL    HW162798   3.174   0.495   0.483  0.2981  0.6389  0.7110
20555SOL    HW262799   3.196   0.643   0.509  2.9027  0.8884 -2.3628
20556SOL     OW62800   2.278   4.046   4.500 -0.0705 -0.2032  0.5674
20556SOL    HW162801   2.327   3.967   4.523 -0.3899 -0.3492  0.7509
20556SOL    HW262802   2.282   4.100   4.578  1.5612  0.7038 -0.0856
20557SOL     OW62803   8.689   8.650   6.964 -0.4646 -0.2585  0.7342
20557SOL    HW162804   8.758   8.703   7.004 -1.3255  1.1219  0.4577
20557SOL    HW262805   8.626   8.635   7.035 -0.4903 -0.4515  0.6710
20558SOL     OW62806   3.193   8.224   2.504 -0.1575  0.5432  0.4802
20558SOL    HW162807   3.175   8.277   2.581 -0.6951  1.1090 -0.0305
20558SOL    HW262808   3.139   8.262   2.435 -1.2579 -1.1797  0.3037
20559SOL     OW62809   1.820   5.019   1.757  0.2169  0.0294 -0.0781
20559SOL    HW162810   1.731   5.019   1.792  0.5348  0.3339  0.7688
20559SOL    HW262811   1.863   5.092   1.803  1.0372 -0.4339 -0.1041
20560SOL     OW62812   7.621   6.611   7.674 -0.7249 -0.1281 -0.4252
20560SOL    HW162813   7.613   6.666   7.596 -0.0893  0.4807 -0.0684
20560SOL    HW262814   7.712   6.623   7.702 -0.8582 -0.6113  0.2126
20561SOL     OW62815   3.806   4.278   2.204  0.1275 -0.3724 -0.4929
20561SOL    HW162816   3.804   4.336   2.128 -2.1027 -1.2579 -1.1739
20561SOL    HW262817   3.796   4.338   2.279  2.1347  0.4843 -0.8530
20562SOL     OW62818   0.350   5.691   1.363 -0.2300 -0.0274  0.4281
20562SOL    HW162819   0.334   5.597   1.354 -0.4180  0.1116 -0.9155
20562SOL    HW262820   0.426   5.708   1.306  0.6004  0.4375  1.6367
20563SOL     OW62821   8.068   5.791   5.366 -0.4744 -0.1877  0.1259
20563SOL    HW162822   8.093   5.736   5.292  0.5391  0.3985  0.0131
20563SOL    HW262823   7.988   5.836   5.337  1.5788  2.4420 -1.9247
20564SOL     OW62824   5.628   1.959   2.936 -0.6543  0.0106  0.3210
20564SOL    HW162825   5.592   1.957   3.025  0.4495  0.8955  0.8174
20564SOL    HW262826   5.698   1.893   2.938  0.1177  0.8159  0.4658
20565SOL     OW62827   3.417   8.786   8.310 -0.3923 -0.0234 -0.1491
20565SOL    HW162828   3.426   8.692   8.294 -0.4416 -0.0855  0.1811
20565SOL    HW262829   3.323   8.799   8.323 -0.6344  0.3670 -1.9958
20566SOL     OW62830   6.525   8.861   4.050 -0.1209 -0.0401 -0.3072
20566SOL    HW162831   6.478   8.936   4.086 -0.4867  0.4948 -1.8441
20566SOL    HW262832   6.601   8.900   4.005  0.6117 -0.7330  0.2934
20567SOL     OW62833   8.629   8.270   5.706 -0.1433 -0.0995  0.3249
20567SOL    HW162834   8.586   8.186   5.722  0.9347 -0.4486  1.5764
20567SOL    HW262835   8.680   8.287   5.785  1.0497  0.8787 -0.5987
20568SOL     OW62836   5.947   8.924   5.526  0.5867  0.1776  0.3339
20568SOL    HW162837   6.039   8.896   5.526  0.4113 -0.4175 -0.1483
20568SOL    HW262838   5.930   8.949   5.435  0.1153 -0.2511  0.2999
20569SOL     OW62839   6.298   7.326   6.747 -0.2150 -0.0784  0.1276
20569SOL    HW162840   6.296   7.232   6.767  1.6519 -0.2385 -0.2301
20569SOL    HW262841   6.247   7.367   6.817  0.0129 -1.2585  1.0149
20570SOL     OW62842   5.112   4.873   5.602  0.1396  0.6334  0.5128
20570SOL    HW162843   5.188   4.889   5.546 -1.0858 -1.1961 -1.8828
20570SOL    HW262844   5.146   4.874   5.691  2.0432  4.7437 -0.0354
20571SOL     OW62845   0.415   3.551   0.594 -0.3114 -0.4159 -0.2234
20571SOL    HW162846   0.323   3.566   0.574 -0.8498  0.9207  2.7163
20571SOL    HW262847   0.462   3.601   0.529 -1.7826  1.2672 -0.0618
20572SOL     OW62848   1.785   4.274   5.706  0.1405  0.2985  0.1189
20572SOL    HW162849   1.727   4.212   5.752 -0.6143  1.7747  1.2389
20572SOL    HW262850   1.856   4.291   5.768  0.8257 -0.1053 -0.5389
20573SOL     OW62851   8.236   2.832   7.964 -0.1720  0.3399  0.4269
20573SOL    HW162852   8.239   2.788   7.879  1.6460 -1.2054  1.2466
20573SOL    HW262853   8.230   2.925   7.942  2.7250  0.1850 -1.4938
20574SOL     OW62854   1.768   8.710   1.782 -0.8468  0.3975 -0.1771
20574SOL    HW162855   1.683   8.704   1.738  0.0750  1.0569 -2.1638
20574SOL    HW262856   1.830   8.728   1.711  0.8277  0.8766  1.3514
20575SOL     OW62857   5.432   7.074   4.188  0.2404  0.4376 -0.0733
20575SOL    HW162858   5.470   7.135   4.251  0.0089  0.5054  0.0033
20575SOL    HW262859   5.507   7.031   4.146  0.4202 -1.2753  1.8420
20576SOL     OW62860   1.503   2.872   6.512 -0.0287 -0.0453 -0.4619
20576SOL    HW162861   1.498   2.841   6.422  2.9658  1.0523 -1.1263
20576SOL    HW262862   1.443   2.947   6.515  0.1434  0.1653 -1.6641
20577SOL     OW62863   4.454   3.627   4.477 -0.6782  0.3553  0.2798
20577SOL    HW162864   4.419   3.715   4.491 -2.5781 -0.3032 -0.1185
20577SOL    HW262865   4.437   3.610   4.384 -0.6738 -0.5811  0.4475
20578SOL     OW62866   0.477   0.340   7.494  0.2133  0.6637  0.5500
20578SOL    HW162867   0.477   0.394   7.415  0.2897 -1.0797 -0.7047
20578SOL    HW262868   0.386   0.342   7.525 -0.2457 -0.1215 -0.6797
20579SOL     OW62869   8.477   6.421   0.881 -0.0621 -0.1493 -0.1234
20579SOL    HW162870   8.387   6.417   0.848 -0.8292  0.7795  1.7357
20579SOL    HW262871   8.531   6.398   0.805 -1.7915  0.3853 -1.5889
20580SOL     OW62872   3.974   7.297   7.849  0.3145  0.5039  0.5073
20580SOL    HW162873   3.935   7.318   7.934 -0.7914 -1.2621  0.4907
20580SOL    HW262874   3.947   7.207   7.832  0.0249  0.9926 -1.9811
20581SOL     OW62875   1.211   2.295   7.126 -0.3176 -0.2916 -0.1771
20581SOL    HW162876   1.299   2.267   7.103 -0.0768  0.5174 -0.2768
20581SOL    HW262877   1.224   2.368   7.187 -0.9197 -0.4139  0.1074
20582SOL     OW62878   2.843   7.521   3.237 -0.4886 -0.0475  0.2911
20582SOL    HW162879   2.837   7.598   3.293 -1.8952  0.4001 -0.4235
20582SOL    HW262880   2.763   7.523   3.185  0.8823 -0.2909 -1.9393
20583SOL     OW62881   1.093   4.940   6.561  0.2468  0.0269  0.3751
20583SOL    HW162882   1.164   5.004   6.569 -0.6848  0.8684  2.9987
20583SOL    HW262883   1.136   4.855   6.570  1.0616  0.4922  1.0487
20584SOL     OW62884   3.706   4.073   5.450 -0.0283 -0.2129  0.0946
20584SOL    HW162885   3.753   4.079   5.367 -1.6001 -5.0733 -1.4714
20584SOL    HW262886   3.762   4.019   5.506 -1.0621 -1.0525  0.3583
20585SOL     OW62887   0.222   8.145   8.461  0.1940  0.6343  0.6397
20585SOL    HW162888   0.270   8.065   8.482 -1.0262 -0.4632 -0.5413
20585SOL    HW262889   0.172   8.164   8.540 -0.4396 -0.4972  0.5425
20586SOL     OW62890   6.420   6.516   7.158  0.1069 -0.4248 -0.2146
20586SOL    HW162891   6.502   6.532   7.205  0.7769  1.3329 -1.8661
20586SOL    HW262892   6.447   6.489   7.070 -1.0911 -0.1947 -0.6722
20587SOL     OW62893   6.730   1.377   6.122 -0.2068 -0.4107 -0.7340
20587SOL    HW162894   6.764   1.373   6.212 -1.4886 -2.2582 -0.2620
20587SOL    HW262895   6.758   1.462   6.089 -0.2963  0.6233  1.6695
20588SOL     OW62896   0.851   5.515   5.066 -0.0726  0.6339  0.0812
20588SOL    HW162897   0.908   5.543   4.994  0.4632 -0.4917  0.0484
20588SOL    HW262898   0.878   5.425   5.085 -1.4170  0.2989  0.5019
20589SOL     OW62899   1.138   6.845   8.284  0.3412  0.4331  0.2030
20589SOL    HW162900   1.162   6.766   8.236  2.3446  1.2479 -0.1912
20589SOL    HW262901   1.042   6.839   8.293  0.4450 -2.0794  0.3080
20590SOL     OW62902   5.366   0.155   8.106 -0.1282  0.0267  0.5742
20590SOL    HW162903   5.420   0.122   8.035  0.0311  0.8051  0.3196
20590SOL    HW262904   5.291   0.096   8.109  0.0439 -0.2285  0.0046
20591SOL     OW62905   6.612   8.996   5.787  0.2079  0.2978  0.0343
20591SOL    HW162906   6.606   8.963   5.697  1.5285 -3.1944  1.0680
20591SOL    HW262907   6.522   8.996   5.818  0.0251 -1.4185 -0.3966
20592SOL     OW62908   4.708   2.844   4.708  0.1844  0.9263 -0.0137
20592SOL    HW162909   4.798   2.828   4.680  0.7718  4.8321 -0.9410
20592SOL    HW262910   4.704   2.806   4.796  2.0815 -0.9645 -0.6444
20593SOL     OW62911   2.798   6.697   6.878  0.3282  0.6751  0.1747
20593SOL    HW162912   2.767   6.652   6.956  0.3201  1.8464  0.8737
20593SOL    HW262913   2.876   6.648   6.851 -0.0470 -0.1213  0.5325
20594SOL     OW62914   6.551   2.959   7.601  0.1453 -0.3046  0.4757
20594SOL    HW162915   6.511   3.045   7.587 -1.3185 -0.9215  0.6826
20594SOL    HW262916   6.477   2.899   7.613  0.8316 -2.4442 -3.9028
20595SOL     OW62917   1.575   8.672   2.554 -0.0573  0.2597 -0.0544
20595SOL    HW162918   1.653   8.717   2.522  0.7808 -0.8275  0.3940
20595SOL    HW262919   1.591   8.579   2.536 -1.3498  0.0299 -0.1576
20596SOL     OW62920   0.694   9.048   6.730 -0.2617  0.3323 -0.0370
20596SOL    HW162921   0.651   8.963   6.728  0.3268  0.0296 -0.1383
20596SOL    HW262922   0.727   9.060   6.640  1.0000 -0.0439  0.3594
20597SOL     OW62923   5.488   4.323   6.676 -0.4258  0.4982 -0.0457
20597SOL    HW162924   5.504   4.236   6.641  0.4178  0.6797 -0.1259
20597SOL    HW262925   5.491   4.312   6.771 -0.2757  0.4505 -0.0566
20598SOL     OW62926   1.724   1.489   5.513  0.6918 -0.2070  0.7082
20598SOL    HW162927   1.689   1.528   5.434  2.6646 -1.1152 -0.6923
20598SOL    HW262928   1.809   1.531   5.526  2.1703 -2.7531  0.0336
20599SOL     OW62929   2.102   1.291   0.523 -0.2781  0.1069  0.2714
20599SOL    HW162930   2.176   1.250   0.569  0.1019  0.0041 -0.4172
20599SOL    HW262931   2.081   1.368   0.575  0.1320 -0.0192  0.6308
20600SOL     OW62932   4.105   5.323   1.308 -0.1625  0.4789 -0.0158
20600SOL    HW162933   4.029   5.271   1.334 -1.3248  2.0087 -0.2157
20600SOL    HW262934   4.157   5.264   1.254  0.3635 -1.5629  2.4852
20601SOL     OW62935   5.525   4.003   6.652 -0.2962 -0.1180 -0.0372
20601SOL    HW162936   5.606   3.959   6.680  0.6307  0.6143 -1.4427
20601SOL    HW262937   5.456   3.956   6.697  0.8125 -1.7217  0.0900
20602SOL     OW62938   8.921   6.431   0.380  0.1563 -0.2877  0.3607
20602SOL    HW162939   8.826   6.433   0.392 -0.0583 -1.5154 -0.7949
20602SOL    HW262940   8.939   6.504   0.321 -0.1012 -0.1131  0.5009
20603SOL     OW62941   3.789   1.621   4.174 -0.1096  0.2474 -0.3129
20603SOL    HW162942   3.779   1.555   4.105 -0.5905  0.4058 -0.4009
20603SOL    HW262943   3.873   1.600   4.216  0.6506  0.7310 -1.5568
20604SOL     OW62944   3.083   4.178   0.665 -0.5697  0.0057 -0.8628
20604SOL    HW162945   3.029   4.246   0.625  0.7926  0.9831 -1.1112
20604SOL    HW262946   3.152   4.161   0.600  0.0695 -0.3726 -0.0993
20605SOL     OW62947   2.142   6.383   1.451  0.1081 -0.1105  0.0779
20605SOL    HW162948   2.067   6.326   1.469 -0.3702  0.5032  0.0310
20605SOL    HW262949   2.218   6.331   1.479 -0.4536 -0.0505  1.8267
20606SOL     OW62950   5.477   7.247   7.231  0.3047  0.0074  0.0005
20606SOL    HW162951   5.422   7.209   7.299  1.0781 -0.2665  0.4815
20606SOL    HW262952   5.485   7.178   7.165  0.2320 -0.0198  0.0198
20607SOL     OW62953   4.679   8.920   2.188  0.2062  0.0369  0.5983
20607SOL    HW162954   4.667   8.917   2.093 -1.2130 -0.5833  0.7654
20607SOL    HW262955   4.771   8.942   2.200  0.3941  0.2024 -0.9195
20608SOL     OW62956   4.908   6.706   6.350  0.0518  0.0865  0.2052
20608SOL    HW162957   4.836   6.683   6.291 -1.1187  0.1075  1.5802
20608SOL    HW262958   4.970   6.752   6.294 -2.2445  2.5565 -0.5286
20609SOL     OW62959   3.046   3.594   0.422 -0.2397  0.4434  0.2258
20609SOL    HW162960   2.953   3.615   0.428  0.1992  2.0817  3.4303
20609SOL    HW262961   3.089   3.678   0.407  0.7850 -0.2999 -1.3186
20610SOL     OW62962   6.325   8.908   0.521 -0.0481 -0.4643 -0.1779
20610SOL    HW162963   6.332   8.951   0.435  1.0496  2.9639  1.4637
20610SOL    HW262964   6.231   8.892   0.531 -0.5194  1.3979 -1.0366
20611SOL     OW62965   4.244   0.046   4.063 -0.0367  0.5702 -0.8360
20611SOL    HW162966   4.257   0.102   4.139 -0.1214 -0.2152 -0.2289
20611SOL    HW262967   4.304  -0.028   4.076 -0.7164 -0.0373 -1.0532
20612SOL     OW62968   5.763   6.392   5.639 -0.6543 -0.2171 -0.1852
20612SOL    HW162969   5.810   6.349   5.568 -0.7823  0.0827 -0.4515
20612SOL    HW262970   5.714   6.321   5.681 -1.1150 -0.2794 -0.8190
20613SOL     OW62971   0.422   3.139   4.365 -0.0376 -0.9543  0.5044
20613SOL    HW162972   0.513   3.160   4.348  0.1469 -0.4166  1.9784
20613SOL    HW262973   0.374   3.170   4.288  0.6371  1.7936  1.0918
20614SOL     OW62974   3.147   3.856   0.392 -0.5126 -0.0178 -0.3310
20614SOL    HW162975   3.171   3.870   0.483  1.6500  0.3579 -0.9047
20614SOL    HW262976   3.213   3.904   0.341 -0.1836 -2.1393 -2.1265
20615SOL     OW62977   6.017   8.057   6.804 -0.0954  1.0213 -0.2447
20615SOL    HW162978   5.933   8.103   6.811  0.3111  1.8516 -0.7669
20615SOL    HW262979   6.012   7.988   6.871 -1.5241  0.5260 -0.8137
20616SOL     OW62980   5.999   7.818   1.148 -0.4601 -0.0597 -0.3213
20616SOL    HW162981   6.042   7.763   1.082  0.1392  0.1995 -0.1468
20616SOL    HW262982   6.031   7.906   1.131 -0.6625  0.0816  0.0225
20617SOL     OW62983   6.080   3.340   6.541  0.2887  0.0598  0.1880
20617SOL    HW162984   6.125   3.288   6.608 -0.0388 -0.6064 -0.0990
20617SOL    HW262985   6.147   3.361   6.477  0.0357 -1.7281 -0.7263
20618SOL     OW62986   3.083   3.718   5.095  0.1399  0.0032 -0.1159
20618SOL    HW162987   3.075   3.624   5.109  1.6079 -0.2128 -0.4849
20618SOL    HW262988   3.071   3.729   5.000  3.1663 -0.3045 -0.6490
20619SOL     OW62989   3.264   1.952   6.649 -0.2866 -0.2492 -0.6833
20619SOL    HW162990   3.177   1.919   6.673 -0.3656 -1.0084 -1.9503
20619SOL    HW262991   3.249   2.043   6.624 -1.3169 -1.1991 -3.9188
20620SOL     OW62992   3.422   8.451   6.048  0.2509  0.1794 -0.4824
20620SOL    HW162993   3.334   8.421   6.070  0.4137 -0.3131 -0.5054
20620SOL    HW262994   3.480   8.402   6.107  0.7874 -1.8921 -2.5880
20621SOL     OW62995   3.546   5.256   6.444  0.3424 -0.2722  0.3819
20621SOL    HW162996   3.530   5.313   6.369  0.7560  0.2793  0.7138
20621SOL    HW262997   3.608   5.191   6.412 -1.1296 -1.3762 -0.3972
20622SOL     OW62998   3.419   2.518   5.993  0.2897  0.7074 -0.6139
20622SOL    HW162999   3.482   2.591   5.992 -0.3587  1.5225  3.1906
20622SOL    HW263000   3.469   2.444   6.029 -0.4353  0.8960  0.8393
20623SOL     OW63001   4.652   8.359   5.549 -0.0834  0.2672 -0.0184
20623SOL    HW163002   4.713   8.342   5.478  1.6094 -1.0721  1.6717
20623SOL    HW263003   4.632   8.452   5.543 -0.4152  0.0882 -2.5202
20624SOL     OW63004   8.145   5.156   2.232  0.4219 -0.1547  0.3753
20624SOL    HW163005   8.171   5.240   2.194 -0.9268  0.3846  0.5663
20624SOL    HW263006   8.160   5.167   2.326 -3.0556  1.2785  0.9139
20625SOL     OW63007   4.579   2.744   2.241 -0.2004 -0.1931 -0.2516
20625SOL    HW163008   4.532   2.670   2.203 -0.4764  0.1298 -0.5386
20625SOL    HW263009   4.671   2.721   2.230 -0.2822 -0.7325  0.1310
20626SOL     OW63010   6.171   6.175   7.131  0.3753 -0.2791 -0.2045
20626SOL    HW163011   6.190   6.158   7.223  0.5204  0.0455 -0.1733
20626SOL    HW263012   6.154   6.088   7.094  0.3017 -0.4084  0.1294
20627SOL     OW63013   6.656   6.602   4.464 -0.3960  0.3262 -0.0077
20627SOL    HW163014   6.712   6.619   4.388 -1.5278 -0.0891 -0.9583
20627SOL    HW263015   6.705   6.537   4.515 -0.7060 -1.3084 -1.6770
20628SOL     OW63016   9.053   0.490   4.699 -0.2911  0.1854  0.3120
20628SOL    HW163017   9.115   0.433   4.745 -0.3614  0.7917  1.1994
20628SOL    HW263018   8.975   0.489   4.755 -0.2673  1.1878  0.3702
20629SOL     OW63019   2.983   4.257   7.019  0.0141 -0.3655 -0.2569
20629SOL    HW163020   2.972   4.195   7.091 -1.3473  0.2734  0.1234
20629SOL    HW263021   2.948   4.339   7.053 -0.6220 -0.0358 -1.6359
20630SOL     OW63022   8.699   0.607   6.468  0.2936 -0.6273  0.5211
20630SOL    HW163023   8.625   0.658   6.502  0.5444 -1.2147  2.0206
20630SOL    HW263024   8.726   0.654   6.389 -1.5285 -0.2664  0.0657
20631SOL     OW63025   6.578   3.628   2.655  0.6825  0.0192 -0.8296
20631SOL    HW163026   6.613   3.716   2.668 -0.2606  0.1782  0.9469
20631SOL    HW263027   6.655   3.571   2.655  1.1842  0.6712 -0.1309
20632SOL     OW63028   0.940   2.055   1.697  0.5967  0.8264  0.1567
20632SOL    HW163029   1.021   2.091   1.663  0.9174  0.1095  0.1338
20632SOL    HW263030   0.871   2.100   1.648  1.0514 -0.4607 -1.7743
20633SOL     OW63031   5.610   8.084   7.803 -0.4147  0.4172  0.2370
20633SOL    HW163032   5.588   8.144   7.731  0.8061  0.5839 -0.0132
20633SOL    HW263033   5.678   8.027   7.767  1.8634  1.9180  1.8850
20634SOL     OW63034   1.236   5.126   3.364  0.5078  0.4684 -0.2872
20634SOL    HW163035   1.239   5.035   3.334 -0.0539  0.6799 -1.0083
20634SOL    HW263036   1.308   5.132   3.427 -0.7073 -1.0209  1.3646
20635SOL     OW63037   2.272   4.609   8.962  0.1152 -0.6025  0.1843
20635SOL    HW163038   2.356   4.565   8.969  0.2837 -0.4446 -0.6911
20635SOL    HW263039   2.265   4.661   9.042  2.3610  1.9344 -1.1004
20636SOL     OW63040   4.312   5.692   4.185  0.5175 -0.5560  0.1016
20636SOL    HW163041   4.258   5.763   4.220  1.1947 -0.3486  0.7386
20636SOL    HW263042   4.251   5.619   4.176 -0.0969 -0.0162 -0.1798
20637SOL     OW63043   3.107   4.383   1.273  0.0518  0.5406  0.7228
20637SOL    HW163044   3.171   4.329   1.319  0.8805  0.0641 -0.8913
20637SOL    HW263045   3.117   4.470   1.311  0.1366  0.0126  1.9533
20638SOL     OW63046   8.964   1.909   8.883 -0.1474  0.0678  0.1149
20638SOL    HW163047   8.869   1.913   8.878 -0.2223 -0.2490  1.0726
20638SOL    HW263048   8.982   1.881   8.973  0.8351 -0.2778 -0.1774
20639SOL     OW63049   6.421   3.127   4.328  0.2432  0.2084 -0.0978
20639SOL    HW163050   6.461   3.173   4.254 -0.7479  1.9865  0.4173
20639SOL    HW263051   6.442   3.181   4.404 -0.5218 -0.4748  0.6184
20640SOL     OW63052   1.830   8.790   2.511 -0.0113 -0.4654  0.0624
20640SOL    HW163053   1.906   8.734   2.498  0.5352  0.5437 -1.4092
20640SOL    HW263054   1.866   8.879   2.515 -0.9649 -0.1052  1.0764
20641SOL     OW63055   5.398   3.320   3.877  0.4321 -0.3505  0.0343
20641SOL    HW163056   5.314   3.340   3.836  0.1409  0.3012  0.9221
20641SOL    HW263057   5.463   3.344   3.811 -0.0181  0.9494  0.0212
20642SOL     OW63058   1.735   3.189   1.318  0.1927 -0.4025 -0.0508
20642SOL    HW163059   1.699   3.122   1.376  0.5762  0.2241  0.9421
20642SOL    HW263060   1.698   3.272   1.351 -1.9840 -0.2337 -2.5315
20643SOL     OW63061   6.335   7.611   3.673 -0.3740 -0.1874  0.4374
20643SOL    HW163062   6.401   7.587   3.608 -1.4018  0.3005 -0.8330
20643SOL    HW263063   6.320   7.531   3.722 -0.4455 -0.9242 -0.7344
20644SOL     OW63064   4.197   4.262   2.043 -0.4545  0.0183  0.0082
20644SOL    HW163065   4.170   4.237   1.954  0.6764 -1.3692  0.0177
20644SOL    HW263066   4.187   4.357   2.046  0.8670  0.2730 -2.0990
20645SOL     OW63067   0.041   1.959   6.673 -0.4677 -0.1155 -0.1569
20645SOL    HW163068   0.099   1.883   6.667 -2.4582 -1.8164  0.7732
20645SOL    HW263069   0.081   2.014   6.741  0.2836 -0.9941  0.1316
20646SOL     OW63070   5.155   2.390   4.455  0.2922  0.0868  0.8012
20646SOL    HW163071   5.206   2.329   4.401 -0.1392  0.3746  0.0673
20646SOL    HW263072   5.115   2.334   4.522  0.7537 -0.2855  0.7721
20647SOL     OW63073   6.331   1.028   5.694  0.0154  0.0591  0.2080
20647SOL    HW163074   6.396   1.067   5.752 -0.3315 -0.8532  1.2323
20647SOL    HW263075   6.332   0.935   5.716 -1.1164 -0.0818 -0.2774
20648SOL     OW63076   6.642   9.022   6.370 -0.4933  0.0927  0.0297
20648SOL    HW163077   6.692   9.003   6.449 -1.9466  0.0990  0.9966
20648SOL    HW263078   6.553   9.042   6.402 -1.3248 -0.6923 -1.6542
20649SOL     OW63079   3.073   5.188   0.556  0.2392 -0.2270 -0.0347
20649SOL    HW163080   3.059   5.124   0.626 -0.9523  1.3424  1.2532
20649SOL    HW263081   3.027   5.152   0.480 -0.3737 -0.9128  0.6496
20650SOL     OW63082   5.941   2.198   7.024 -0.6579 -0.5703 -0.2102
20650SOL    HW163083   5.881   2.199   7.099  0.4157 -2.2333  0.7508
20650SOL    HW263084   5.997   2.274   7.037 -0.9855 -0.4031  0.2447
20651SOL     OW63085   2.346   9.093   4.349 -0.0206 -0.3240 -0.0631
20651SOL    HW163086   2.278   9.125   4.290  0.1606 -0.2023 -0.2078
20651SOL    HW263087   2.382   9.172   4.389 -0.0162 -0.3929  0.0687
20652SOL     OW63088   6.648   4.305   6.332 -0.0838 -0.1898 -0.3479
20652SOL    HW163089   6.603   4.389   6.331  0.1388 -0.0728 -1.3564
20652SOL    HW263090   6.614   4.259   6.255  1.5497 -0.0859 -1.1583
20653SOL     OW63091   5.219   0.529   5.071 -0.1483  0.7332  0.6631
20653SOL    HW163092   5.130   0.498   5.059  1.2441 -4.1730  1.0679
20653SOL    HW263093   5.219   0.570   5.158 -2.0521  1.4421  0.3685
20654SOL     OW63094   7.117   7.285   6.797  0.0039 -0.0600  0.0603
20654SOL    HW163095   7.139   7.264   6.706  0.1591  0.8022 -0.1146
20654SOL    HW263096   7.195   7.329   6.831 -0.1008 -0.2649  0.5676
20655SOL     OW63097   5.182   5.691   6.371 -0.8054 -0.4526  0.2696
20655SOL    HW163098   5.182   5.597   6.390 -0.3699 -0.4378  0.3646
20655SOL    HW263099   5.116   5.728   6.429 -0.9520 -0.6948  0.2578
20656SOL     OW63100   3.649   5.483   1.571  0.0942  0.5716  0.8893
20656SOL    HW163101   3.617   5.546   1.506  0.6503 -0.3534 -0.3246
20656SOL    HW263102   3.582   5.416   1.574  1.7985 -1.4417 -1.7577
20657SOL     OW63103   4.220   2.439   0.787 -0.4020  0.1471 -0.3579
20657SOL    HW163104   4.256   2.446   0.875 -0.7750 -1.1346 -0.0813
20657SOL    HW263105   4.282   2.486   0.732 -0.5109  1.5497  0.6695
20658SOL     OW63106   3.417   9.098   7.496 -0.2745  0.2807  0.5528
20658SOL    HW163107   3.487   9.077   7.434  0.2834  0.5332  1.0934
20658SOL    HW263108   3.341   9.050   7.462  0.8778 -2.5308  1.6234
20659SOL     OW63109   3.374   6.122   5.772  0.2719  0.0492 -0.3613
20659SOL    HW163110   3.321   6.070   5.712  3.1365 -1.4496 -1.7795
20659SOL    HW263111   3.403   6.197   5.720  0.6071  0.1714 -0.0008
20660SOL     OW63112   1.897   6.999   0.140  0.7488  0.4721 -0.3212
20660SOL    HW163113   1.954   6.965   0.208 -0.1367 -0.2059  0.1069
20660SOL    HW263114   1.955   7.020   0.068  1.3145 -2.7534 -0.9617
20661SOL     OW63115   8.848   1.165   1.565  0.5897 -0.1543  0.2518
20661SOL    HW163116   8.786   1.220   1.517  0.3976 -0.5998 -0.0243
20661SOL    HW263117   8.793   1.110   1.621  0.7196 -0.6475 -0.0963
20662SOL     OW63118   3.382   8.116   7.287 -0.4571 -0.4000 -0.1513
20662SOL    HW163119   3.402   8.148   7.376 -0.4623 -0.7077 -0.0390
20662SOL    HW263120   3.289   8.097   7.289 -0.9542  1.6351 -0.8634
20663SOL     OW63121   4.568   3.810   6.841 -0.0777 -0.2300 -0.5775
20663SOL    HW163122   4.558   3.716   6.855 -0.2543 -0.3121 -1.2235
20663SOL    HW263123   4.628   3.817   6.767 -1.7907  0.1040 -1.9989
20664SOL     OW63124   6.967   5.808   4.146  0.1962 -0.0746  0.1365
20664SOL    HW163125   6.996   5.862   4.073  0.2322 -0.4551 -0.1351
20664SOL    HW263126   7.047   5.775   4.186  0.1531 -1.2888 -0.7376
20665SOL     OW63127   7.406   5.289   7.920 -0.0717  0.0474 -0.3526
20665SOL    HW163128   7.484   5.301   7.974 -0.2939  1.8479 -0.3532
20665SOL    HW263129   7.411   5.198   7.890  3.2210  0.6744 -2.1727
20666SOL     OW63130   3.551   5.588   0.781  0.8704  0.6579 -0.1728
20666SOL    HW163131   3.517   5.573   0.869 -1.2325  1.4991 -0.7902
20666SOL    HW263132   3.531   5.679   0.762  1.5699  0.5785 -1.4271
20667SOL     OW63133   3.637   6.984   2.841  0.7189  0.5285 -0.0775
20667SOL    HW163134   3.721   7.023   2.819  0.2546  1.2805 -0.5702
20667SOL    HW263135   3.611   6.937   2.762  1.8225 -1.8530  0.8821
20668SOL     OW63136   4.136   5.413   4.091  0.2119  0.3533 -0.0956
20668SOL    HW163137   4.215   5.391   4.141 -0.6563  0.0178  1.1832
20668SOL    HW263138   4.066   5.364   4.135 -0.3053 -1.6741 -2.9280
20669SOL     OW63139   1.377   6.864   3.989 -0.1751  0.1449  0.1365
20669SOL    HW163140   1.329   6.855   4.072 -2.2835 -0.5774 -1.0710
20669SOL    HW263141   1.321   6.920   3.936  1.8345  1.7785 -0.3541
20670SOL     OW63142   1.599   4.448   3.506 -0.5053  0.3520  0.8454
20670SOL    HW163143   1.541   4.524   3.514  0.0006  0.8166  0.1866
20670SOL    HW263144   1.659   4.456   3.580 -1.1615 -0.0289  1.4243
20671SOL     OW63145   6.059   4.536   3.415 -0.5074 -0.3396 -0.2849
20671SOL    HW163146   6.014   4.538   3.331 -1.6624 -1.8054  0.2474
20671SOL    HW263147   5.989   4.535   3.480  0.3571  0.1638  0.6887
20672SOL     OW63148   1.922   1.505   6.990  0.8109  0.2547 -0.7131
20672SOL    HW163149   1.980   1.548   7.053  0.9550 -0.9918  0.0309
20672SOL    HW263150   1.976   1.438   6.949  0.4839  0.5165 -1.6065
20673SOL     OW63151   3.447   1.793   0.589 -0.3509 -0.0771 -0.2370
20673SOL    HW163152   3.430   1.760   0.501  0.0038  1.3450 -0.8615
20673SOL    HW263153   3.541   1.777   0.603  0.0949  1.6127 -1.0023
20674SOL     OW63154   3.049   6.728   7.248  0.0542  0.2872 -0.6934
20674SOL    HW163155   3.008   6.807   7.214 -0.6508  0.6293  0.8885
20674SOL    HW263156   3.068   6.747   7.339 -0.8088 -1.6071 -0.0661
20675SOL     OW63157   5.272   5.195   7.120 -0.1639  0.2138  0.5296
20675SOL    HW163158   5.290   5.229   7.032 -0.4546  0.5575  0.6006
20675SOL    HW263159   5.222   5.114   7.104 -2.5059  1.6064  0.3973
20676SOL     OW63160   5.812   8.322   1.423 -0.0476  0.3908 -0.4090
20676SOL    HW163161   5.874   8.336   1.495 -1.5016  1.3140  0.7492
20676SOL    HW263162   5.865   8.322   1.344  1.3816  1.4522  0.5097
20677SOL     OW63163   5.550   5.996   4.239 -0.2559 -0.1450  0.0003
20677SOL    HW163164   5.645   6.007   4.231  0.1098 -1.9660  1.1941
20677SOL    HW263165   5.537   5.902   4.234 -2.0251  0.0946 -0.2474
20678SOL     OW63166   3.308   6.487   3.527 -0.4852 -0.3236 -0.0089
20678SOL    HW163167   3.392   6.443   3.543 -0.3486 -0.1240 -0.1785
20678SOL    HW263168   3.305   6.498   3.432 -1.5696 -2.0497 -0.2221
20679SOL     OW63169   4.717   0.996   5.965  0.2071  0.1963  0.1377
20679SOL    HW163170   4.654   0.930   5.937  1.0107 -0.4253 -0.2724
20679SOL    HW263171   4.706   1.068   5.902  1.5977 -0.9524 -1.5321
20680SOL     OW63172   8.313   7.699   4.222 -0.2139 -0.3471 -0.5534
20680SOL    HW163173   8.232   7.665   4.261  0.8731 -1.3798  0.9222
20680SOL    HW263174   8.343   7.765   4.285  0.5787 -0.6633 -0.5969
20681SOL     OW63175   8.316   0.220   5.822  0.0785  0.1543  0.4302
20681SOL    HW163176   8.293   0.230   5.730 -0.5501 -1.6106  0.3660
20681SOL    HW263177   8.347   0.130   5.830  1.9216  0.8279  1.6064
20682SOL     OW63178   9.107   0.034   6.925 -0.3477 -0.1836  1.0360
20682SOL    HW163179   9.164   0.111   6.932 -0.0684 -0.1960 -0.6058
20682SOL    HW263180   9.152  -0.034   6.975  1.3456 -0.3007 -0.4915
20683SOL     OW63181   1.205   6.960   8.793  0.5712  0.0350 -0.4098
20683SOL    HW163182   1.183   6.976   8.885  0.8097  1.3038 -0.5529
20683SOL    HW263183   1.136   6.902   8.761  0.0741  0.1834  0.3763
20684SOL     OW63184   3.938   2.505   2.927 -0.0649 -0.4021  0.5147
20684SOL    HW163185   3.886   2.498   2.847 -0.1336  1.8304  0.2871
20684SOL    HW263186   4.026   2.529   2.897 -0.5139  2.3391  1.0565
20685SOL     OW63187   1.571   0.130   2.180  0.4262  0.1060  0.0695
20685SOL    HW163188   1.626   0.090   2.113 -0.6347 -1.7751  0.2214
20685SOL    HW263189   1.483   0.129   2.142 -0.7604 -3.5955  2.3212
20686SOL     OW63190   1.787   6.338   8.013  0.1086 -0.7701  0.0544
20686SOL    HW163191   1.775   6.282   8.089 -0.4159 -0.6531  0.0634
20686SOL    HW263192   1.845   6.288   7.955 -0.4782 -1.3874 -0.0106
20687SOL     OW63193   2.562   4.752   4.247  0.1252 -0.5465  0.0417
20687SOL    HW163194   2.569   4.743   4.342  1.7633 -0.5127 -0.0482
20687SOL    HW263195   2.646   4.787   4.219 -0.0216 -1.3234 -1.5173
20688SOL     OW63196   8.226   7.422   4.449 -0.8194 -0.1623 -0.3050
20688SOL    HW163197   8.179   7.505   4.438  1.8586  1.2510 -2.2651
20688SOL    HW263198   8.189   7.383   4.528 -3.8680  1.6931 -0.6807
20689SOL     OW63199   2.158   0.277   1.288  0.5505 -0.2345 -0.2492
20689SOL    HW163200   2.200   0.287   1.373  0.2700 -0.8307 -0.0402
20689SOL    HW263201   2.085   0.218   1.303 -1.4494  2.1001 -0.2701
20690SOL     OW63202   8.311   1.953   0.845 -0.2604  0.0022 -0.0051
20690SOL    HW163203   8.232   1.941   0.794 -0.0705 -0.5007 -0.1792
20690SOL    HW263204   8.313   1.878   0.905  0.3691 -0.2844 -0.3791
20691SOL     OW63205   5.765   2.409   0.758  0.0330  0.4771  0.0298
20691SOL    HW163206   5.699   2.477   0.743  2.0395  2.0501 -2.8698
20691SOL    HW263207   5.790   2.381   0.670  2.4479 -0.7735  1.0276
20692SOL     OW63208   8.464   1.515   5.953  0.1658 -0.0554 -0.1003
20692SOL    HW163209   8.459   1.560   5.869 -0.4292  0.5503  0.2445
20692SOL    HW263210   8.545   1.547   5.993 -0.4120  1.0029  0.2824
20693SOL     OW63211   1.665   1.575   6.602  0.3390 -0.0533 -0.0181
20693SOL    HW163212   1.575   1.545   6.589  0.6516 -0.6992 -0.7540
20693SOL    HW263213   1.684   1.628   6.525  0.7532 -0.3202 -0.1010
20694SOL     OW63214   1.333   4.370   0.283  0.2557  0.4812  0.1856
20694SOL    HW163215   1.244   4.390   0.255  0.2975 -0.8503 -1.0010
20694SOL    HW263216   1.378   4.454   0.283 -0.6232  0.9662 -0.5911
20695SOL     OW63217   5.097   5.240   8.867 -0.4751 -0.0255  0.6777
20695SOL    HW163218   5.079   5.208   8.778 -0.6785  2.0291 -0.0799
20695SOL    HW263219   5.172   5.298   8.857 -0.4813  0.2128  1.8624
20696SOL     OW63220   6.950   0.050   2.488  0.6971  0.0387  1.0329
20696SOL    HW163221   6.873  -0.000   2.515  1.0924 -0.2833  1.5725
20696SOL    HW263222   6.919   0.103   2.414  0.5712 -1.8957 -0.3739
20697SOL     OW63223   1.055   8.969   5.613  0.1503  0.5548 -0.1320
20697SOL    HW163224   1.018   8.931   5.533 -0.6732  0.7552  0.1472
20697SOL    HW263225   0.979   8.981   5.671  0.7597  0.2132  0.7604
20698SOL     OW63226   1.916   0.338   2.505 -0.3502 -0.2232 -0.5294
20698SOL    HW163227   1.953   0.381   2.582 -0.4369 -0.3435 -0.4209
20698SOL    HW263228   1.829   0.376   2.496 -0.4792 -0.4716 -0.3536
20699SOL     OW63229   6.824   1.172   4.072 -0.4805 -0.1421 -0.1266
20699SOL    HW163230   6.848   1.080   4.072 -0.1944 -0.0706 -0.7128
20699SOL    HW263231   6.772   1.183   4.152 -0.0051 -0.6736  0.2667
20700SOL     OW63232   2.189   4.603   3.034  0.4405  0.2987  0.2850
20700SOL    HW163233   2.265   4.611   2.977  0.4056  0.3337  0.2435
20700SOL    HW263234   2.212   4.653   3.113  0.4904  0.2463  0.3032
20701SOL     OW63235   2.179   6.396   3.680  0.3760  0.3452  0.1747
20701SOL    HW163236   2.183   6.485   3.644  1.0710  0.5958  0.8502
20701SOL    HW263237   2.200   6.407   3.773 -2.3724 -0.1610  0.9389
20702SOL     OW63238   1.188   2.652   8.789  0.0548 -0.3846  0.3450
20702SOL    HW163239   1.231   2.583   8.739 -2.2847 -2.4433  0.9740
20702SOL    HW263240   1.245   2.665   8.865  0.8257 -1.2585 -0.0615
20703SOL     OW63241   3.692   3.227   6.348 -0.3243 -0.0319  0.2218
20703SOL    HW163242   3.722   3.199   6.435  0.8079  0.2618 -0.0595
20703SOL    HW263243   3.766   3.274   6.311 -0.9054  0.1118 -0.7920
20704SOL     OW63244   7.825   5.959   6.932  0.2067  0.5289 -0.1538
20704SOL    HW163245   7.763   5.919   6.992  2.4567 -0.2418  1.8237
20704SOL    HW263246   7.854   6.038   6.977  1.0112  0.5947 -0.7666
20705SOL     OW63247   2.327   2.813   3.326  0.4456 -0.1623 -0.2798
20705SOL    HW163248   2.418   2.801   3.300  0.5458 -0.8279  0.3386
20705SOL    HW263249   2.312   2.745   3.392 -0.2339  0.5034  0.2694
20706SOL     OW63250   7.284   2.367   6.940 -0.4287  0.5151 -0.7199
20706SOL    HW163251   7.240   2.362   6.855  0.1450  1.6196 -1.0953
20706SOL    HW263252   7.223   2.417   6.995 -1.8773 -2.1206  0.2644
20707SOL     OW63253   7.376   4.804   1.776  0.0340 -0.1919 -0.1159
20707SOL    HW163254   7.355   4.870   1.709  1.9681 -0.6574 -1.2652
20707SOL    HW263255   7.291   4.780   1.813 -0.8457  2.0074 -0.5368
20708SOL     OW63256   5.992   0.737   8.720 -0.1892 -0.4383 -0.9582
20708SOL    HW163257   6.059   0.733   8.788  0.3374 -1.5827 -1.4988
20708SOL    HW263258   5.988   0.829   8.695  2.1003 -0.4775 -1.7622
20709SOL     OW63259   4.005   0.339   1.668  0.0070  0.1928  0.5899
20709SOL    HW163260   3.919   0.297   1.671 -0.3100  0.8695  2.5374
20709SOL    HW263261   3.987   0.430   1.646  0.4721 -0.1201 -1.2365
20710SOL     OW63262   0.773   0.259   4.588  0.5358 -0.0895 -0.1744
20710SOL    HW163263   0.841   0.206   4.629  0.8573 -0.2342 -0.8897
20710SOL    HW263264   0.707   0.196   4.560 -0.1612  0.0943  0.9936
20711SOL     OW63265   8.769   8.419   0.614  0.0248  0.2859 -0.2303
20711SOL    HW163266   8.791   8.347   0.673  1.5379  1.1747  0.3540
20711SOL    HW263267   8.755   8.377   0.529 -2.3943 -1.0453  0.7247
20712SOL     OW63268   7.600   1.493   6.275  0.3995  0.0515  0.1520
20712SOL    HW163269   7.541   1.419   6.286 -1.6535  1.7062  0.9276
20712SOL    HW263270   7.662   1.485   6.348  0.9183 -1.4851 -0.4271
20713SOL     OW63271   0.797   7.062   7.168  0.0849 -0.0907  0.6005
20713SOL    HW163272   0.703   7.061   7.150 -0.1807 -0.4376  1.8529
20713SOL    HW263273   0.835   7.112   7.097 -1.1849  1.0329  0.6761
20714SOL     OW63274   5.714   5.269   0.191 -0.2792  0.2953 -0.0223
20714SOL    HW163275   5.778   5.322   0.240 -0.1905 -1.5479  2.0423
20714SOL    HW263276   5.767   5.218   0.130 -0.0548  0.4786  0.0157
20715SOL     OW63277   4.786   1.518   3.977  0.0427  0.2029  0.3745
20715SOL    HW163278   4.768   1.604   4.016 -0.9364  0.2519 -0.1575
20715SOL    HW263279   4.858   1.483   4.030  0.3162  1.2525  0.7383
20716SOL     OW63280   7.711   2.105   1.914  0.4613 -0.0141  1.0170
20716SOL    HW163281   7.785   2.067   1.867 -1.5170 -2.0817 -0.7295
20716SOL    HW263282   7.659   2.148   1.845 -0.3236  0.7696  2.0654
20717SOL     OW63283   8.156   3.124   0.179  0.2476 -0.4515  0.2686
20717SOL    HW163284   8.250   3.124   0.198  0.3020  0.1252  0.0206
20717SOL    HW263285   8.141   3.206   0.132 -0.4242 -0.4321  0.5080
20718SOL     OW63286   8.663   6.913   1.694  0.2280 -0.1058  1.3482
20718SOL    HW163287   8.572   6.889   1.708  0.2617 -0.3704  1.1231
20718SOL    HW263288   8.659   6.997   1.647  0.0629 -0.9129 -0.1616
20719SOL     OW63289   8.695   1.295   3.402 -0.1424  0.1536 -0.4030
20719SOL    HW163290   8.738   1.379   3.385  0.7256 -0.0647  0.6864
20719SOL    HW263291   8.608   1.319   3.435  0.8301  0.6970  1.9087
20720SOL     OW63292   6.701   8.472   3.827 -1.3497  0.3239  0.6655
20720SOL    HW163293   6.646   8.519   3.764 -0.5799 -0.0931 -0.3492
20720SOL    HW263294   6.697   8.381   3.800  2.6517  0.6220 -1.8045
20721SOL     OW63295   1.281   2.482   7.316 -0.1473 -0.1769 -0.1996
20721SOL    HW163296   1.334   2.554   7.282  2.7828 -1.3493  1.5820
20721SOL    HW263297   1.237   2.518   7.392  0.2106  0.1025 -0.1236
20722SOL     OW63298   0.947   5.234   6.166  0.1563 -0.2760 -0.3373
20722SOL    HW163299   1.009   5.165   6.187  0.0469 -0.4327 -0.5284
20722SOL    HW263300   0.866   5.188   6.145 -0.0598 -0.0681  0.0204
20723SOL     OW63301   0.765   4.045   4.357  0.7549 -0.0401 -0.4419
20723SOL    HW163302   0.743   3.961   4.318 -1.2664  0.6855 -0.9939
20723SOL    HW263303   0.701   4.055   4.428 -0.4391  1.9123 -1.7086
20724SOL     OW63304   3.020   4.315   7.308  0.2950 -0.2332  0.4948
20724SOL    HW163305   2.962   4.381   7.344  0.5874  0.6767 -0.6639
20724SOL    HW263306   3.059   4.273   7.385 -0.4791  0.4104  1.2514
20725SOL     OW63307   6.121   0.700   2.181 -0.1965 -0.3721 -0.4689
20725SOL    HW163308   6.103   0.630   2.119 -0.0014 -2.0217  1.2504
20725SOL    HW263309   6.188   0.665   2.239 -1.2221  0.6019  1.4123
20726SOL     OW63310   2.909   0.499   2.334  0.4050 -0.4470  0.5346
20726SOL    HW163311   3.003   0.491   2.324  0.6360  2.4670 -0.7778
20726SOL    HW263312   2.872   0.430   2.279  1.8399  0.3600 -1.5671
20727SOL     OW63313   5.895   0.251   6.220 -0.3692 -0.3932 -0.2881
20727SOL    HW163314   5.848   0.202   6.152  1.2580 -2.1152 -0.2590
20727SOL    HW263315   5.982   0.264   6.185 -0.4804  1.7707  0.1056
20728SOL     OW63316   7.251   6.390   0.179 -0.1297  0.2579 -0.0966
20728SOL    HW163317   7.325   6.419   0.232  0.0399  1.6122 -1.0135
20728SOL    HW263318   7.272   6.420   0.090 -0.5017 -1.7472 -0.9189
20729SOL     OW63319   8.303   5.295   6.752 -0.3931 -0.2335  0.2632
20729SOL    HW163320   8.210   5.280   6.733 -0.5486 -0.3832  1.1280
20729SOL    HW263321   8.314   5.269   6.843  0.3311  0.5462  0.4142
20730SOL     OW63322   1.273   3.582   7.537 -0.1129  0.3895 -0.1113
20730SOL    HW163323   1.207   3.516   7.517 -0.9446  0.8479  1.0337
20730SOL    HW263324   1.317   3.597   7.454  0.6326 -2.1539 -0.2589
20731SOL     OW63325   4.464   3.972   0.356  0.2733  0.4054  0.1025
20731SOL    HW163326   4.418   3.919   0.421  1.6184 -2.0422 -0.7945
20731SOL    HW263327   4.424   3.949   0.273  0.5343  1.2501 -0.2699
20732SOL     OW63328   7.107   3.210   6.760  0.3149 -0.5479 -0.1661
20732SOL    HW163329   7.033   3.255   6.800  0.4845 -0.5828  0.1829
20732SOL    HW263330   7.171   3.280   6.743  0.1865 -0.5095 -0.5150
20733SOL     OW63331   7.386   2.770   2.793  0.0287  0.3099  0.4986
20733SOL    HW163332   7.311   2.714   2.771  0.3262 -0.2013  0.7771
20733SOL    HW263333   7.453   2.746   2.729  0.6624 -0.6993  1.5024
20734SOL     OW63334   5.764   2.190   4.973  0.1487 -0.3416  0.2922
20734SOL    HW163335   5.762   2.136   5.052 -2.3797 -2.6642 -1.1975
20734SOL    HW263336   5.857   2.201   4.954  0.7781 -1.4775  2.4229
20735SOL     OW63337   7.997   6.374   1.871  0.6632 -0.4391  0.3136
20735SOL    HW163338   8.026   6.457   1.908  0.4549  0.0981 -0.6760
20735SOL    HW263339   7.903   6.371   1.890  0.5371 -0.1170 -0.2393
20736SOL     OW63340   6.956   5.974   8.830  0.3159  0.2004 -0.2244
20736SOL    HW163341   6.875   6.024   8.816  1.0701  1.7841  0.7285
20736SOL    HW263342   7.021   6.041   8.851  1.0149 -1.2945  2.9181
20737SOL     OW63343   3.035   4.391   2.108  0.1727  0.5235  0.0088
20737SOL    HW163344   3.002   4.317   2.059  0.5606  0.3214  0.0451
20737SOL    HW263345   3.120   4.361   2.143 -0.4354  0.3780  1.4485
20738SOL     OW63346   8.524   8.496   3.411  0.0244  0.1020 -0.1815
20738SOL    HW163347   8.483   8.463   3.331  1.0761 -0.1264 -0.6375
20738SOL    HW263348   8.450   8.521   3.467 -0.7597 -1.0339 -0.6641
20739SOL     OW63349   2.183   4.157   2.338  0.5590  0.1033  0.0242
20739SOL    HW163350   2.244   4.199   2.399 -0.1436  1.2254 -0.0179
20739SOL    HW263351   2.226   4.165   2.252  0.6879  0.2168  0.0985
20740SOL     OW63352   6.295   1.968   1.719  0.0228  0.5824  0.9343
20740SOL    HW163353   6.384   1.976   1.751  0.2249 -1.7499  1.1201
20740SOL    HW263354   6.265   1.882   1.751 -1.7401  0.6384 -0.3846
20741SOL     OW63355   5.653   8.019   8.123 -0.2252  0.3914  0.2064
20741SOL    HW163356   5.617   8.061   8.045 -1.4223  0.3330  0.7022
20741SOL    HW263357   5.654   7.926   8.102 -0.7979  0.3484  0.3373
20742SOL     OW63358   1.352   0.446   6.933  0.2364 -0.1523 -0.3416
20742SOL    HW163359   1.269   0.458   6.978 -1.1587 -3.3659 -1.7140
20742SOL    HW263360   1.409   0.404   6.997  0.4748  1.0915  0.2802
20743SOL     OW63361   7.898   7.926   2.211  0.1008 -0.2688  0.4185
20743SOL    HW163362   7.835   7.900   2.144 -1.2746  2.1034  0.6918
20743SOL    HW263363   7.875   8.016   2.232  0.2888 -0.9419  4.2737
20744SOL     OW63364   4.915   5.410   4.564 -0.2026 -0.0087 -0.0744
20744SOL    HW163365   4.824   5.380   4.562 -0.4379  0.6950  0.0379
20744SOL    HW263366   4.915   5.481   4.628  0.0133  1.3284 -1.5094
20745SOL     OW63367   1.128   2.661   6.934 -0.3557  0.3851 -0.4920
20745SOL    HW163368   1.096   2.571   6.935  2.9998 -0.9842  0.8616
20745SOL    HW263369   1.168   2.671   6.848  1.0671 -0.2403  0.0569
20746SOL     OW63370   4.942   8.514   3.774  0.2741 -0.3354 -0.0413
20746SOL    HW163371   4.966   8.586   3.831 -0.1457 -0.3755  0.1914
20746SOL    HW263372   4.924   8.441   3.833 -1.5567  0.0127 -0.0945
20747SOL     OW63373   0.235   8.820   4.790 -0.3532 -0.3178  0.7415
20747SOL    HW163374   0.264   8.735   4.760  0.0578 -0.0754  0.4506
20747SOL    HW263375   0.242   8.877   4.713 -1.2438 -0.1678  0.7546
20748SOL     OW63376   1.097   3.804   5.621 -0.2333  0.2696  0.1784
20748SOL    HW163377   1.024   3.864   5.601  0.0073  0.3733 -0.4125
20748SOL    HW263378   1.077   3.771   5.709 -1.6247 -0.6313 -0.4335
20749SOL     OW63379   8.983   3.651   4.624 -0.1028  0.0650 -0.6481
20749SOL    HW163380   8.906   3.625   4.675 -0.3402  1.0353 -0.5053
20749SOL    HW263381   8.947   3.702   4.551  0.4000  0.4208 -0.6494
20750SOL     OW63382   0.916   2.778   1.955  0.0774 -0.1896 -0.3313
20750SOL    HW163383   0.987   2.820   2.003  0.3422  0.2667 -1.0939
20750SOL    HW263384   0.837   2.799   2.004  0.3701  0.0493  0.0379
20751SOL     OW63385   6.675   5.078   5.191 -0.1933 -0.2762  0.2122
20751SOL    HW163386   6.717   4.992   5.188 -0.4291 -0.3895  0.1449
20751SOL    HW263387   6.710   5.118   5.270  0.0658 -0.3576  0.1405
20752SOL     OW63388   7.950   4.976   5.012 -0.5510  0.6188 -0.1705
20752SOL    HW163389   8.011   5.043   5.042  0.0372  0.1840 -0.3786
20752SOL    HW263390   7.990   4.941   4.932 -0.1828 -0.8923  0.6384
20753SOL     OW63391   2.368   1.247   7.361  0.0904 -0.4009 -0.4375
20753SOL    HW163392   2.332   1.178   7.305 -1.5883  0.4472 -0.4792
20753SOL    HW263393   2.345   1.328   7.315  2.2719  0.2179 -0.5369
20754SOL     OW63394   2.343   3.620   4.600 -0.3118 -0.3273  0.3456
20754SOL    HW163395   2.398   3.698   4.609 -2.5867  1.2422  1.8155
20754SOL    HW263396   2.294   3.634   4.520  0.0818 -0.8252  0.0121
20755SOL     OW63397   1.358   3.279   3.649 -0.7255  0.3124 -0.0657
20755SOL    HW163398   1.420   3.333   3.598  0.4457  0.0957  1.0834
20755SOL    HW263399   1.398   3.273   3.736 -1.8705 -0.7071  0.4057
20756SOL     OW63400   5.831   1.591   3.619  0.7652 -0.5702 -0.0343
20756SOL    HW163401   5.834   1.681   3.588 -1.2884  0.4855  2.4529
20756SOL    HW263402   5.915   1.578   3.663  1.3422 -0.1470 -0.9715
20757SOL     OW63403   8.742   3.490   5.266  0.0134  0.1337 -0.2612
20757SOL    HW163404   8.730   3.494   5.361  0.6316 -0.4139 -0.1496
20757SOL    HW263405   8.668   3.540   5.230 -0.1014  0.5367  0.5091
20758SOL     OW63406   1.201   4.394   5.275  0.4719  0.0393  0.0523
20758SOL    HW163407   1.257   4.319   5.257  0.1269 -0.3063  0.4186
20758SOL    HW263408   1.116   4.370   5.239  0.7842  0.9641 -1.4011
20759SOL     OW63409   7.223   0.845   3.178  0.2909  0.1033 -0.4629
20759SOL    HW163410   7.286   0.899   3.226  0.0382 -0.2865  0.3181
20759SOL    HW263411   7.202   0.897   3.100 -0.8438  1.7309  0.8380
20760SOL     OW63412   6.408   5.559   3.877  0.4719  0.2315 -0.0737
20760SOL    HW163413   6.392   5.474   3.837  1.8316  0.8959 -2.2043
20760SOL    HW263414   6.363   5.621   3.819  0.7547  1.0777  0.5976
20761SOL     OW63415   4.474   5.089   0.673 -0.0270  0.0143 -0.3233
20761SOL    HW163416   4.447   5.158   0.612 -2.0404 -0.6615 -0.2611
20761SOL    HW263417   4.426   5.108   0.753  1.1821 -0.1704  0.4659
20762SOL     OW63418   0.622   0.898   5.330 -0.4406 -0.4431  0.1204
20762SOL    HW163419   0.545   0.924   5.381 -1.3087 -0.0260 -1.3539
20762SOL    HW263420   0.590   0.828   5.273  0.6186 -1.1848  0.4118
20763SOL     OW63421   3.453   8.165   2.427  0.4371  0.3701  0.2598
20763SOL    HW163422   3.362   8.188   2.409  0.3942  1.4789  1.6989
20763SOL    HW263423   3.450   8.121   2.512  1.2451  0.3494  0.2836
20764SOL     OW63424   4.352   0.484   7.864 -0.6045 -0.2165  0.6566
20764SOL    HW163425   4.362   0.571   7.900 -0.4619  0.2578 -0.4780
20764SOL    HW263426   4.432   0.438   7.889 -0.4864  0.1127  0.8870
20765SOL     OW63427   9.072   6.263   5.395  0.0681 -0.3401 -0.6423
20765SOL    HW163428   8.992   6.244   5.445  0.1031 -1.0843 -0.8552
20765SOL    HW263429   9.046   6.252   5.304  0.8304 -2.3605 -0.6585
20766SOL     OW63430   6.634   4.250   1.643  0.3340 -0.2364 -0.7369
20766SOL    HW163431   6.544   4.282   1.650  0.0074 -1.2408 -0.1658
20766SOL    HW263432   6.675   4.276   1.726  0.4534 -0.1639 -0.8169
20767SOL     OW63433   8.675   6.266   0.065 -0.2028 -0.9112 -0.0516
20767SOL    HW163434   8.735   6.217   0.121 -0.4338 -0.0293  0.9915
20767SOL    HW263435   8.700   6.241  -0.024  1.2487 -1.0923  0.3810
20768SOL     OW63436   8.517   6.592   4.151 -0.0026  0.2598 -0.0154
20768SOL    HW163437   8.422   6.579   4.152 -0.0379  0.4264 -0.6256
20768SOL    HW263438   8.554   6.505   4.162 -0.2304  0.2200  0.4241
20769SOL     OW63439   7.030   7.539   5.012  0.1757  0.2569 -0.1772
20769SOL    HW163440   6.996   7.520   5.099 -2.1743 -1.1581 -1.2808
20769SOL    HW263441   7.062   7.629   5.018 -0.6277  0.4670  1.9431
20770SOL     OW63442   4.543   6.549   1.286  0.3487  0.2848 -0.2636
20770SOL    HW163443   4.489   6.470   1.290  0.0642  0.5005  0.4755
20770SOL    HW263444   4.606   6.533   1.216  1.2692 -1.2164  0.8445
20771SOL     OW63445   2.883   0.342   9.037 -0.1785  0.2466 -0.4023
20771SOL    HW163446   2.947   0.339   8.965  1.1861 -0.2227  0.7788
20771SOL    HW263447   2.875   0.251   9.065 -0.4593  0.4696  0.2359
20772SOL     OW63448   0.055   8.929   2.217 -0.2004  0.3763 -0.6216
20772SOL    HW163449  -0.017   8.983   2.247  0.8826  1.2284  0.4972
20772SOL    HW263450   0.021   8.839   2.220 -0.8147  0.6370  1.1467
20773SOL     OW63451   5.585   6.084   1.972  0.4625  0.8562 -0.6105
20773SOL    HW163452   5.502   6.096   1.927  0.4348 -0.3361 -0.9151
20773SOL    HW263453   5.649   6.067   1.902  0.5558 -0.2765 -0.2822
20774SOL     OW63454   2.674   8.882   6.383 -0.3322 -0.2836 -0.8025
20774SOL    HW163455   2.726   8.962   6.398 -0.6460 -0.5260  2.1220
20774SOL    HW263456   2.737   8.811   6.396 -0.3840 -0.5439 -1.9342
20775SOL     OW63457   0.777   4.142   1.972  0.2703 -0.2851  0.1269
20775SOL    HW163458   0.775   4.075   2.040 -4.0105 -1.5602 -0.9600
20775SOL    HW263459   0.745   4.221   2.016 -1.2213 -0.7682 -0.0534
20776SOL     OW63460   1.213   4.190   4.131 -0.3632 -0.0779  0.6038
20776SOL    HW163461   1.131   4.199   4.179 -0.7479 -0.4172  0.0182
20776SOL    HW263462   1.255   4.112   4.167 -0.7548 -0.4584  0.2338
20777SOL     OW63463   7.944   0.209   4.126  0.8421  0.2005  0.1883
20777SOL    HW163464   7.936   0.299   4.094  0.3801  0.6223  1.4413
20777SOL    HW263465   7.862   0.193   4.173  1.2087 -0.6322  0.5569
20778SOL     OW63466   3.390   2.723   5.055 -0.0512 -0.5601  0.1962
20778SOL    HW163467   3.485   2.709   5.057  0.0266 -0.0249  0.3952
20778SOL    HW263468   3.353   2.638   5.080  0.3567 -0.9652 -0.5214
20779SOL     OW63469   4.306   0.713   8.081 -0.2318  0.2097  0.1771
20779SOL    HW163470   4.284   0.622   8.102  1.4892  0.2924  2.6181
20779SOL    HW263471   4.222   0.759   8.085 -1.1679 -1.2262 -1.3037
20780SOL     OW63472   0.841   4.280   2.964  0.5591 -0.4247  0.4422
20780SOL    HW163473   0.921   4.293   3.014  1.5801  0.9713 -1.4457
20780SOL    HW263474   0.812   4.369   2.943 -1.2635 -0.9195  0.6938
20781SOL     OW63475   2.522   8.562   8.750  0.2276 -0.0927 -0.2321
20781SOL    HW163476   2.570   8.545   8.669  0.7699 -0.8323  0.2287
20781SOL    HW263477   2.581   8.614   8.804 -0.2892  0.7410 -0.4655
20782SOL     OW63478   6.907   5.271   6.690 -0.0137 -0.1224 -0.6524
20782SOL    HW163479   6.926   5.349   6.639  1.3347 -0.4150 -0.6472
20782SOL    HW263480   6.987   5.219   6.684 -0.5546 -1.0727  0.1102
20783SOL     OW63481   0.219   1.685   1.871 -0.1346 -0.0038 -0.2866
20783SOL    HW163482   0.192   1.596   1.846 -0.7477  0.4294 -1.2256
20783SOL    HW263483   0.200   1.738   1.794  1.0380  0.7951 -0.0422
20784SOL     OW63484   0.836   3.644   3.564  0.2482 -0.4845  0.0187
20784SOL    HW163485   0.894   3.683   3.499 -0.1208  0.9705  0.5203
20784SOL    HW263486   0.843   3.550   3.550  1.7246 -0.2789 -0.7776
20785SOL     OW63487   2.689   4.138   8.156  0.1248 -0.2820 -0.1940
20785SOL    HW163488   2.699   4.079   8.082 -0.1402 -0.4054 -0.1304
20785SOL    HW263489   2.771   4.187   8.159 -0.7337  1.3932 -2.0173
20786SOL     OW63490   1.257   8.602   1.506 -0.0072  0.3158  0.2982
20786SOL    HW163491   1.207   8.631   1.583 -0.0255  0.2592  0.3077
20786SOL    HW263492   1.206   8.634   1.432  0.2363  0.7515  0.3128
20787SOL     OW63493   1.846   5.114   2.575  0.7110  0.1545  0.3082
20787SOL    HW163494   1.855   5.095   2.669  0.0894  1.4454  0.6479
20787SOL    HW263495   1.869   5.032   2.532  2.9936  0.0943  1.5036
20788SOL     OW63496   1.320   8.594   5.460 -0.1966  0.3847  0.2075
20788SOL    HW163497   1.250   8.552   5.410 -1.1420  3.2048 -1.0775
20788SOL    HW263498   1.275   8.644   5.528  0.5790  1.6267 -0.1556
20789SOL     OW63499   2.301   3.323   4.336  0.1358 -0.0348 -0.1356
20789SOL    HW163500   2.337   3.234   4.334  0.3183  0.0435 -0.3289
20789SOL    HW263501   2.246   3.325   4.414  1.5516  0.2338  0.8904
20790SOL     OW63502   1.710   6.706   3.162  0.9810 -0.4222  0.1263
20790SOL    HW163503   1.625   6.748   3.155  1.0856 -0.0778  0.8235
20790SOL    HW263504   1.691   6.612   3.157  0.5532 -0.3469  0.3576
20791SOL     OW63505   6.077   0.722   4.978  0.4876  0.8474  0.1732
20791SOL    HW163506   6.165   0.688   4.959  1.0569  1.6103  1.3907
20791SOL    HW263507   6.030   0.646   5.013  0.3600  0.2128 -1.2647
20792SOL     OW63508   3.059   7.097   6.710 -0.5766  0.1097 -0.4320
20792SOL    HW163509   3.049   7.031   6.778  0.0654 -0.0745 -0.5109
20792SOL    HW263510   2.974   7.140   6.705 -0.8271 -0.3340  0.0116
20793SOL     OW63511   7.215   4.112   0.035  0.8538  0.2846  0.2552
20793SOL    HW163512   7.180   4.124   0.123  0.6108  0.0351  0.1950
20793SOL    HW263513   7.310   4.108   0.047  0.8123  0.0661  0.5279
20794SOL     OW63514   4.236   1.118   3.686  0.5708  0.1668 -1.1032
20794SOL    HW163515   4.332   1.123   3.679  0.8538  0.4612  1.7654
20794SOL    HW263516   4.215   1.027   3.666  1.7658 -0.5168  0.5223
20795SOL     OW63517   9.005   3.482   7.328 -0.4134  0.4683 -0.3693
20795SOL    HW163518   8.949   3.433   7.267 -0.4341  0.6460 -0.4929
20795SOL    HW263519   9.089   3.488   7.282  0.1051 -0.8996  0.3375
20796SOL     OW63520   0.652   2.490   0.402  0.1718  0.1634 -0.4448
20796SOL    HW163521   0.700   2.524   0.326 -0.9356  0.5396 -0.9961
20796SOL    HW263522   0.564   2.526   0.393  0.0032  0.1954  1.0142
20797SOL     OW63523   3.585   1.590   5.719  0.1944 -0.0965 -0.2556
20797SOL    HW163524   3.639   1.543   5.783 -0.7479 -2.2935 -0.9664
20797SOL    HW263525   3.643   1.603   5.644  0.2372 -0.9710 -0.3888
20798SOL     OW63526   5.303   2.845   2.107 -0.3052  0.5007  0.1527
20798SOL    HW163527   5.245   2.895   2.050 -0.1210 -1.3069 -1.7024
20798SOL    HW263528   5.389   2.884   2.095 -0.1060 -0.3932 -1.5144
20799SOL     OW63529   1.180   5.591   4.584 -0.2202 -0.3639  0.1000
20799SOL    HW163530   1.106   5.547   4.543  0.6623 -2.2512  0.4639
20799SOL    HW263531   1.176   5.681   4.550 -1.9723 -0.7377 -0.7758
20800SOL     OW63532   4.818   8.004   0.373  0.1723 -0.4407  0.6127
20800SOL    HW163533   4.775   7.932   0.327 -0.2119  0.9586 -1.3403
20800SOL    HW263534   4.747   8.054   0.413  0.1941  0.2774 -0.2174
20801SOL     OW63535   7.142   2.423   2.208 -0.2507 -0.8231 -0.3849
20801SOL    HW163536   7.231   2.416   2.176 -0.9370  0.2442 -2.7394
20801SOL    HW263537   7.137   2.510   2.248 -0.6452 -0.1906 -1.7685
20802SOL     OW63538   6.262   6.278   6.889 -0.3728 -1.7021 -0.3936
20802SOL    HW163539   6.233   6.216   6.822  0.4270 -3.3349  0.6940
20802SOL    HW263540   6.249   6.232   6.971  0.2721 -0.4133  0.4672
20803SOL     OW63541   0.873   6.434   2.378  0.0478 -0.0615  0.0694
20803SOL    HW163542   0.901   6.346   2.354  0.6157  0.2816 -0.5916
20803SOL    HW263543   0.797   6.422   2.435 -0.8596 -0.9521 -1.2745
20804SOL     OW63544   8.471   4.388   2.672 -0.5714  0.3266  0.4126
20804SOL    HW163545   8.480   4.402   2.767 -0.6399 -0.5913  0.5639
20804SOL    HW263546   8.398   4.327   2.664  0.3202 -0.6948 -0.1461
20805SOL     OW63547   1.334   3.884   5.827 -0.0456 -0.0440 -0.0602
20805SOL    HW163548   1.306   3.864   5.917  0.5408  0.2668  0.1978
20805SOL    HW263549   1.307   3.807   5.776 -0.0057 -0.4127  0.4641
20806SOL     OW63550   2.859   7.997   5.893  0.1678  0.4760  0.4338
20806SOL    HW163551   2.799   7.927   5.869  0.6145 -1.2828  3.8069
20806SOL    HW263552   2.810   8.077   5.874 -1.8635 -0.8242 -0.1622
20807SOL     OW63553   8.334   8.769   1.783  0.0387  0.3692  0.0063
20807SOL    HW163554   8.397   8.810   1.725 -0.3188 -1.2058 -1.6048
20807SOL    HW263555   8.377   8.690   1.814 -1.0891 -0.7667 -1.1699
20808SOL     OW63556   2.343   8.576   5.823  0.3628  0.4049  0.2863
20808SOL    HW163557   2.381   8.611   5.904  0.4101 -0.4635  0.6496
20808SOL    HW263558   2.310   8.489   5.848 -1.1067  0.7919 -0.2219
20809SOL     OW63559   7.359   5.283   5.248  0.1841  0.1058 -0.5227
20809SOL    HW163560   7.431   5.220   5.257  0.3010  0.2546 -0.4049
20809SOL    HW263561   7.289   5.234   5.205 -0.0934 -0.3920  0.4771
20810SOL     OW63562   5.523   0.704   2.587  0.1196 -0.5551  0.8618
20810SOL    HW163563   5.593   0.641   2.571 -0.7623 -1.0547 -1.4163
20810SOL    HW263564   5.444   0.650   2.598 -1.1387 -0.0625 -3.5609
20811SOL     OW63565   0.302   3.328   0.250 -0.1001 -0.5039  0.1681
20811SOL    HW163566   0.285   3.399   0.312 -0.4999 -0.1024 -0.3937
20811SOL    HW263567   0.387   3.292   0.277 -0.0802 -0.0675  0.6953
20812SOL     OW63568   3.812   7.752   8.767 -0.1386  0.0291  0.0910
20812SOL    HW163569   3.865   7.697   8.825 -0.5572 -0.8289 -0.3147
20812SOL    HW263570   3.725   7.712   8.770 -0.5656  0.9400  0.1237
20813SOL     OW63571   4.317   4.309   1.448  0.1167 -0.1832 -0.7123
20813SOL    HW163572   4.322   4.387   1.393 -0.2701 -0.1474 -0.6984
20813SOL    HW263573   4.295   4.342   1.535  0.7511 -0.2382 -0.5234
20814SOL     OW63574   3.353   5.622   0.459 -0.2489  0.3791 -0.3530
20814SOL    HW163575   3.310   5.549   0.415 -0.6151  0.5228 -0.2400
20814SOL    HW263576   3.442   5.592   0.475  0.1295  0.6072 -1.8930
20815SOL     OW63577   5.797   3.386   7.620 -0.7795 -0.3761  0.4512
20815SOL    HW163578   5.855   3.320   7.582 -0.7797 -1.2916  1.9453
20815SOL    HW263579   5.855   3.458   7.645 -0.8508  0.5116 -1.7097
20816SOL     OW63580   0.520   0.883   2.414  0.4618 -0.5815  0.2514
20816SOL    HW163581   0.589   0.938   2.376 -0.1146 -1.3715 -2.0925
20816SOL    HW263582   0.441   0.938   2.411  0.7250 -0.0672  1.9131
20817SOL     OW63583   8.201   4.802   6.797  0.0846  0.4117 -0.0299
20817SOL    HW163584   8.150   4.781   6.719  0.0692 -1.6528  0.4793
20817SOL    HW263585   8.195   4.898   6.805 -1.2480  0.5000 -1.6204
20818SOL     OW63586   0.918   8.045   1.504 -0.3731 -0.1789  0.0421
20818SOL    HW163587   0.959   7.959   1.515 -1.7831 -0.6891  1.8459
20818SOL    HW263588   0.989   8.107   1.518  0.4810 -1.0443 -0.3507
20819SOL     OW63589   4.262   2.460   8.458 -0.3683 -0.2769  0.2786
20819SOL    HW163590   4.225   2.449   8.370  0.8272 -0.8798 -0.1752
20819SOL    HW263591   4.352   2.487   8.442 -0.6133  1.2459  1.3540
20820SOL     OW63592   1.202   3.298   7.343  0.0094 -0.3260  0.4966
20820SOL    HW163593   1.236   3.210   7.332  0.3190 -0.2882  1.0990
20820SOL    HW263594   1.257   3.353   7.287  2.1432  0.0025  2.7730
20821SOL     OW63595   6.941   2.382   0.584 -0.1878  0.6632  0.0976
20821SOL    HW163596   6.934   2.477   0.586  1.7770  0.8573  0.4454
20821SOL    HW263597   7.024   2.365   0.538  0.3294 -0.7910  1.4568
20822SOL     OW63598   7.391   1.092   6.465  0.0852  0.1560  0.1635
20822SOL    HW163599   7.360   1.179   6.441 -0.1560 -0.3251 -1.3769
20822SOL    HW263600   7.481   1.106   6.494  0.3375  0.8243 -0.8857
20823SOL     OW63601   6.494   1.168   5.129  0.0249  0.0071  0.1913
20823SOL    HW163602   6.565   1.232   5.121  1.3179 -1.2985  0.7322
20823SOL    HW263603   6.416   1.221   5.146  1.1038  1.4130  0.9878
20824SOL     OW63604   7.228   7.840   9.081  0.0299 -0.0697 -0.2893
20824SOL    HW163605   7.203   7.900   9.151  1.6291 -0.6262  0.8191
20824SOL    HW263606   7.184   7.874   9.004 -0.1349  1.7890  0.5571
20825SOL     OW63607   7.530   4.352   7.304  0.2947 -0.0826  0.2004
20825SOL    HW163608   7.557   4.312   7.221 -2.5700 -0.3052 -0.7538
20825SOL    HW263609   7.441   4.319   7.318 -0.1605  1.7745  2.1771
20826SOL     OW63610   0.904   3.048   5.742  0.0859  0.1341 -0.0514
20826SOL    HW163611   0.808   3.043   5.742  0.0981 -0.4272  1.1138
20826SOL    HW263612   0.931   2.977   5.684 -0.2171  2.0414 -2.7019
20827SOL     OW63613   0.692   0.952   8.179  0.1722  0.0740 -0.4714
20827SOL    HW163614   0.719   0.962   8.270  2.5660 -2.1225 -0.7926
20827SOL    HW263615   0.718   1.034   8.137  0.9924  0.3009  0.4412
20828SOL     OW63616   2.524   8.045   6.268  0.3554 -0.1721 -0.0045
20828SOL    HW163617   2.505   7.959   6.231 -2.1106  0.2701  0.0284
20828SOL    HW263618   2.618   8.055   6.259  0.4964 -2.1818 -1.5201
20829SOL     OW63619   2.199   8.252   0.325 -0.2727 -0.4491  0.1265
20829SOL    HW163620   2.265   8.217   0.384  0.1206 -0.4195 -0.2922
20829SOL    HW263621   2.245   8.319   0.274 -0.2220 -1.4557 -1.2041
20830SOL     OW63622   5.259   2.737   6.715  0.4874 -0.3359 -0.0320
20830SOL    HW163623   5.351   2.748   6.690  0.1684 -0.3671 -1.3313
20830SOL    HW263624   5.228   2.666   6.659 -0.1543 -0.8144  0.9052
20831SOL     OW63625   1.903   4.179   3.468  0.1547 -0.1548  0.9412
20831SOL    HW163626   1.954   4.224   3.536  1.2818  0.2534 -0.1274
20831SOL    HW263627   1.967   4.160   3.399 -1.2910  1.1973 -0.8776
20832SOL     OW63628   6.172   8.462   6.576  0.4602  0.4470  0.5044
20832SOL    HW163629   6.150   8.374   6.605 -0.8648  1.0396  1.3962
20832SOL    HW263630   6.093   8.494   6.533  1.6838  0.3843 -1.9793
20833SOL     OW63631   6.816   7.209   2.473 -0.4912 -0.1407 -0.2960
20833SOL    HW163632   6.771   7.156   2.539  0.8879  0.5833  1.2975
20833SOL    HW263633   6.858   7.144   2.416  0.1869 -0.8136  0.9196
20834SOL     OW63634   6.179   1.328   4.125  0.2246 -0.0165 -0.3570
20834SOL    HW163635   6.228   1.251   4.155  0.6556  0.5156  0.3452
20834SOL    HW263636   6.094   1.293   4.098 -0.7465 -0.4204  2.7773
20835SOL     OW63637   1.895   3.346   3.614  0.0272  0.0658  0.2731
20835SOL    HW163638   1.824   3.296   3.574 -0.7933 -1.4549  3.3315
20835SOL    HW263639   1.878   3.437   3.589 -1.9447 -0.4852 -0.5414
20836SOL     OW63640   3.724   2.932   6.086 -0.2078  0.5208  0.2668
20836SOL    HW163641   3.750   2.900   6.173  0.7972 -3.3847 -1.2668
20836SOL    HW263642   3.787   3.001   6.066  0.7991  0.1080  1.8278
20837SOL     OW63643   4.275   6.875   5.132 -0.1538  0.5120 -0.4622
20837SOL    HW163644   4.312   6.806   5.077  0.9122  0.1021  0.7374
20837SOL    HW263645   4.266   6.835   5.218  0.3121  1.8048  0.2129
20838SOL     OW63646   2.777   2.365   6.303 -0.2530  0.0797 -0.1679
20838SOL    HW163647   2.730   2.430   6.251 -0.5773 -1.3754 -1.8188
20838SOL    HW263648   2.869   2.381   6.283 -0.3840 -0.6315 -1.5003
20839SOL     OW63649   0.751   3.428   4.900  0.1412  0.0431 -0.7574
20839SOL    HW163650   0.785   3.444   4.811  0.3316 -0.3578 -0.7572
20839SOL    HW263651   0.656   3.440   4.892  0.0766 -0.6773 -1.1747
20840SOL     OW63652   6.737   6.801   5.431 -0.0837  0.5206  0.3555
20840SOL    HW163653   6.662   6.856   5.407 -0.6997  0.4117  1.9223
20840SOL    HW263654   6.717   6.716   5.392 -0.9574  0.4031  1.0211
20841SOL     OW63655   7.303   4.979   9.065 -0.6584 -0.2076  0.1140
20841SOL    HW163656   7.362   5.022   9.003  0.4193  0.8868  1.8129
20841SOL    HW263657   7.319   4.885   9.053 -1.2540 -0.0841 -1.9601
20842SOL     OW63658   2.890   6.563   5.736  0.2944  0.2824  0.5895
20842SOL    HW163659   2.937   6.480   5.727 -1.1608 -0.5152  0.2225
20842SOL    HW263660   2.948   6.616   5.792  1.8060 -0.5175 -0.1384
20843SOL     OW63661   5.576   6.187   2.881 -0.0027 -0.0462  0.3617
20843SOL    HW163662   5.548   6.264   2.832 -0.4274  0.8109  1.8697
20843SOL    HW263663   5.494   6.148   2.912  0.2786  0.0243  1.2274
20844SOL     OW63664   3.692   7.521   5.091 -0.2900 -0.6247  0.8451
20844SOL    HW163665   3.654   7.486   5.172 -1.8203  0.1920  0.5216
20844SOL    HW263666   3.671   7.614   5.093 -1.4592 -0.7946 -1.0486
20845SOL     OW63667   8.566   6.329   4.075  0.0389 -0.1878 -0.3964
20845SOL    HW163668   8.542   6.246   4.117 -1.0445  0.9580  1.3793
20845SOL    HW263669   8.513   6.331   3.995 -0.2672 -0.9986 -0.2280
20846SOL     OW63670   8.808   5.045   6.554  0.6679 -0.8257  0.0790
20846SOL    HW163671   8.862   5.077   6.627  1.3913  2.6309 -1.7546
20846SOL    HW263672   8.719   5.043   6.590  0.5529  3.3992  0.5685
20847SOL     OW63673   3.124   7.960   0.801  0.1631 -0.5143 -0.3835
20847SOL    HW163674   3.076   8.003   0.872 -0.3082 -0.5888 -0.6552
20847SOL    HW263675   3.215   7.987   0.815 -0.0002 -0.1209 -0.0470
20848SOL     OW63676   7.802   7.995   4.594 -0.5288  0.4947  0.0278
20848SOL    HW163677   7.810   8.010   4.499  2.8186  1.6571  0.3545
20848SOL    HW263678   7.708   8.000   4.611 -1.2480  0.4523 -3.1704
20849SOL     OW63679   5.228   2.507   7.559 -0.6290 -0.0979  0.0046
20849SOL    HW163680   5.194   2.542   7.477  0.2296  1.5510  0.3128
20849SOL    HW263681   5.180   2.426   7.572 -1.1145 -0.1674 -1.8911
20850SOL     OW63682   5.080   8.726   0.886 -0.1958 -0.3942  0.2406
20850SOL    HW163683   5.089   8.821   0.873  1.0711 -0.5968 -0.5469
20850SOL    HW263684   5.159   8.689   0.847  1.8962 -1.4511  4.8087
20851SOL     OW63685   5.817   7.537   5.991 -0.1886  0.2177  0.0715
20851SOL    HW163686   5.851   7.467   6.047  0.2390 -0.7194 -1.3187
20851SOL    HW263687   5.784   7.493   5.913 -1.1325  1.4587 -0.2779
20852SOL     OW63688   6.747   4.901   0.760 -0.2820 -0.3945  0.0392
20852SOL    HW163689   6.731   4.978   0.705 -0.6260  0.1071  0.8268
20852SOL    HW263690   6.785   4.936   0.840 -1.4070 -0.9291  0.8258
20853SOL     OW63691   0.878   3.221   7.945  0.0907  0.2190  0.5551
20853SOL    HW163692   0.808   3.156   7.942 -0.0491  0.2835  1.8023
20853SOL    HW263693   0.931   3.204   7.867 -0.2530 -1.0310  0.5778
20854SOL     OW63694   2.405   4.165   1.611 -0.2960 -0.0586 -0.2370
20854SOL    HW163695   2.460   4.102   1.563 -0.1093 -0.5949  0.6641
20854SOL    HW263696   2.410   4.137   1.702 -0.9968  0.6956  0.0448
20855SOL     OW63697   6.132   6.460   7.094  0.1666 -0.6664  0.3352
20855SOL    HW163698   6.209   6.509   7.125  0.3795  0.4639 -1.8198
20855SOL    HW263699   6.165   6.372   7.079  0.7718 -0.4753  0.4881
20856SOL     OW63700   6.913   6.545   1.526  0.1220  0.2040 -0.1980
20856SOL    HW163701   6.865   6.514   1.603  0.2801  0.1554 -0.1174
20856SOL    HW263702   6.956   6.466   1.492 -0.3389  0.1309 -0.6240
20857SOL     OW63703   1.338   5.229   1.840  0.2151  0.2196  0.0049
20857SOL    HW163704   1.266   5.181   1.879 -0.9418  1.9047  0.0417
20857SOL    HW263705   1.314   5.239   1.748 -0.0377  1.5249  0.1971
20858SOL     OW63706   4.764   5.867   5.123  0.5449  0.7755  0.2935
20858SOL    HW163707   4.732   5.901   5.039  2.7836  1.2936 -0.4211
20858SOL    HW263708   4.848   5.912   5.136  1.0488 -0.5675  1.9886
20859SOL     OW63709   0.967   5.130   8.634  0.0959  0.2536 -0.5981
20859SOL    HW163710   0.898   5.079   8.676 -0.6168  1.0495 -0.7712
20859SOL    HW263711   1.043   5.072   8.634 -0.5317 -0.5925 -0.2868
20860SOL     OW63712   0.229   3.397   6.448  0.4341 -0.2984  0.1838
20860SOL    HW163713   0.314   3.397   6.493 -0.0872 -1.2068  1.2414
20860SOL    HW263714   0.221   3.485   6.411  1.3371  0.1685  1.0433
20861SOL     OW63715   8.716   0.192   6.321  0.1091 -0.1950 -0.3845
20861SOL    HW163716   8.751   0.242   6.396 -1.0508  1.3241 -0.8024
20861SOL    HW263717   8.748   0.103   6.335  0.2631  0.1243  1.7133
20862SOL     OW63718   1.727   1.192   8.943 -0.3019 -0.4139  0.5481
20862SOL    HW163719   1.719   1.201   8.848 -0.9767 -1.0762  0.5298
20862SOL    HW263720   1.757   1.277   8.973 -0.2055 -0.1620 -0.2507
20863SOL     OW63721   0.257   1.108   3.510  0.0613 -0.0520 -0.0393
20863SOL    HW163722   0.337   1.084   3.464  0.3521  3.5901 -1.8055
20863SOL    HW263723   0.186   1.077   3.454  0.2659 -0.9027  0.1596
20864SOL     OW63724   7.852   4.570   1.531 -0.4536  0.0748  0.1319
20864SOL    HW163725   7.788   4.499   1.534  1.8513 -2.1098  1.0482
20864SOL    HW263726   7.803   4.645   1.497 -2.5890 -2.3881 -2.7867
20865SOL     OW63727   1.945   4.134   1.778  0.5278 -0.2349  0.5954
20865SOL    HW163728   2.018   4.194   1.760  0.3902 -0.4496 -0.7623
20865SOL    HW263729   1.871   4.171   1.731 -0.0566 -0.4461  1.3287
20866SOL     OW63730   2.542   6.050   1.019 -0.5751  0.3084 -0.0938
20866SOL    HW163731   2.585   6.125   0.978 -0.1290  0.0407 -0.1198
20866SOL    HW263732   2.609   5.981   1.020 -0.4137  0.4442  1.4978
20867SOL     OW63733   5.443   0.515   8.561 -0.5239  0.1233  0.1936
20867SOL    HW163734   5.526   0.483   8.525 -0.6004  0.5791 -0.3988
20867SOL    HW263735   5.465   0.600   8.599 -0.3245 -0.5885  1.7484
20868SOL     OW63736   0.075   1.836   3.133  0.4125  0.1342  0.2742
20868SOL    HW163737   0.067   1.842   3.228  0.2084  0.1201  0.2595
20868SOL    HW263738   0.100   1.924   3.105 -0.0617  0.2796  0.2929
20869SOL     OW63739   2.971   7.379   4.999 -0.4061 -0.0633 -0.6862
20869SOL    HW163740   2.923   7.445   4.949 -0.3031 -0.0151 -0.7205
20869SOL    HW263741   2.957   7.297   4.950 -0.2427 -0.0021 -0.8353
20870SOL     OW63742   5.015   5.990   5.057  0.1602  0.4755 -0.6188
20870SOL    HW163743   5.066   6.069   5.039  0.3692  0.4403 -0.1987
20870SOL    HW263744   5.081   5.922   5.069  0.0151  0.4087 -0.1734
20871SOL     OW63745   2.451   4.224   2.363 -0.6740  0.5612 -0.2887
20871SOL    HW163746   2.510   4.163   2.318  0.5990  1.1438  0.5390
20871SOL    HW263747   2.469   4.212   2.456 -2.1720  0.4695  0.0191
20872SOL     OW63748   8.877   2.668   1.040  0.6029  0.0668  0.0993
20872SOL    HW163749   8.782   2.668   1.039  0.5917  1.1812 -1.1114
20872SOL    HW263750   8.901   2.724   1.114  0.2915  0.7092 -0.2766
20873SOL     OW63751   4.979   2.351   3.629 -0.2962  1.3035  0.5037
20873SOL    HW163752   4.893   2.336   3.668  0.1141  0.2763  1.0578
20873SOL    HW263753   4.969   2.321   3.539 -0.1870 -0.0629  0.9190
20874SOL     OW63754   5.878   5.311   3.084  0.0159  0.4198 -0.4140
20874SOL    HW163755   5.925   5.337   3.164 -1.5684  0.1684  0.6493
20874SOL    HW263756   5.892   5.216   3.079 -1.3580  0.1420  0.6036
20875SOL     OW63757   0.181   3.492   8.487 -0.0168  0.2030 -0.0993
20875SOL    HW163758   0.216   3.524   8.570  0.9919 -0.8569 -0.0884
20875SOL    HW263759   0.137   3.568   8.449 -0.2113  0.8014  1.2353
20876SOL     OW63760   4.789   6.189   7.533 -0.3052 -0.0794 -0.2934
20876SOL    HW163761   4.858   6.181   7.599 -0.4865  1.0101  0.0515
20876SOL    HW263762   4.836   6.198   7.450 -0.0678 -0.9326 -0.2618
20877SOL     OW63763   9.074   7.615   5.989 -0.1392  0.2001  0.2778
20877SOL    HW163764   9.038   7.686   6.042 -2.1941 -1.2474  0.9944
20877SOL    HW263765   9.157   7.592   6.030  0.3757  1.9180  0.2374
20878SOL     OW63766   4.373   2.684   8.303  0.2129  0.6648  0.0681
20878SOL    HW163767   4.395   2.768   8.264 -2.0580  0.7947 -1.0321
20878SOL    HW263768   4.399   2.619   8.237  0.1838  0.6254  0.0952
20879SOL     OW63769   8.933   2.711   0.703  0.0555  0.3345 -0.0981
20879SOL    HW163770   9.012   2.765   0.710  0.3861 -0.1865  0.2985
20879SOL    HW263771   8.964   2.628   0.664 -0.0674 -0.2957  1.0897
20880SOL     OW63772   7.936   6.300   3.716 -0.0677  0.3104  0.4572
20880SOL    HW163773   7.843   6.289   3.698  0.2919 -0.8103 -0.9294
20880SOL    HW263774   7.968   6.356   3.645  0.4750 -0.0354  0.4210
20881SOL     OW63775   3.574   5.904   1.567 -0.2247  0.3311 -0.1060
20881SOL    HW163776   3.488   5.945   1.577  0.1956  1.0848  0.5338
20881SOL    HW263777   3.621   5.961   1.506  0.1871  0.5297  0.3936
20882SOL     OW63778   5.948   8.716   8.545 -0.0901 -0.0915  0.5155
20882SOL    HW163779   5.913   8.651   8.484 -0.1735 -0.5078  1.0036
20882SOL    HW263780   5.887   8.790   8.539 -0.4726 -0.4011  0.5963
20883SOL     OW63781   4.654   5.836   7.417 -0.4933  0.2516 -0.1376
20883SOL    HW163782   4.738   5.812   7.455  0.8151  0.8153 -2.4874
20883SOL    HW263783   4.635   5.766   7.354  1.0348  2.7302 -3.6115
20884SOL     OW63784   6.019   5.981   1.169  0.6295  0.2532  0.1604
20884SOL    HW163785   5.956   5.944   1.108 -0.0872 -0.4799  1.2990
20884SOL    HW263786   6.093   6.007   1.115 -0.0759 -0.1623 -1.0340
20885SOL     OW63787   3.413   4.632   8.559  0.3350 -0.7883 -0.1231
20885SOL    HW163788   3.417   4.590   8.645  2.2034  0.4357  0.4523
20885SOL    HW263789   3.486   4.594   8.510  1.1382  0.6498 -0.1000
20886SOL     OW63790   1.719   1.834   6.476 -0.5150  0.0971  0.1435
20886SOL    HW163791   1.640   1.797   6.437  0.1933  0.4772 -1.7455
20886SOL    HW263792   1.744   1.905   6.416  2.4265 -1.3439 -0.5197
20887SOL     OW63793   2.469   3.173   7.235  0.1983  0.4960  0.0433
20887SOL    HW163794   2.515   3.246   7.193  0.1456  0.5960  0.1573
20887SOL    HW263795   2.379   3.181   7.203  0.6374 -0.8220 -1.6844
20888SOL     OW63796   1.328   3.434   2.863  0.0456 -0.0011  0.4029
20888SOL    HW163797   1.256   3.495   2.877 -0.5732 -0.6417  0.0767
20888SOL    HW263798   1.396   3.487   2.821 -0.1854  0.6333  0.8140
20889SOL     OW63799   5.792   1.236   2.779 -0.0792  0.3742  0.2950
20889SOL    HW163800   5.882   1.266   2.792 -0.1174  0.6684 -0.1346
20889SOL    HW263801   5.741   1.316   2.771 -0.2637  0.2042 -0.2680
20890SOL     OW63802   3.988   4.587   0.419 -0.0260  0.0780 -0.5232
20890SOL    HW163803   3.970   4.664   0.366  0.6104  0.3400 -0.3713
20890SOL    HW263804   3.924   4.522   0.391 -1.1747  0.9631 -0.0053
20891SOL     OW63805   2.731   5.493   8.670  0.1403  0.5166 -0.1456
20891SOL    HW163806   2.650   5.505   8.720  0.0361  0.2943 -0.2619
20891SOL    HW263807   2.722   5.407   8.629  0.8530  0.0414  0.6304
20892SOL     OW63808   5.343   9.027   8.318  0.4349  0.0610  0.2018
20892SOL    HW163809   5.287   9.039   8.241  0.6301  0.5857  0.1379
20892SOL    HW263810   5.299   9.076   8.387  1.3598  1.3703 -0.1180
20893SOL     OW63811   0.861   6.839   9.063 -0.0059  0.0139  0.1614
20893SOL    HW163812   0.804   6.912   9.039  0.5297  0.3915  0.0145
20893SOL    HW263813   0.945   6.880   9.083 -0.2352 -0.3555  2.0618
20894SOL     OW63814   4.322   1.314   0.404 -0.4806 -0.5441  0.3878
20894SOL    HW163815   4.278   1.315   0.489 -1.5548  0.3438 -0.1577
20894SOL    HW263816   4.396   1.374   0.415 -0.2199 -0.9406  0.8730
20895SOL     OW63817   4.815   3.491   0.669 -0.0546 -0.2631  0.5197
20895SOL    HW163818   4.787   3.563   0.613  0.5565  0.1312  0.7120
20895SOL    HW263819   4.863   3.533   0.740  1.1120 -0.9241  0.1529
20896SOL     OW63820   4.950   2.434   1.665  0.1628 -0.0929  0.6168
20896SOL    HW163821   4.883   2.430   1.734  0.3145 -1.1662  0.7153
20896SOL    HW263822   4.989   2.347   1.664  1.6450  0.5373  0.6240
20897SOL     OW63823   7.460   2.517   6.405 -0.2684 -0.3711 -0.0550
20897SOL    HW163824   7.533   2.456   6.405 -0.3329 -0.5599 -2.5024
20897SOL    HW263825   7.398   2.480   6.342 -1.4879  0.9050  0.3371
20898SOL     OW63826   4.680   9.026   3.368  0.4476 -0.3653 -0.2509
20898SOL    HW163827   4.695   8.945   3.320  0.3731 -1.1573  1.0309
20898SOL    HW263828   4.763   9.045   3.412 -0.0914 -0.8155  1.0015
20899SOL     OW63829   3.695   3.613   0.353 -0.0789 -0.1377 -0.2375
20899SOL    HW163830   3.600   3.610   0.368 -0.1262  1.8609  0.0313
20899SOL    HW263831   3.729   3.668   0.424  1.0732  0.4671 -1.2359
20900SOL     OW63832   0.027   5.457   0.634  0.4481  0.7787 -0.0161
20900SOL    HW163833  -0.064   5.463   0.663  0.2904 -0.9740 -0.0266
20900SOL    HW263834   0.029   5.505   0.551 -0.2485  1.5657  0.4093
20901SOL     OW63835   2.510   6.685   5.071 -0.7491  0.0058 -0.2767
20901SOL    HW163836   2.489   6.664   5.162 -0.0439 -1.8258 -0.5053
20901SOL    HW263837   2.530   6.779   5.073 -1.1270  0.0872  1.3739
20902SOL     OW63838   0.619   4.439   2.678  0.5955  0.0487 -0.0992
20902SOL    HW163839   0.705   4.476   2.699  0.5901 -0.2441  0.4388
20902SOL    HW263840   0.575   4.431   2.762  0.6191 -1.2464 -0.1951
20903SOL     OW63841   4.438   6.558   4.819 -0.2502  0.5460  0.4372
20903SOL    HW163842   4.372   6.507   4.771  0.4847  1.5694 -1.7780
20903SOL    HW263843   4.408   6.649   4.811  0.3583  0.8168  1.1875
20904SOL     OW63844   3.878   8.669   5.317  0.2983  0.4683 -0.0463
20904SOL    HW163845   3.850   8.579   5.299  3.2534 -0.4930 -0.3039
20904SOL    HW263846   3.849   8.686   5.407  0.5716 -1.1143  0.3634
20905SOL     OW63847   4.923   7.184   8.010 -0.6424  0.0079 -0.3828
20905SOL    HW163848   4.892   7.109   8.061 -1.4888 -1.3157 -2.7161
20905SOL    HW263849   5.015   7.165   7.993 -0.0624  0.9525  1.3723
20906SOL     OW63850   2.127   0.214   0.663 -0.2981  0.3268  0.0953
20906SOL    HW163851   2.127   0.172   0.577  0.8740  0.6967 -0.1082
20906SOL    HW263852   2.035   0.236   0.680 -0.7951 -1.3997 -0.2281
20907SOL     OW63853   6.419   7.265   7.909  0.0716 -0.3049 -0.4175
20907SOL    HW163854   6.441   7.314   7.988 -0.6844 -0.2245 -0.2491
20907SOL    HW263855   6.345   7.313   7.871  0.7698 -0.0282 -1.4662
20908SOL     OW63856   3.158   1.755   8.712  0.3534  0.0288 -0.6622
20908SOL    HW163857   3.145   1.782   8.621  1.4587 -0.0863 -0.8663
20908SOL    HW263858   3.199   1.669   8.705  1.3352  0.4432 -0.0573
20909SOL     OW63859   4.125   0.102   0.242 -0.5792  0.0599  0.3905
20909SOL    HW163860   4.171   0.185   0.259  1.2070 -0.5828 -0.9904
20909SOL    HW263861   4.154   0.076   0.155 -3.4002 -0.5722 -0.4723
20910SOL     OW63862   8.129   1.420   5.570 -0.7637  0.2820  0.1187
20910SOL    HW163863   8.164   1.332   5.583  0.1324  0.3904 -1.3827
20910SOL    HW263864   8.157   1.468   5.649 -1.3631 -0.7767  1.0061
20911SOL     OW63865   6.482   7.366   8.460  0.4143  0.2764 -0.0620
20911SOL    HW163866   6.473   7.307   8.535 -0.0107  1.8199  1.1638
20911SOL    HW263867   6.392   7.389   8.436  0.5652  0.3321 -0.6054
20912SOL     OW63868   0.919   2.599   7.747  0.0827 -0.1961  0.5474
20912SOL    HW163869   1.002   2.577   7.789 -0.2962 -0.0818  1.3815
20912SOL    HW263870   0.857   2.535   7.783 -1.4610  3.0579  4.4023
20913SOL     OW63871   1.255   1.460   7.238  0.3431  0.8508 -0.0497
20913SOL    HW163872   1.206   1.495   7.164  1.0600 -1.6932 -1.8609
20913SOL    HW263873   1.187   1.434   7.301 -0.5046  0.0218 -1.2701
20914SOL     OW63874   8.354   3.736   8.867  0.1263 -0.2039  0.2324
20914SOL    HW163875   8.378   3.701   8.782  0.0938  0.9319 -0.2569
20914SOL    HW263876   8.405   3.817   8.875  2.0223 -1.4594  2.3336
20915SOL     OW63877   3.989   7.662   8.503 -0.2258  0.1977  0.3407
20915SOL    HW163878   3.899   7.695   8.509  0.2133  1.5090  0.0141
20915SOL    HW263879   3.997   7.602   8.577 -2.1751 -2.0276 -1.1009
20916SOL     OW63880   8.373   8.212   6.192  0.2397  0.6877 -0.0330
20916SOL    HW163881   8.347   8.289   6.141 -2.0877  0.6165  0.9601
20916SOL    HW263882   8.329   8.138   6.150 -0.7470  0.4688  1.3115
20917SOL     OW63883   1.828   5.251   4.038 -0.6752 -0.0831  0.0426
20917SOL    HW163884   1.739   5.286   4.031 -0.7351 -0.1436  0.4637
20917SOL    HW263885   1.829   5.208   4.123  0.2559  1.3416  0.7863
20918SOL     OW63886   8.097   5.749   1.983  0.5468 -0.6120 -0.3994
20918SOL    HW163887   8.158   5.813   2.019  1.8608 -0.9144 -1.9285
20918SOL    HW263888   8.054   5.795   1.911  1.8649 -1.4963 -1.8364
20919SOL     OW63889   7.957   2.719   2.065 -0.2788 -0.2971  0.2459
20919SOL    HW163890   7.975   2.626   2.051  0.2666  0.0455 -1.7441
20919SOL    HW263891   8.043   2.758   2.079 -0.0369  0.3630 -2.5063
20920SOL     OW63892   0.450   8.375   8.678 -0.6602  0.3798  0.2459
20920SOL    HW163893   0.396   8.425   8.616  0.0773  1.1422  0.1936
20920SOL    HW263894   0.464   8.291   8.634 -2.7220 -0.2980  0.7488
20921SOL     OW63895   1.310   2.057   1.573 -0.3314 -0.1659  0.3704
20921SOL    HW163896   1.360   2.001   1.633 -0.5759 -1.3572 -0.5019
20921SOL    HW263897   1.371   2.079   1.503 -0.4396  0.0696  0.3482
20922SOL     OW63898   8.440   7.980   6.916  0.1286  0.2089 -1.0118
20922SOL    HW163899   8.477   7.895   6.894  0.8148 -0.5128  2.3110
20922SOL    HW263900   8.496   8.043   6.872  1.2458 -1.0053 -1.3968
20923SOL     OW63901   0.201   0.466   3.352  0.0550  0.1555  0.2844
20923SOL    HW163902   0.148   0.532   3.396 -0.3050 -0.2441  0.4582
20923SOL    HW263903   0.222   0.504   3.267 -0.7912  0.1800  0.0803
20924SOL     OW63904   7.211   7.828   0.890  0.0984  0.2432  0.1859
20924SOL    HW163905   7.261   7.746   0.883 -1.6665 -1.0946  1.8895
20924SOL    HW263906   7.122   7.803   0.863 -0.2584  1.8811 -0.2279
20925SOL     OW63907   4.630   5.047   2.375  0.8214  0.4928  0.8189
20925SOL    HW163908   4.617   5.119   2.313  0.8622  0.7533  1.1123
20925SOL    HW263909   4.547   5.039   2.421  1.5362  1.9205  2.4423
20926SOL     OW63910   3.857   4.339   8.831  0.1718 -0.1926 -0.0829
20926SOL    HW163911   3.831   4.378   8.747  1.3476  1.0207  0.0777
20926SOL    HW263912   3.806   4.258   8.837 -2.0242  1.0673 -0.6648
20927SOL     OW63913   4.035   3.564   7.463  0.3553  0.0933  0.2253
20927SOL    HW163914   4.068   3.486   7.419  1.6349  0.3628  0.6644
20927SOL    HW263915   3.950   3.581   7.422  0.4143 -1.0682 -0.4111
20928SOL     OW63916   8.947   6.572   3.268  0.3971 -0.0349  0.1428
20928SOL    HW163917   8.988   6.566   3.182  0.2013 -0.8162  0.0919
20928SOL    HW263918   8.881   6.640   3.258  0.0510 -0.4479 -0.4675
20929SOL     OW63919   5.247   3.283   5.565 -0.0673  0.1805  0.0551
20929SOL    HW163920   5.265   3.318   5.653 -1.5030 -5.1428  2.9166
20929SOL    HW263921   5.152   3.275   5.562  0.0371 -0.9619 -1.4082
20930SOL     OW63922   5.583   0.773   1.591 -0.3316  0.1613 -0.3067
20930SOL    HW163923   5.665   0.821   1.581 -0.4831  0.3686 -0.5679
20930SOL    HW263924   5.515   0.837   1.570 -0.6548  0.4698  1.5327
20931SOL     OW63925   6.610   8.371   2.975  0.0758 -0.6997 -0.0702
20931SOL    HW163926   6.544   8.336   2.916  0.7509 -0.7028 -0.8484
20931SOL    HW263927   6.565   8.440   3.024 -0.9339 -1.8174  0.6124
20932SOL     OW63928   7.500   5.447   5.427 -0.0132  0.1820 -0.1254
20932SOL    HW163929   7.577   5.394   5.446 -0.8828 -0.8918  0.5675
20932SOL    HW263930   7.454   5.398   5.359 -0.3801  0.5023 -0.1109
20933SOL     OW63931   7.358   7.315   1.811 -0.2431 -0.5422  0.0693
20933SOL    HW163932   7.279   7.363   1.834  0.4612 -0.3346  2.3535
20933SOL    HW263933   7.333   7.223   1.816 -0.5015 -0.4669  0.1516
20934SOL     OW63934   0.013   8.114   4.301  0.3049 -0.4387 -0.2671
20934SOL    HW163935  -0.077   8.139   4.277 -0.0940 -0.1971  1.3878
20934SOL    HW263936   0.067   8.182   4.261 -0.2874 -0.2449 -0.7717
20935SOL     OW63937   8.898   0.545   4.008  0.6414 -0.5026  0.6943
20935SOL    HW163938   8.923   0.585   3.925 -0.3156  1.1157  1.1369
20935SOL    HW263939   8.835   0.606   4.046  0.0126 -1.8839  1.9823
20936SOL     OW63940   1.141   0.626   8.626 -0.1772  0.3404 -0.2305
20936SOL    HW163941   1.224   0.657   8.663  0.1801  2.1224 -2.2854
20936SOL    HW263942   1.077   0.694   8.648 -1.1804 -1.0609  1.4083
20937SOL     OW63943   4.119   8.076   5.133 -0.2795  0.4074  0.1236
20937SOL    HW163944   4.142   8.156   5.181  0.5810 -0.0684  0.5222
20937SOL    HW263945   4.204   8.037   5.109 -0.6297 -1.1819  1.2711
20938SOL     OW63946   6.946   0.077   7.215  0.1592  0.3819  0.0771
20938SOL    HW163947   6.933   0.164   7.252 -0.1961  1.3106 -2.0705
20938SOL    HW263948   6.922   0.086   7.123  2.4467 -1.3786 -0.7918
20939SOL     OW63949   2.148   6.557   6.934 -0.1864 -0.9869 -0.0300
20939SOL    HW163950   2.117   6.469   6.910 -0.9176 -1.0041  0.9366
20939SOL    HW263951   2.232   6.542   6.976  0.0084 -1.1620 -0.4740
20940SOL     OW63952   6.480   2.032   8.359  0.1329 -0.0446  0.1476
20940SOL    HW163953   6.495   1.946   8.398 -1.1023 -0.6684 -0.6751
20940SOL    HW263954   6.444   2.013   8.273  0.1248  1.3052 -0.1664
20941SOL     OW63955   3.631   3.678   6.911  0.6920 -0.0405 -0.9941
20941SOL    HW163956   3.556   3.655   6.857 -0.1049 -0.8499  0.3935
20941SOL    HW263957   3.679   3.596   6.923 -1.9055 -1.2505  3.5906
20942SOL     OW63958   8.936   7.798   6.158  0.5535 -0.1865  0.4126
20942SOL    HW163959   8.862   7.743   6.134  0.1440  0.7816 -0.5645
20942SOL    HW263960   8.907   7.846   6.236  0.6603 -0.8050  0.8432
20943SOL     OW63961   7.233   7.883   6.023  0.1662  0.8169  0.6029
20943SOL    HW163962   7.166   7.826   6.058 -0.4983  1.2519  0.0788
20943SOL    HW263963   7.314   7.857   6.068 -0.5596  1.0725  2.1144
20944SOL     OW63964   8.085   6.736   6.882  0.8089  0.3485 -0.2906
20944SOL    HW163965   8.114   6.738   6.791  0.8989 -0.7525 -0.2987
20944SOL    HW263966   8.132   6.662   6.920  2.1178  1.8376  1.1325
20945SOL     OW63967   2.527   8.409   8.061  0.1907 -0.1673  0.8193
20945SOL    HW163968   2.607   8.356   8.060  0.2404 -0.1088 -0.6955
20945SOL    HW263969   2.540   8.470   8.133  1.9578  0.4722  0.0243
20946SOL     OW63970   6.242   1.748   6.818 -0.4386  0.0819 -0.5106
20946SOL    HW163971   6.270   1.754   6.727  1.7247  0.1623  0.1112
20946SOL    HW263972   6.285   1.670   6.852  0.5466  1.2262  0.9997
20947SOL     OW63973   3.875   2.072   3.704  0.3484 -0.1950 -0.0828
20947SOL    HW163974   3.798   2.015   3.708  0.2963 -0.0754  1.2305
20947SOL    HW263975   3.871   2.114   3.618 -1.4810  0.4063  0.2639
20948SOL     OW63976   3.652   7.275   6.482  0.2121 -0.5733  0.5018
20948SOL    HW163977   3.646   7.275   6.578 -1.6564  1.3465  0.4731
20948SOL    HW263978   3.561   7.274   6.453  0.7467 -2.5080 -1.3383
20949SOL     OW63979   2.737   2.339   8.465  0.2291  0.4525 -0.3272
20949SOL    HW163980   2.769   2.280   8.533  1.2736  1.7179  0.3280
20949SOL    HW263981   2.665   2.387   8.507  1.2159  1.6105  0.1205
20950SOL     OW63982   3.901   4.555   7.229  0.2359  0.1707  0.2802
20950SOL    HW163983   3.874   4.638   7.190  0.2959 -0.0531 -0.2407
20950SOL    HW263984   3.950   4.511   7.161 -1.1255 -0.9816 -0.0106
20951SOL     OW63985   1.564   5.329   5.006 -1.0728  0.5110  0.3971
20951SOL    HW163986   1.590   5.272   5.078  1.0073  0.9966  0.1072
20951SOL    HW263987   1.498   5.387   5.044 -1.5472 -0.5956  1.3094
20952SOL     OW63988   5.687   6.972   4.162  0.3925  0.2929 -0.5025
20952SOL    HW163989   5.730   7.003   4.242  0.9381  0.4547 -0.8479
20952SOL    HW263990   5.746   7.000   4.091 -0.5941  1.1053 -1.0455
20953SOL     OW63991   7.048   1.762   5.095  0.1200 -0.7743  0.8536
20953SOL    HW163992   7.021   1.706   5.168 -1.3349 -1.3502 -0.0673
20953SOL    HW263993   6.972   1.762   5.037  2.4418 -3.4127 -2.5527
20954SOL     OW63994   7.341   8.178   7.483  0.0449 -0.4175  0.2561
20954SOL    HW163995   7.307   8.102   7.531 -1.1237  1.2911  2.2953
20954SOL    HW263996   7.295   8.253   7.520  1.3761  1.3595 -1.4589
20955SOL     OW63997   4.264   4.798   2.385  0.1993 -0.0548 -0.3621
20955SOL    HW163998   4.293   4.810   2.475  1.0449  0.9888 -0.7498
20955SOL    HW263999   4.176   4.835   2.382  0.0232 -0.4263  0.1093
20956SOL     OW64000   4.718   7.596   0.078  0.5052  0.1178  0.3775
20956SOL    HW164001   4.798   7.565   0.035 -1.4752  0.8818 -4.5334
20956SOL    HW264002   4.675   7.516   0.109  1.5499 -0.6537 -0.0990
20957SOL     OW64003   5.552   3.484   7.644  0.0432 -0.2880 -0.6269
20957SOL    HW164004   5.586   3.573   7.655  0.5954 -0.3426 -1.7407
20957SOL    HW264005   5.630   3.430   7.630 -0.2763 -0.9774  0.1559
20958SOL     OW64006   9.105   2.371   3.426 -0.0916 -0.0514 -0.0741
20958SOL    HW164007   9.020   2.399   3.459 -0.3490 -0.0975 -0.6825
20958SOL    HW264008   9.158   2.357   3.505  0.0594  2.1602  0.2594
20959SOL     OW64009   5.662   1.171   6.801 -0.2646 -0.0189  0.0782
20959SOL    HW164010   5.617   1.246   6.840  0.9326  0.4330  0.6559
20959SOL    HW264011   5.592   1.118   6.763 -1.1962  1.0563  0.2313
20960SOL     OW64012   7.012   8.120   8.722  0.7574  0.4408  0.1023
20960SOL    HW164013   7.006   8.122   8.817 -0.1430 -0.3023  0.0665
20960SOL    HW264014   6.969   8.200   8.693 -2.3491 -1.0685  0.1942
20961SOL     OW64015   7.658   2.422   6.166 -0.4276  0.3315  0.3496
20961SOL    HW164016   7.668   2.431   6.260 -0.9150 -0.5056  0.4908
20961SOL    HW264017   7.610   2.340   6.154 -1.3421  0.9730 -0.5767
20962SOL     OW64018   8.240   5.382   7.730  0.2152  0.2047  0.2087
20962SOL    HW164019   8.160   5.421   7.694 -0.7783 -0.5401  1.5090
20962SOL    HW264020   8.212   5.342   7.813  1.6753 -1.2026  0.0659
20963SOL     OW64021   7.712   1.864   8.734  0.4308  0.0399  0.2736
20963SOL    HW164022   7.740   1.955   8.722 -0.0137 -0.0387 -1.7732
20963SOL    HW264023   7.703   1.854   8.829 -0.6456  2.4755  0.5157
20964SOL     OW64024   2.962   2.217   5.262  0.4812 -0.5292 -0.0948
20964SOL    HW164025   3.022   2.266   5.318 -2.2435  1.0832  1.6194
20964SOL    HW264026   2.940   2.278   5.192 -0.7884 -0.2995  0.4902
20965SOL     OW64027   4.707   2.711   4.947 -0.5092 -0.0903 -0.5202
20965SOL    HW164028   4.777   2.650   4.972  0.0242  1.0047  0.7995
20965SOL    HW264029   4.635   2.655   4.920  0.2233 -1.2911 -0.0891
20966SOL     OW64030   2.054   0.329   4.458  0.0455 -0.5074 -0.7073
20966SOL    HW164031   2.146   0.353   4.458  0.4892 -2.0551 -0.1744
20966SOL    HW264032   2.023   0.353   4.545  0.0702 -0.4452 -0.7154
20967SOL     OW64033   7.734   1.105   2.005 -0.8553  0.0061  0.3280
20967SOL    HW164034   7.754   1.130   2.095 -3.4980  0.2761  0.9412
20967SOL    HW264035   7.716   1.012   2.009 -0.5274 -0.0762 -0.0275
20968SOL     OW64036   7.400   3.124   3.805 -0.4334  0.1280 -0.1887
20968SOL    HW164037   7.372   3.208   3.844 -0.0879 -0.3480  1.1311
20968SOL    HW264038   7.480   3.145   3.758 -1.3550  0.9058 -1.4983
20969SOL     OW64039   0.270   2.007   4.089 -0.2324 -0.0506 -0.0089
20969SOL    HW164040   0.198   1.973   4.142 -0.1570  2.0417  1.5662
20969SOL    HW264041   0.280   2.098   4.118 -0.9260  1.6778 -4.4249
20970SOL     OW64042   4.207   1.782   3.588 -0.4515 -0.2994  0.9802
20970SOL    HW164043   4.176   1.808   3.674 -0.9168 -0.3516  0.8335
20970SOL    HW264044   4.152   1.831   3.527  0.7904  0.8124  0.7045
20971SOL     OW64045   5.840   0.551   9.008  0.0987  0.2878 -0.8067
20971SOL    HW164046   5.787   0.605   8.949 -1.2627  0.4268  0.4900
20971SOL    HW264047   5.849   0.604   9.088  0.1977 -0.7126 -0.1427
20972SOL     OW64048   5.739   5.609   3.629 -0.4587 -0.0252  0.8285
20972SOL    HW164049   5.742   5.704   3.637 -1.7255  0.0856  0.2758
20972SOL    HW264050   5.742   5.592   3.534 -1.3540 -0.4553  0.8598
20973SOL     OW64051   3.122   7.358   3.803  0.0752  0.0741  0.2461
20973SOL    HW164052   3.044   7.339   3.855 -0.5225 -1.2528 -1.0880
20973SOL    HW264053   3.097   7.432   3.749 -0.6651 -1.0013 -0.9381
20974SOL     OW64054   8.646   0.662   0.801  0.4843  0.1812  0.9879
20974SOL    HW164055   8.570   0.607   0.817 -0.3355  0.7443 -0.7557
20974SOL    HW264056   8.718   0.599   0.790 -1.0032 -1.0983 -4.5277
20975SOL     OW64057   6.184   1.352   3.194 -0.2014 -0.0926 -0.0793
20975SOL    HW164058   6.236   1.283   3.235  0.7086 -0.5679 -1.9464
20975SOL    HW264059   6.158   1.316   3.109 -2.8957  0.4685  0.4058
20976SOL     OW64060   6.683   4.208   4.357 -0.2007  0.3891 -0.2905
20976SOL    HW164061   6.644   4.281   4.308 -2.3098  0.3084  1.1504
20976SOL    HW264062   6.681   4.237   4.448 -1.7486 -1.6761  0.4101
20977SOL     OW64063   7.855   7.159   1.361  0.2558  0.5299  0.1370
20977SOL    HW164064   7.849   7.117   1.275 -1.5599 -0.7584  0.8372
20977SOL    HW264065   7.949   7.173   1.374  0.7643 -1.4083 -1.0570
20978SOL     OW64066   1.274   3.418   6.221  0.7709 -0.2579 -0.3703
20978SOL    HW164067   1.328   3.358   6.171 -1.1603 -1.0304 -1.6753
20978SOL    HW264068   1.184   3.391   6.201 -0.1466 -0.2245  3.1156
20979SOL     OW64069   4.213   0.694   2.030 -0.6498  0.0080  0.1622
20979SOL    HW164070   4.261   0.776   2.033  1.4252 -1.1594  0.6366
20979SOL    HW264071   4.230   0.659   1.943 -1.7304  0.1601 -0.1280
20980SOL     OW64072   3.879   5.507   1.299  0.8049 -0.2243  0.1413
20980SOL    HW164073   3.944   5.530   1.232 -1.3398 -0.0201 -2.0173
20980SOL    HW264074   3.892   5.572   1.368  1.5543  1.0897 -1.1707
20981SOL     OW64075   7.823   3.842   7.857  0.1805  0.5428  0.1051
20981SOL    HW164076   7.906   3.887   7.841  0.6817 -1.4488 -4.2917
20981SOL    HW264077   7.756   3.909   7.842  0.8865  1.5900  1.3786
20982SOL     OW64078   3.585   8.292   3.431  0.4739  0.0466  0.2411
20982SOL    HW164079   3.644   8.346   3.379 -0.3956  2.5127  1.6593
20982SOL    HW264080   3.500   8.302   3.389  0.4372 -0.9352  0.0490
20983SOL     OW64081   6.194   6.198   7.443 -0.1663  0.0597 -0.1522
20983SOL    HW164082   6.260   6.213   7.511 -0.0569 -1.4510  0.1080
20983SOL    HW264083   6.126   6.263   7.462  0.2471  0.2133  0.9106
20984SOL     OW64084   8.446   8.825   6.921  0.4475 -0.5429  0.5570
20984SOL    HW164085   8.522   8.883   6.908 -1.2088  1.6452 -0.0294
20984SOL    HW264086   8.473   8.765   6.990  3.0860 -0.5644 -0.3944
20985SOL     OW64087   8.936   7.788   0.300 -0.0418  0.4796 -0.1726
20985SOL    HW164088   8.973   7.702   0.322  2.0545  0.7262 -2.3446
20985SOL    HW264089   8.878   7.808   0.374  1.0836 -1.7978  1.4655
20986SOL     OW64090   2.348   7.734   5.356 -0.1446  0.4397 -0.2154
20986SOL    HW164091   2.307   7.648   5.361  0.1194  0.2570 -1.1094
20986SOL    HW264092   2.442   7.716   5.365 -0.1000  0.6536 -0.2572
20987SOL     OW64093   8.780   0.210   6.686 -0.1936 -0.8985  0.0883
20987SOL    HW164094   8.851   0.221   6.750 -1.5005 -1.0381  1.6354
20987SOL    HW264095   8.805   0.265   6.612  1.4322 -0.8122  0.6591
20988SOL     OW64096   3.965   8.360   8.464 -0.5809  0.1913  0.3510
20988SOL    HW164097   3.882   8.339   8.421 -0.0230 -1.8191  0.1510
20988SOL    HW264098   4.032   8.321   8.408  0.4891  1.2243  0.8434
20989SOL     OW64099   9.053   5.346   3.656  0.2267  0.2797 -0.4923
20989SOL    HW164100   9.067   5.421   3.598 -0.4862  1.4743  0.8092
20989SOL    HW264101   8.969   5.310   3.628 -0.5131  1.3443  0.2552
20990SOL     OW64102   8.621   9.056   5.056 -0.2646 -0.2072 -0.2895
20990SOL    HW164103   8.689   9.108   5.014 -0.5292 -0.0772 -0.5599
20990SOL    HW264104   8.664   8.974   5.080 -0.1651 -0.3837 -1.0376
20991SOL     OW64105   2.015   6.170   1.808 -0.4576  0.5968  0.3955
20991SOL    HW164106   1.997   6.150   1.716 -0.2824 -0.0052  0.4885
20991SOL    HW264107   2.019   6.265   1.812 -0.5634  0.6257 -0.2037
20992SOL     OW64108   1.439   0.979   1.055  0.0909 -0.0859 -0.2259
20992SOL    HW164109   1.533   0.965   1.039 -0.0758 -2.8462  0.6646
20992SOL    HW264110   1.396   0.936   0.982 -0.5179  0.8181 -0.4145
20993SOL     OW64111   0.978   5.490   1.106  0.0326  0.1442 -0.0330
20993SOL    HW164112   1.024   5.447   1.034 -0.3019  1.0092 -0.7750
20993SOL    HW264113   0.902   5.434   1.122  0.1018 -0.0474 -0.3580
20994SOL     OW64114   4.900   6.002   8.590 -0.4635 -0.2523 -0.3652
20994SOL    HW164115   4.822   5.977   8.539 -0.0307 -0.1067 -1.1174
20994SOL    HW264116   4.865   6.043   8.669 -1.1702  0.7168 -1.1424
20995SOL     OW64117   3.905   8.296   1.817 -0.0900 -0.1090 -0.2910
20995SOL    HW164118   3.923   8.386   1.792 -0.4074 -0.2356 -0.9785
20995SOL    HW264119   3.829   8.301   1.874 -0.0171  0.0694 -0.2102
20996SOL     OW64120   8.508   4.316   3.301  0.0764 -0.1157  0.2019
20996SOL    HW164121   8.509   4.358   3.215 -1.6156 -0.1618  0.1397
20996SOL    HW264122   8.600   4.296   3.318  0.5119  0.4184 -1.3359
20997SOL     OW64123   7.175   6.083   9.107  0.1630 -0.0910  0.5454
20997SOL    HW164124   7.265   6.061   9.134  0.8598 -1.3470 -2.4358
20997SOL    HW264125   7.167   6.176   9.125  1.7762 -0.1235  1.6445
20998SOL     OW64126   3.001   0.787   1.495 -0.5692 -0.0560 -0.7520
20998SOL    HW164127   3.078   0.759   1.545  0.2233  0.8623 -1.4245
20998SOL    HW264128   3.009   0.882   1.490 -1.9015  0.0830 -0.6167
20999SOL     OW64129   8.968   3.462   4.119  0.0695  0.1918  0.1910
20999SOL    HW164130   9.009   3.442   4.204  0.4047 -0.6654 -0.1580
20999SOL    HW264131   9.035   3.512   4.072 -0.0523  0.5211  0.3627
21000SOL     OW64132   2.743   6.288   4.495 -0.1925  0.4936 -0.5723
21000SOL    HW164133   2.756   6.333   4.579 -0.6827 -2.0961  1.0289
21000SOL    HW264134   2.824   6.302   4.447 -0.8712  4.2730 -0.9185
21001SOL     OW64135   0.015   4.540   0.002  0.1025 -0.6286 -0.1168
21001SOL    HW164136   0.065   4.620  -0.015  1.0389 -1.2724 -0.5086
21001SOL    HW264137   0.022   4.489  -0.079 -0.5544 -1.0765  0.0948
21002SOL     OW64138   6.184   5.910   8.715  0.3571  0.0139  0.7808
21002SOL    HW164139   6.095   5.903   8.749 -0.0213  1.0105  0.0260
21002SOL    HW264140   6.197   6.003   8.699 -0.0236 -0.4485 -3.0891
21003SOL     OW64141   3.399   6.337   8.260  0.0768 -0.4100  0.4316
21003SOL    HW164142   3.399   6.433   8.260 -0.7477 -0.3338  2.8858
21003SOL    HW264143   3.309   6.313   8.282 -0.2781 -1.8817 -2.1443
21004SOL     OW64144   1.339   4.719   2.512  0.3534  0.0835 -0.2632
21004SOL    HW164145   1.349   4.677   2.427  0.5716 -1.6695  0.5800
21004SOL    HW264146   1.245   4.734   2.521  0.3773  0.7146 -0.9943
21005SOL     OW64147   4.292   1.111   9.023  0.8508  0.3150  0.7541
21005SOL    HW164148   4.332   1.179   9.077 -0.9106  0.6897  1.6614
21005SOL    HW264149   4.250   1.159   8.951  3.1337 -0.1769 -1.0062
21006SOL     OW64150   0.686   8.644   7.062 -0.3600 -0.6564  0.6790
21006SOL    HW164151   0.762   8.700   7.046 -0.2017 -1.1566 -0.4127
21006SOL    HW264152   0.612   8.694   7.028 -0.1715 -1.2289 -0.6468
21007SOL     OW64153   1.971   1.998   6.210 -0.2702  0.5707  0.6642
21007SOL    HW164154   1.916   1.981   6.134  0.3101  1.4179  0.0341
21007SOL    HW264155   2.060   1.977   6.181 -0.0894  0.5171  1.2338
21008SOL     OW64156   1.021   6.661   5.466  0.3722 -0.0472 -0.1058
21008SOL    HW164157   1.055   6.733   5.520  2.1131 -0.6320 -0.3590
21008SOL    HW264158   0.983   6.705   5.389 -0.1068  0.6680  0.5248
21009SOL     OW64159   2.506   4.907   0.017 -0.9526 -0.0943 -0.0682
21009SOL    HW164160   2.542   4.942  -0.064 -1.9075 -1.5878 -1.1786
21009SOL    HW264161   2.423   4.953   0.028 -0.7832  0.1709  0.1332
21010SOL     OW64162   7.644   6.777   2.027 -0.2231  0.5326  0.3204
21010SOL    HW164163   7.589   6.843   2.069 -0.0324 -0.0980  1.5930
21010SOL    HW264164   7.733   6.799   2.053 -0.1824 -0.3853  0.9890
21011SOL     OW64165   3.828   3.265   3.940 -0.5069 -0.5356  0.5453
21011SOL    HW164166   3.859   3.330   3.877  0.7263  0.8087  2.4530
21011SOL    HW264167   3.856   3.181   3.904 -0.9612  0.0647 -1.3076
21012SOL     OW64168   7.364   3.471   7.205  0.5368 -0.8134  0.1597
21012SOL    HW164169   7.302   3.406   7.236 -0.1542 -0.2691 -0.0455
21012SOL    HW264170   7.396   3.515   7.284  0.2536 -0.7347  0.2292
21013SOL     OW64171   6.816   8.086   5.349  0.4366  0.3169  0.6761
21013SOL    HW164172   6.854   8.168   5.381  1.5607  0.8187 -1.7649
21013SOL    HW264173   6.872   8.018   5.386  0.3189  0.6922  1.5956
21014SOL     OW64174   0.443   1.606   6.827  0.1816  0.2054 -0.1111
21014SOL    HW164175   0.487   1.563   6.900 -0.3353 -0.1599 -0.0048
21014SOL    HW264176   0.452   1.700   6.845  0.4091  0.1208  0.2091
21015SOL     OW64177   2.895   5.110   0.351 -0.1647  0.0107  0.0293
21015SOL    HW164178   2.838   5.104   0.274 -0.9168 -0.6024  0.6248
21015SOL    HW264179   2.901   5.021   0.384  1.6968 -0.0642 -0.3933
21016SOL     OW64180   5.224   3.668   6.070  0.0019 -0.1618  0.7597
21016SOL    HW164181   5.292   3.735   6.082 -1.2547  0.7977  3.4559
21016SOL    HW264182   5.182   3.662   6.156 -2.6542 -1.4511 -0.5184
21017SOL     OW64183   4.473   2.127   5.182  0.8411 -0.1096  0.7305
21017SOL    HW164184   4.424   2.046   5.174  1.6985 -0.5205 -0.7871
21017SOL    HW264185   4.419   2.192   5.138  0.5494 -0.0358  1.1942
21018SOL     OW64186   8.490   2.828   8.846  0.6563 -0.6130 -0.2502
21018SOL    HW164187   8.423   2.760   8.840  0.5306 -0.6191  1.0188
21018SOL    HW264188   8.459   2.897   8.787 -0.7450 -0.4023  0.6712
21019SOL     OW64189   3.287   7.735   8.685  0.1445  1.0904  0.3914
21019SOL    HW164190   3.281   7.819   8.730  1.5199  0.2611  2.2796
21019SOL    HW264191   3.261   7.753   8.595 -3.3848  2.7742  1.5496
21020SOL     OW64192   4.773   7.697   4.635  0.3454 -0.0102  0.3115
21020SOL    HW164193   4.829   7.690   4.558 -0.0259  0.1452  0.0241
21020SOL    HW264194   4.696   7.646   4.613  0.4343 -0.3411  0.7635
21021SOL     OW64195   4.325   6.241   2.565  0.1576  0.3918 -0.1790
21021SOL    HW164196   4.268   6.164   2.575 -0.6886  1.0021 -0.2726
21021SOL    HW264197   4.413   6.208   2.587 -0.2151 -0.5690 -0.0809
21022SOL     OW64198   7.736   2.418   7.978 -0.5430  0.6041 -0.0286
21022SOL    HW164199   7.796   2.446   8.047 -1.0417 -0.2525  0.7893
21022SOL    HW264200   7.651   2.454   8.004 -0.8438 -0.1821  0.1167
21023SOL     OW64201   8.288   8.167   3.516 -0.1163  0.4196 -0.7204
21023SOL    HW164202   8.335   8.115   3.451 -1.0204 -1.8579  0.3652
21023SOL    HW264203   8.202   8.127   3.522 -0.6493  1.6626  0.6224
21024SOL     OW64204   6.839   7.086   0.270  0.0898 -0.1029 -0.6527
21024SOL    HW164205   6.868   7.154   0.208  1.3703 -1.1294 -1.2158
21024SOL    HW264206   6.744   7.096   0.273  0.0378  0.2499 -2.4702
21025SOL     OW64207   5.139   7.419   6.389 -0.0894 -0.1749  0.3964
21025SOL    HW164208   5.095   7.479   6.328  0.4788  0.2215  0.3647
21025SOL    HW264209   5.130   7.462   6.474 -0.4598 -0.4894  0.5170
21026SOL     OW64210   5.114   5.718   0.285 -0.4209  1.1921 -0.5325
21026SOL    HW164211   5.161   5.675   0.356 -1.9087  1.9184  0.9772
21026SOL    HW264212   5.175   5.717   0.211  1.3053  0.7061  0.8341
21027SOL     OW64213   5.360   3.703   4.107 -0.2673  0.3599 -0.7632
21027SOL    HW164214   5.425   3.741   4.166 -1.0036  0.2716  0.1224
21027SOL    HW264215   5.411   3.672   4.032  1.1783 -2.5573  1.2481
21028SOL     OW64216   5.528   4.848   2.618  0.1541 -0.2539 -0.3944
21028SOL    HW164217   5.579   4.766   2.619  1.2010  0.3825  0.3873
21028SOL    HW264218   5.483   4.849   2.703  1.9977  1.0673  0.6378
21029SOL     OW64219   6.238   8.832   2.166  0.6964 -0.3219  0.0455
21029SOL    HW164220   6.225   8.874   2.080 -4.5054 -0.9495  0.2260
21029SOL    HW264221   6.221   8.739   2.150  3.1081 -1.0470  1.2697
21030SOL     OW64222   5.036   6.479   0.809  0.3222  0.6520 -0.1659
21030SOL    HW164223   5.080   6.441   0.886 -0.6555 -0.9999 -0.3834
21030SOL    HW264224   4.943   6.466   0.826 -0.0873  2.9123 -0.3295
21031SOL     OW64225   1.567   6.230   1.111 -0.2520 -0.2438 -0.5465
21031SOL    HW164226   1.544   6.197   1.198  0.4932 -2.6317 -1.1622
21031SOL    HW264227   1.486   6.271   1.079 -0.5208  0.7319  1.2575
21032SOL     OW64228   4.658   4.482   7.090 -0.1224  0.1613  0.2369
21032SOL    HW164229   4.607   4.561   7.075 -2.2166 -1.3992 -1.5999
21032SOL    HW264230   4.726   4.484   7.023 -0.0129  0.5192  0.3571
21033SOL     OW64231   7.177   8.915   2.070 -0.0581 -0.9399  0.0586
21033SOL    HW164232   7.231   8.927   2.148 -1.6088 -1.2215  1.2099
21033SOL    HW264233   7.225   8.850   2.018  1.2207 -0.4167  0.5412
21034SOL     OW64234   8.569   4.714   5.342  0.2697 -0.0387 -0.0158
21034SOL    HW164235   8.513   4.670   5.277 -1.4905  0.7943  0.8628
21034SOL    HW264236   8.538   4.680   5.426  1.0146  0.5364  0.4992
21035SOL     OW64237   6.130   2.868   8.166  0.4419  0.3191 -0.4331
21035SOL    HW164238   6.178   2.818   8.232  0.2324 -0.1558 -0.6383
21035SOL    HW264239   6.039   2.864   8.195  0.1467 -0.9970 -1.4229
21036SOL     OW64240   6.829   2.542   2.775  0.0176  0.3204 -0.3727
21036SOL    HW164241   6.750   2.489   2.764  0.4647 -0.9026  1.7996
21036SOL    HW264242   6.895   2.500   2.719  0.9280 -2.8192  2.6771
21037SOL     OW64243   4.430   5.655   2.970 -0.2012  0.1672  1.9602
21037SOL    HW164244   4.465   5.566   2.968 -1.8007 -0.5043  1.6026
21037SOL    HW264245   4.497   5.708   3.013  1.5020 -0.8752  0.6819
21038SOL     OW64246   2.710   5.798   5.405  0.0358  0.4494 -0.4533
21038SOL    HW164247   2.655   5.749   5.344 -0.2071  0.8654 -0.5719
21038SOL    HW264248   2.790   5.818   5.356 -0.3573  1.1965 -0.7940
21039SOL     OW64249   1.315   2.791   2.604 -0.0810  0.4414  0.7168
21039SOL    HW164250   1.293   2.884   2.595 -0.4311  0.2535 -0.5668
21039SOL    HW264251   1.333   2.762   2.515  1.6760 -0.3389  1.2944
21040SOL     OW64252   6.078   7.492   6.918  0.2133 -0.6157 -0.2215
21040SOL    HW164253   6.104   7.563   6.977  0.7840 -0.4344 -0.6826
21040SOL    HW264254   5.988   7.472   6.943  0.5334 -0.7316  0.9011
21041SOL     OW64255   2.154   5.508   0.639 -0.2341 -0.0627  0.1650
21041SOL    HW164256   2.100   5.559   0.700 -0.3129  0.0422  0.0096
21041SOL    HW264257   2.244   5.526   0.666 -0.2295  0.7977 -0.3809
21042SOL     OW64258   4.185   5.245   6.484  0.8555  0.0565  0.4247
21042SOL    HW164259   4.229   5.165   6.513  0.1335 -1.3852 -2.1444
21042SOL    HW264260   4.234   5.273   6.407 -0.7948  0.2121 -0.6195
21043SOL     OW64261   5.947   2.431   6.447 -0.0853 -0.3947  0.2298
21043SOL    HW164262   5.892   2.510   6.456 -0.9243 -0.8257 -0.8571
21043SOL    HW264263   6.002   2.431   6.525 -1.2264  0.3815  1.0670
21044SOL     OW64264   8.772   1.934   6.389  0.0044  0.1929  0.0275
21044SOL    HW164265   8.714   1.939   6.465 -1.0964 -0.3342 -0.7641
21044SOL    HW264266   8.823   2.016   6.393 -0.2049  0.2842  1.1791
21045SOL     OW64267   1.806   0.167   2.053 -0.8274  0.4578 -0.0661
21045SOL    HW164268   1.808   0.237   2.118  1.1214  0.3657  0.0337
21045SOL    HW264269   1.892   0.171   2.011 -2.0450  0.5990 -2.7742
21046SOL     OW64270   4.494   2.099   7.886 -0.3888  0.1580 -0.4741
21046SOL    HW164271   4.449   2.015   7.881 -0.8806  0.4809 -2.1041
21046SOL    HW264272   4.555   2.098   7.813  2.5392 -0.3443  1.7809
21047SOL     OW64273   0.323   3.207   0.844  0.5799  0.4861  0.2443
21047SOL    HW164274   0.283   3.267   0.782 -0.3472  1.3051  1.5819
21047SOL    HW264275   0.358   3.136   0.790 -0.4936  0.9961 -1.1700
21048SOL     OW64276   8.196   3.558   5.787  0.1205 -0.2237 -0.5571
21048SOL    HW164277   8.268   3.508   5.827  0.3569  0.5269 -0.0342
21048SOL    HW264278   8.197   3.642   5.832 -0.4062  0.1886 -1.2937
21049SOL     OW64279   1.919   7.053   1.776  0.2581 -0.0859  0.1179
21049SOL    HW164280   1.888   6.969   1.741 -1.6779  1.7364 -3.0257
21049SOL    HW264281   1.873   7.063   1.859 -0.1053 -1.7510  0.1664
21050SOL     OW64282   6.197   3.991   1.129 -0.0385 -0.1328 -0.1682
21050SOL    HW164283   6.252   4.066   1.152 -0.6745  0.3582 -0.2309
21050SOL    HW264284   6.116   4.030   1.097  0.2168 -0.8087 -1.7524
21051SOL     OW64285   3.934   1.303   0.767  0.4567 -0.6166 -0.2526
21051SOL    HW164286   3.899   1.391   0.758  2.7260  0.2449 -1.5075
21051SOL    HW264287   3.879   1.262   0.834 -1.1314  1.4665 -0.1689
21052SOL     OW64288   5.751   8.049   3.550  0.2466  0.7242  0.4656
21052SOL    HW164289   5.663   8.061   3.515 -0.8046  0.9968  2.9945
21052SOL    HW264290   5.786   8.137   3.558  0.4687  0.6663  0.1288
21053SOL     OW64291   5.845   8.702   4.239  0.5944  0.7901 -0.0428
21053SOL    HW164292   5.925   8.745   4.270  0.1518  1.4168  0.2334
21053SOL    HW264293   5.782   8.772   4.230  0.2320  0.3739 -0.8058
21054SOL     OW64294   7.607   1.541   1.622  0.2318 -0.0112 -0.1085
21054SOL    HW164295   7.602   1.491   1.540 -1.2359  0.3559 -0.2650
21054SOL    HW264296   7.576   1.480   1.689  0.7911 -0.0926  0.0823
21055SOL     OW64297   6.384   3.685   4.434  0.2171 -0.3087 -0.8323
21055SOL    HW164298   6.344   3.769   4.457 -0.1695 -0.3554 -1.3367
21055SOL    HW264299   6.310   3.628   4.414  0.4480 -0.9493  0.0937
21056SOL     OW64300   1.142   0.798   6.525 -0.2738  0.0694  0.1930
21056SOL    HW164301   1.128   0.839   6.611 -1.9987 -0.3490  0.1416
21056SOL    HW264302   1.088   0.719   6.527  0.0006 -0.1774 -1.1363
21057SOL     OW64303   7.307   5.855   3.160  0.4172 -0.4606  0.8069
21057SOL    HW164304   7.357   5.902   3.226  0.5888 -1.5684  1.5022
21057SOL    HW264305   7.266   5.783   3.209  0.0882 -0.9687 -0.1919
21058SOL     OW64306   8.135   4.608   1.446  0.1599 -0.4024  0.1150
21058SOL    HW164307   8.043   4.620   1.468  0.4590  1.4426  0.4908
21058SOL    HW264308   8.136   4.534   1.385 -1.5051 -0.7375  0.4561
21059SOL     OW64309   0.081   0.267   0.712  0.5127 -0.0919 -0.1136
21059SOL    HW164310   0.149   0.324   0.747 -0.4253  0.1376  1.4338
21059SOL    HW264311   0.123   0.182   0.703  1.1022  0.1285  0.4695
21060SOL     OW64312   0.615   6.215   8.391  0.2314  0.2476  0.1261
21060SOL    HW164313   0.548   6.273   8.429 -0.8288 -0.9024  0.0595
21060SOL    HW264314   0.679   6.204   8.461  1.1926  2.5645 -0.2936
21061SOL     OW64315   9.059   7.531   7.363  0.5340 -0.2344  0.1627
21061SOL    HW164316   9.040   7.536   7.270  0.2721  0.4381  0.2468
21061SOL    HW264317   9.000   7.595   7.403  2.0854  0.9956  0.5773
21062SOL     OW64318   3.101   2.848   2.594 -0.4715 -0.3907  0.5767
21062SOL    HW164319   3.171   2.837   2.658  0.6475  0.4617 -0.4596
21062SOL    HW264320   3.137   2.813   2.513 -1.7441 -1.1355  0.2989
21063SOL     OW64321   5.643   0.117   6.601  0.2817 -0.1927  0.1981
21063SOL    HW164322   5.696   0.046   6.638  0.3753  0.8830  2.2427
21063SOL    HW264323   5.557   0.078   6.585  0.7879 -1.1627 -0.2416
21064SOL     OW64324   6.713   5.866   7.167 -0.0486 -0.3040 -0.4804
21064SOL    HW164325   6.754   5.859   7.081 -2.9134 -1.4182 -1.8988
21064SOL    HW264326   6.697   5.776   7.194  0.4106  0.0418  1.0673
21065SOL     OW64327   5.661   7.266   4.266  0.4987 -0.7130 -0.1296
21065SOL    HW164328   5.729   7.210   4.304  0.8248  0.5657  1.2798
21065SOL    HW264329   5.615   7.303   4.342  1.4951  2.3512 -0.8691
21066SOL     OW64330   4.827   3.520   5.849 -0.1239  0.1371  0.4540
21066SOL    HW164331   4.734   3.514   5.871  0.2129  1.8386  2.8293
21066SOL    HW264332   4.869   3.458   5.910  0.3766 -0.0504 -0.0759
21067SOL     OW64333   3.109   4.707   3.374  0.7520 -0.2794 -0.0368
21067SOL    HW164334   3.085   4.741   3.288  0.5580  0.1845  0.1972
21067SOL    HW264335   3.182   4.762   3.403  1.4260 -1.0120 -0.2877
21068SOL     OW64336   5.552   8.718   1.401 -0.0889  0.7414  0.2468
21068SOL    HW164337   5.480   8.741   1.459  0.4288 -1.0820  1.7284
21068SOL    HW264338   5.519   8.737   1.313 -3.4294 -2.2951  0.6003
21069SOL     OW64339   6.257   1.311   2.526  0.5507  0.3547 -0.1735
21069SOL    HW164340   6.256   1.333   2.619 -1.0517  0.2858 -0.1418
21069SOL    HW264341   6.247   1.395   2.481 -0.5984  0.2195 -0.2032
21070SOL     OW64342   7.457   3.843   4.242  0.4494  0.7126 -0.2665
21070SOL    HW164343   7.509   3.774   4.284  0.4564  0.3198 -0.9062
21070SOL    HW264344   7.511   3.873   4.170 -0.8268 -0.8379 -1.9717
21071SOL     OW64345   8.497   0.595   3.725 -0.7063 -0.6099 -0.1098
21071SOL    HW164346   8.440   0.533   3.771  0.1486 -1.7539 -0.5394
21071SOL    HW264347   8.552   0.540   3.669  2.1307  0.2126  1.6329
21072SOL     OW64348   2.483   6.261   3.993 -0.3768 -0.1902  0.3227
21072SOL    HW164349   2.410   6.312   3.959 -0.0561 -0.3456 -0.6119
21072SOL    HW264350   2.561   6.313   3.974  0.2219 -1.9647 -2.7468
21073SOL     OW64351   4.017   3.997   1.212  0.2395 -0.1845  0.1462
21073SOL    HW164352   4.034   3.975   1.121  0.0754  1.5760 -0.3531
21073SOL    HW264353   3.940   4.055   1.209  0.5398  0.3206  1.3455
21074SOL     OW64354   3.375   7.362   6.997 -0.0376  0.4315  0.7713
21074SOL    HW164355   3.352   7.332   6.909 -1.2159  0.2646  1.1096
21074SOL    HW264356   3.360   7.286   7.053  1.2739  0.3586  1.0544
21075SOL     OW64357   0.982   9.073   7.327  0.5688  0.4177  0.2071
21075SOL    HW164358   1.024   9.126   7.259 -2.5069  2.8350 -0.0766
21075SOL    HW264359   0.985   9.128   7.405  0.0392 -0.3142  0.7529
21076SOL     OW64360   6.078   6.907   8.298 -0.0157  0.1060  0.4575
21076SOL    HW164361   6.157   6.858   8.318  0.2012 -0.0849 -0.7693
21076SOL    HW264362   6.101   6.999   8.314  0.3470  0.0206  0.4191
21077SOL     OW64363   4.234   6.137   3.310 -0.8186  0.6476  0.1840
21077SOL    HW164364   4.193   6.218   3.340 -0.7205  0.9486 -0.4895
21077SOL    HW264365   4.190   6.068   3.360 -2.5130  0.9021 -0.8694
21078SOL     OW64366   5.935   6.732   6.268 -0.0293  0.1452  0.3900
21078SOL    HW164367   5.953   6.758   6.177  0.0785 -1.0774  0.0380
21078SOL    HW264368   5.840   6.743   6.277  0.2585  2.6918  0.9596
21079SOL     OW64369   7.439   6.825   4.863 -0.2352 -0.0567 -0.5682
21079SOL    HW164370   7.453   6.869   4.779  1.5883 -0.4437 -0.5078
21079SOL    HW264371   7.409   6.894   4.922 -0.7115  0.3939 -1.3235
21080SOL     OW64372   0.050   1.938   8.309  0.4815  0.2191 -0.0978
21080SOL    HW164373   0.039   1.907   8.219 -0.8628  0.1329  0.0854
21080SOL    HW264374   0.109   1.873   8.349  0.3144 -0.2786 -0.6422
21081SOL     OW64375   9.113   6.190   4.598  0.2957 -0.0462  0.2285
21081SOL    HW164376   9.033   6.182   4.650 -0.2613  1.8432 -0.2716
21081SOL    HW264377   9.179   6.220   4.661 -0.1778  1.4178  0.0761
21082SOL     OW64378   4.214   1.003   5.816  0.2893 -0.2878 -0.1147
21082SOL    HW164379   4.261   1.013   5.733  0.1302 -0.3247 -0.2102
21082SOL    HW264380   4.272   1.043   5.881  1.3803 -2.0858  0.0925
21083SOL     OW64381   8.284   7.107   6.767  0.6450  0.6849  0.6704
21083SOL    HW164382   8.252   7.054   6.694  1.6330  1.3085 -0.2330
21083SOL    HW264383   8.208   7.161   6.791  0.0138 -0.2156  0.7717
21084SOL     OW64384   1.700   2.301   7.732 -0.1147  0.0706 -0.4139
21084SOL    HW164385   1.642   2.225   7.733 -1.6558  1.2111  0.3212
21084SOL    HW264386   1.778   2.270   7.686 -1.2924 -1.5164 -1.4693
21085SOL     OW64387   3.508   4.213   2.609  0.0526 -0.0377  0.1211
21085SOL    HW164388   3.440   4.218   2.542 -0.1210  0.6634  0.3476
21085SOL    HW264389   3.586   4.247   2.566  1.2311 -3.9398 -1.2952
21086SOL     OW64390   5.927   6.634   1.557  0.6055  0.0789  0.4514
21086SOL    HW164391   6.002   6.585   1.523  1.9025  1.9508  0.4891
21086SOL    HW264392   5.901   6.692   1.485 -1.6344 -1.3423  0.0028
21087SOL     OW64393   0.834   1.778   3.081  0.6780  0.5386 -0.7632
21087SOL    HW164394   0.785   1.828   3.015 -1.7598 -0.0403  0.4970
21087SOL    HW264395   0.917   1.823   3.088 -0.8921  3.6696 -0.6376
21088SOL     OW64396   2.579   0.744   5.892 -0.1633 -0.6018  0.4008
21088SOL    HW164397   2.609   0.833   5.907  3.7627 -1.2819 -2.0475
21088SOL    HW264398   2.497   0.754   5.844 -1.5664  1.4856  2.9186
21089SOL     OW64399   4.315   5.913   7.509  0.2770 -0.3360  0.2895
21089SOL    HW164400   4.384   5.977   7.493 -0.4405  0.4280  0.1448
21089SOL    HW264401   4.308   5.907   7.604 -0.0394  0.2477  0.3083
21090SOL     OW64402   7.011   0.086   2.783 -0.5971  0.3312  0.1391
21090SOL    HW164403   7.064   0.024   2.833  1.2873  1.1788 -0.7154
21090SOL    HW264404   6.990   0.039   2.702 -1.1196  0.0153  0.4534
21091SOL     OW64405   3.590   1.388   1.631  0.1660  0.6146 -0.6425
21091SOL    HW164406   3.567   1.444   1.704 -0.4508  2.5022 -2.2097
21091SOL    HW264407   3.529   1.314   1.637  1.4372 -0.3731  1.8337
21092SOL     OW64408   4.933   3.487   5.564 -0.6713  0.9312  0.2476
21092SOL    HW164409   4.946   3.497   5.658 -0.9743  0.7852  0.3060
21092SOL    HW264410   4.849   3.530   5.547 -0.3818  1.3969 -0.0366
21093SOL     OW64411   3.924   8.814   6.162  0.1307  0.3587 -0.2787
21093SOL    HW164412   3.853   8.857   6.209  0.1208  0.3951 -0.3275
21093SOL    HW264413   3.886   8.790   6.078  0.5328  1.4840 -0.7909
21094SOL     OW64414   1.144   1.240   4.586 -0.5065 -0.4031  0.0636
21094SOL    HW164415   1.125   1.313   4.645 -2.0523 -0.2339 -0.6050
21094SOL    HW264416   1.233   1.257   4.554 -0.1720  0.2201  1.2652
21095SOL     OW64417   5.574   4.195   6.908 -0.4544  0.1607 -0.3053
21095SOL    HW164418   5.516   4.127   6.943 -0.8231 -1.9037 -4.3450
21095SOL    HW264419   5.661   4.172   6.941 -0.7341 -1.8093 -0.8072
21096SOL     OW64420   7.861   8.298   3.034 -0.3409 -0.5847  0.4005
21096SOL    HW164421   7.813   8.235   3.088  1.0058 -0.2240  2.1268
21096SOL    HW264422   7.925   8.336   3.094  0.9174  0.2187 -1.3706
21097SOL     OW64423   0.516   4.182   6.387  0.8961  0.3898 -0.0396
21097SOL    HW164424   0.611   4.199   6.387  1.0743 -0.0918 -2.8943
21097SOL    HW264425   0.491   4.188   6.479  3.2774  2.8092  0.5992
21098SOL     OW64426   2.372   8.912   2.294  0.5463 -0.3021 -0.1954
21098SOL    HW164427   2.442   8.921   2.359 -0.1196  1.3267  0.3527
21098SOL    HW264428   2.418   8.911   2.210  1.2381  1.9323  0.0822
21099SOL     OW64429   3.578   5.608   3.629 -0.6266  0.0109 -0.5187
21099SOL    HW164430   3.537   5.613   3.542 -0.6930 -1.0787 -0.5669
21099SOL    HW264431   3.648   5.543   3.619  0.9494  1.5984 -0.3477
21100SOL     OW64432   0.194   5.644   1.721  0.5092 -0.7096 -0.0545
21100SOL    HW164433   0.248   5.597   1.658  0.9933 -0.2214 -0.0093
21100SOL    HW264434   0.104   5.616   1.701  0.7755 -1.6281 -0.0475
21101SOL     OW64435   1.389   8.380   1.230 -0.1650 -0.1424  0.1321
21101SOL    HW164436   1.306   8.418   1.259 -1.3649 -1.4670 -1.3996
21101SOL    HW264437   1.418   8.326   1.304 -0.6880  0.2572  0.6439
21102SOL     OW64438   2.847   8.942   2.033  0.2597  0.5137  0.9640
21102SOL    HW164439   2.913   8.877   2.009 -0.3281  0.2726 -0.0943
21102SOL    HW264440   2.780   8.934   1.965  0.2259  2.3123  0.7289
21103SOL     OW64441   7.376   1.052   1.599  0.1444  0.0013  0.1823
21103SOL    HW164442   7.357   1.019   1.687  0.1228 -0.2799  0.0721
21103SOL    HW264443   7.351   0.981   1.540 -1.1334  0.7021 -0.1480
21104SOL     OW64444   4.343   1.650   6.857  0.3014 -0.1359 -0.0040
21104SOL    HW164445   4.344   1.735   6.812 -0.9743 -0.0049  0.1776
21104SOL    HW264446   4.425   1.609   6.832 -0.4070 -0.1589 -2.6546
21105SOL     OW64447   0.567   4.452   5.668 -0.3538 -0.1589  0.0480
21105SOL    HW164448   0.639   4.490   5.618 -0.0210  1.3756  1.6009
21105SOL    HW264449   0.564   4.361   5.640  1.6092 -0.0463 -0.7001
21106SOL     OW64450   4.629   0.158   0.177  0.1028 -0.7676 -0.0651
21106SOL    HW164451   4.641   0.099   0.251  1.7064 -2.4560 -1.5723
21106SOL    HW264452   4.599   0.102   0.106  0.1517  0.5107 -1.1331
21107SOL     OW64453   5.693   6.494   8.968  0.2637 -0.6497  0.1975
21107SOL    HW164454   5.718   6.545   8.891  0.6952 -0.3873  0.5099
21107SOL    HW264455   5.753   6.419   8.968 -0.3872 -1.1815 -0.2766
21108SOL     OW64456   8.530   7.086   3.032 -0.2883  0.3347  0.2018
21108SOL    HW164457   8.470   7.076   2.958 -0.1470  1.9731 -0.1825
21108SOL    HW264458   8.526   7.003   3.079 -2.4337  0.2000 -0.1305
21109SOL     OW64459   0.833   3.518   8.826  0.3465 -0.2860 -0.3609
21109SOL    HW164460   0.765   3.585   8.815  1.2015  0.7197  0.3438
21109SOL    HW264461   0.784   3.436   8.833 -0.9569  0.5747  1.8215
21110SOL     OW64462   0.510   8.001   5.110  0.0019 -0.2165  0.0914
21110SOL    HW164463   0.455   8.029   5.037  1.2419 -1.1649 -1.2774
21110SOL    HW264464   0.448   7.978   5.180 -1.2415  0.3003 -0.8025
21111SOL     OW64465   4.410   5.806   0.049 -0.4636  0.7447  0.3538
21111SOL    HW164466   4.468   5.778  -0.022  0.7818  2.1620  0.7377
21111SOL    HW264467   4.449   5.767   0.128 -2.0797 -1.1727  0.2611
21112SOL     OW64468   1.503   6.354   2.384  0.2122  0.2666  0.7408
21112SOL    HW164469   1.523   6.334   2.476  1.7372 -1.0830  0.1668
21112SOL    HW264470   1.522   6.273   2.337 -1.1309  0.7422 -0.7223
21113SOL     OW64471   7.308   9.058   3.895 -0.3079 -0.6381  0.1864
21113SOL    HW164472   7.279   9.133   3.947 -0.9460 -0.8065  0.0862
21113SOL    HW264473   7.345   9.097   3.816  2.2605 -0.2783  1.4325
21114SOL     OW64474   3.172   8.347   4.789  0.1729  0.1944  0.1016
21114SOL    HW164475   3.241   8.367   4.727  0.2110 -0.0528  0.0649
21114SOL    HW264476   3.196   8.395   4.868 -0.1524  0.9363 -0.2421
21115SOL     OW64477   0.765   1.757   1.954 -0.0837  0.0623  0.6291
21115SOL    HW164478   0.765   1.827   2.018 -1.7672 -0.0816  0.8204
21115SOL    HW264479   0.729   1.797   1.875 -0.8449 -0.5156  0.6741
21116SOL     OW64480   1.775   4.636   6.976  0.6468  0.2576 -0.2655
21116SOL    HW164481   1.818   4.584   6.908  0.9922 -1.1880  0.9964
21116SOL    HW264482   1.723   4.572   7.025 -2.6338  1.8220 -1.3901
21117SOL     OW64483   8.404   1.069   7.717 -0.0228 -0.0082  0.2809
21117SOL    HW164484   8.496   1.053   7.700 -0.2043 -0.2461 -0.5175
21117SOL    HW264485   8.370   0.985   7.749 -0.0774 -0.0635  0.0764
21118SOL     OW64486   8.606   2.258   5.810 -0.7299  0.1404  0.4258
21118SOL    HW164487   8.587   2.291   5.723  0.4489 -0.4797 -0.0867
21118SOL    HW264488   8.538   2.192   5.826 -0.8952  0.1908 -0.0511
21119SOL     OW64489   4.384   4.556   1.393 -0.1546 -0.2741 -0.7825
21119SOL    HW164490   4.413   4.638   1.433 -0.9753 -1.1139  1.7428
21119SOL    HW264491   4.461   4.521   1.350  0.4789  1.2939 -0.9671
21120SOL     OW64492   5.319   2.055   3.727  0.2003 -0.4525 -0.3803
21120SOL    HW164493   5.266   2.027   3.652 -0.4705  0.4175 -0.2477
21120SOL    HW264494   5.345   2.145   3.706 -0.4370 -0.0054  0.6516
21121SOL     OW64495   0.167   0.046   1.617 -0.4916 -0.2194  0.2752
21121SOL    HW164496   0.171  -0.050   1.623  1.1566 -0.1984 -0.0142
21121SOL    HW264497   0.119   0.063   1.536  0.2561 -0.8314 -0.3175
21122SOL     OW64498   6.033   7.654   0.053 -0.2053 -0.6959 -0.1525
21122SOL    HW164499   5.983   7.582   0.093 -0.8379  0.2160  0.7643
21122SOL    HW264500   6.036   7.633  -0.040 -3.9235  0.0796 -0.6067
21123SOL     OW64501   6.155   2.364   3.117 -0.6628  0.2424 -0.2267
21123SOL    HW164502   6.079   2.410   3.153 -0.3492  0.2263  0.4774
21123SOL    HW264503   6.147   2.375   3.022  1.2116  4.7652 -0.1209
21124SOL     OW64504   3.963   0.443   8.648 -0.3457  0.0993  0.0513
21124SOL    HW164505   3.927   0.484   8.726 -0.6286 -1.0637  0.5417
21124SOL    HW264506   4.057   0.437   8.665 -0.6104 -1.7182  1.0697
21125SOL     OW64507   6.487   1.805   2.998 -0.1440 -0.1030  0.3992
21125SOL    HW164508   6.579   1.786   3.016  0.0808 -0.0010 -0.6111
21125SOL    HW264509   6.440   1.732   3.039  0.2838  0.4983  2.0114
21126SOL     OW64510   2.315   5.719   6.739  0.0250 -0.7649 -0.3352
21126SOL    HW164511   2.264   5.638   6.738  1.8233 -1.9866 -3.2275
21126SOL    HW264512   2.399   5.695   6.778  0.1774  0.0121 -0.1574
21127SOL     OW64513   3.336   4.802   3.133  0.4443 -0.1198  0.4346
21127SOL    HW164514   3.244   4.818   3.156  0.9653  1.9960  1.3177
21127SOL    HW264515   3.347   4.708   3.143 -2.0916 -0.7391 -1.5512
21128SOL     OW64516   7.610   6.946   8.210  0.6890  0.8149 -0.2063
21128SOL    HW164517   7.689   6.935   8.262  0.5906 -1.4095 -0.4431
21128SOL    HW264518   7.628   6.901   8.128 -2.0440 -3.3998  1.1557
21129SOL     OW64519   7.638   7.862   2.787 -0.2373  0.5058  0.3945
21129SOL    HW164520   7.601   7.785   2.743 -1.8192  0.7142  1.3139
21129SOL    HW264521   7.654   7.924   2.716 -3.1964  1.0197  0.0482
21130SOL     OW64522   2.612   3.156   1.558 -0.7497 -0.2833 -0.9126
21130SOL    HW164523   2.569   3.240   1.538 -0.0460  0.7848  1.6615
21130SOL    HW264524   2.683   3.150   1.494 -0.1272  1.6868 -0.4839
21131SOL     OW64525   2.234   1.970   8.407  0.1041 -0.1072 -0.1583
21131SOL    HW164526   2.208   2.036   8.471  1.0726 -0.5110  0.6762
21131SOL    HW264527   2.297   1.915   8.453  1.2051 -0.1192 -1.6205
21132SOL     OW64528   6.984   2.590   5.359 -0.3268 -0.4518  0.1900
21132SOL    HW164529   7.050   2.652   5.328  0.3143  0.0613  2.4124
21132SOL    HW264530   6.923   2.644   5.410 -0.9227 -1.3380  0.4316
21133SOL     OW64531   0.097   6.069   6.123  0.0112  0.1779  0.1526
21133SOL    HW164532   0.125   6.032   6.039 -0.1887  1.4674 -0.5068
21133SOL    HW264533   0.025   6.128   6.101 -0.3314  0.2147  1.2935
21134SOL     OW64534   3.170   2.241   5.779  0.8174 -0.0936  0.7578
21134SOL    HW164535   3.146   2.151   5.758  0.8735  0.0870 -0.1206
21134SOL    HW264536   3.105   2.269   5.842 -0.1390 -0.2448 -0.1293
21135SOL     OW64537   6.753   2.144   7.270  0.1696 -0.2743  0.1797
21135SOL    HW164538   6.776   2.075   7.209 -2.8656  0.2944 -1.8399
21135SOL    HW264539   6.683   2.106   7.324 -0.6870  0.7829 -0.1386
21136SOL     OW64540   8.656   7.226   5.949  1.3871  0.1567  0.3751
21136SOL    HW164541   8.657   7.132   5.934 -2.6590 -0.0847  0.4819
21136SOL    HW264542   8.737   7.244   5.998  0.7063 -3.8465  3.4703
21137SOL     OW64543   6.412   4.968   4.438 -0.5130  0.0854  0.2053
21137SOL    HW164544   6.322   4.978   4.406 -0.7427  1.1757  1.1061
21137SOL    HW264545   6.431   5.052   4.480 -0.2040 -1.1737  2.7806
21138SOL     OW64546   1.608   6.308   7.275  0.2595  0.3732  0.0541
21138SOL    HW164547   1.676   6.242   7.290 -0.0211 -0.5008 -2.1597
21138SOL    HW264548   1.641   6.387   7.319  1.1771 -0.8677  1.7160
21139SOL     OW64549   2.694   6.455   8.294  0.0868 -0.0347 -0.0769
21139SOL    HW164550   2.772   6.511   8.295 -0.9005  1.3946 -0.3074
21139SOL    HW264551   2.707   6.396   8.219  1.1888 -0.2174  0.2341
21140SOL     OW64552   6.497   0.780   0.652 -0.2431 -0.0684 -0.1434
21140SOL    HW164553   6.528   0.823   0.572 -2.0207  1.7227  0.0488
21140SOL    HW264554   6.456   0.700   0.622  0.0421  0.0618 -0.9141
21141SOL     OW64555   0.550   8.539   1.996  0.5683  0.0781  0.1881
21141SOL    HW164556   0.530   8.619   1.947 -1.0021 -0.7939 -0.6986
21141SOL    HW264557   0.503   8.550   2.079  2.6750  1.2613  1.2885
21142SOL     OW64558   0.295   2.879   1.546  0.3236  0.0493  0.1076
21142SOL    HW164559   0.281   2.971   1.571  0.1014 -0.9164  4.2118
21142SOL    HW264560   0.390   2.870   1.542  0.3603  0.3229  0.3407
21143SOL     OW64561   7.500   6.844   3.806 -0.0567 -0.4996 -0.1021
21143SOL    HW164562   7.454   6.916   3.848 -0.2254  0.0281 -1.1694
21143SOL    HW264563   7.489   6.860   3.712  1.3471 -0.9894 -0.3624
21144SOL     OW64564   6.947   5.451   2.630  0.3928  0.6996  0.0259
21144SOL    HW164565   6.950   5.495   2.545  0.1885 -1.5572 -1.2139
21144SOL    HW264566   6.854   5.436   2.647  0.5131 -1.8813 -1.0928
21145SOL     OW64567   3.864   6.525   4.526 -0.0111  0.0477  0.4290
21145SOL    HW164568   3.771   6.532   4.504  0.5811  2.9128 -1.7395
21145SOL    HW264569   3.892   6.441   4.488 -1.2177  0.2972 -1.0964
21146SOL     OW64570   6.522   2.334   8.301  0.1698  0.6413 -0.4412
21146SOL    HW164571   6.486   2.245   8.309  0.5350  0.5733  0.6014
21146SOL    HW264572   6.605   2.322   8.256  0.2108  0.4594 -0.3188
21147SOL     OW64573   0.899   8.853   1.121  0.7534 -0.3964 -0.1064
21147SOL    HW164574   0.982   8.900   1.129  0.9318 -0.7562  0.1472
21147SOL    HW264575   0.832   8.921   1.126  0.9407 -0.3169  1.8194
21148SOL     OW64576   6.142   4.631   0.754 -0.0908 -0.0471  0.1519
21148SOL    HW164577   6.224   4.612   0.799 -1.1487  0.7979  2.6296
21148SOL    HW264578   6.108   4.546   0.727  1.2789 -0.4466 -0.4064
21149SOL     OW64579   4.417   8.229   4.972 -0.6454  0.0817 -0.0912
21149SOL    HW164580   4.351   8.289   4.938  0.3810  0.4474 -1.5183
21149SOL    HW264581   4.500   8.267   4.947  0.0991 -0.9601  0.6839
21150SOL     OW64582   3.420   6.354   3.055 -0.1355 -0.1848 -0.3754
21150SOL    HW164583   3.414   6.270   3.100 -0.3262 -0.0095 -0.0693
21150SOL    HW264584   3.349   6.352   2.991 -0.6738  0.0738  0.1989
21151SOL     OW64585   0.740   5.401   7.099 -0.4214 -0.7252 -0.3065
21151SOL    HW164586   0.816   5.458   7.112 -1.2296 -0.1818  2.6901
21151SOL    HW264587   0.766   5.342   7.028  1.2381  1.9845 -2.1149
21152SOL     OW64588   5.225   7.118   6.002  0.4090 -0.4556 -0.2315
21152SOL    HW164589   5.234   7.135   6.095  0.7361 -0.9853 -0.1581
21152SOL    HW264590   5.285   7.181   5.960  2.4330 -2.0449  0.0952
21153SOL     OW64591   4.172   0.175   3.220 -0.0070  0.0123  0.0223
21153SOL    HW164592   4.267   0.165   3.231  0.1161  1.0500  0.0274
21153SOL    HW264593   4.146   0.235   3.290 -0.6868 -0.3415  0.0773
21154SOL     OW64594   2.341   3.460   1.863  0.3833  0.0775  0.1728
21154SOL    HW164595   2.246   3.470   1.866  0.3099  0.4457 -2.0609
21154SOL    HW264596   2.368   3.506   1.784  2.5360  0.6591  1.1629
21155SOL     OW64597   6.949   3.285   3.282  0.0298  0.0998  0.6814
21155SOL    HW164598   7.001   3.277   3.202  0.8911  0.5440  1.1819
21155SOL    HW264599   6.926   3.195   3.306 -3.9007  0.0234 -2.3355
21156SOL     OW64600   8.656   6.622   1.934  0.2311 -0.9444 -0.7064
21156SOL    HW164601   8.732   6.675   1.909  0.5613 -1.2176 -0.2894
21156SOL    HW264602   8.606   6.613   1.853  0.2999 -0.2075 -0.8395
21157SOL     OW64603   7.711   0.619   8.064 -0.2746  0.3734  0.3784
21157SOL    HW164604   7.649   0.640   7.995  0.1803  0.9095  0.1268
21157SOL    HW264605   7.778   0.686   8.058 -0.2054  0.4089  1.3200
21158SOL     OW64606   6.508   2.996   3.645  0.2560 -0.3859  0.2406
21158SOL    HW164607   6.521   2.972   3.737 -1.6644 -0.5037  0.5227
21158SOL    HW264608   6.525   2.916   3.597  1.6737 -0.2226  0.4353
21159SOL     OW64609   8.223   7.121   3.020  0.1724  0.1429  0.3945
21159SOL    HW164610   8.228   7.185   2.948  1.8759 -0.0278  0.3210
21159SOL    HW264611   8.240   7.037   2.978  1.5235  0.0807  1.0282
21160SOL     OW64612   0.682   7.196   6.241 -0.0591 -0.0291 -0.3427
21160SOL    HW164613   0.683   7.129   6.310  0.0143 -1.2877 -1.5228
21160SOL    HW264614   0.774   7.219   6.230  0.0749 -0.7994 -0.9135
21161SOL     OW64615   5.158   6.876   1.367  0.2955 -0.1463 -0.0245
21161SOL    HW164616   5.150   6.964   1.328 -0.6591 -0.1922  0.0353
21161SOL    HW264617   5.091   6.874   1.435  0.6753 -0.7397  0.3408
21162SOL     OW64618   1.507   5.340   7.345  0.3671  0.3701  0.4649
21162SOL    HW164619   1.432   5.311   7.293 -0.3273  0.3333  1.4701
21162SOL    HW264620   1.545   5.260   7.381  1.3113  0.3242 -0.5637
21163SOL     OW64621   1.322   2.027   5.034 -0.1458 -0.6170  0.2421
21163SOL    HW164622   1.334   1.934   5.017 -0.2062 -0.4809 -0.6010
21163SOL    HW264623   1.276   2.060   4.957 -2.3092 -0.3363  1.5645
21164SOL     OW64624   3.221   7.159   1.656  0.2350  0.1614  0.0748
21164SOL    HW164625   3.239   7.067   1.676 -1.1569  0.2559  2.0643
21164SOL    HW264626   3.302   7.205   1.680  1.2759 -0.5554 -1.7711
21165SOL     OW64627   8.372   1.243   4.866  0.2292 -0.2551 -0.2625
21165SOL    HW164628   8.417   1.160   4.887 -0.3803 -0.1359  1.7523
21165SOL    HW264629   8.344   1.233   4.775 -2.3013 -3.5064  0.6731
21166SOL     OW64630   2.379   5.338   4.465  0.0360 -0.2808  0.3001
21166SOL    HW164631   2.381   5.403   4.535 -0.0498 -0.0058  0.0502
21166SOL    HW264632   2.340   5.385   4.391  1.6216 -0.0791 -0.4337
21167SOL     OW64633   5.026   4.046   5.788  0.8231 -0.2933 -0.3614
21167SOL    HW164634   4.955   4.011   5.842 -0.9755  0.3625 -2.2186
21167SOL    HW264635   5.093   3.977   5.790 -0.2284 -1.3402  0.6623
21168SOL     OW64636   6.562   7.173   4.826 -0.1497  0.5879  0.0743
21168SOL    HW164637   6.639   7.218   4.791  0.2727  0.7067  1.1198
21168SOL    HW264638   6.586   7.080   4.826 -0.2447  0.5623 -0.1712
21169SOL     OW64639   6.490   3.938   5.719  0.1094  0.0336 -0.2403
21169SOL    HW164640   6.564   3.893   5.679 -0.1857  0.1092 -0.9032
21169SOL    HW264641   6.440   3.870   5.763  1.1393  0.1421  1.1397
21170SOL     OW64642   1.449   0.597   2.304 -0.3472 -0.6562  0.2373
21170SOL    HW164643   1.453   0.650   2.383  0.7098 -1.3033  0.6408
21170SOL    HW264644   1.447   0.660   2.232 -0.9477 -0.0677  0.7636
21171SOL     OW64645   0.390   0.120   7.179  0.2759 -0.4165 -0.3498
21171SOL    HW164646   0.447   0.108   7.254  1.0129  1.4222 -0.5797
21171SOL    HW264647   0.410   0.207   7.146 -1.9799 -0.0766 -1.0306
21172SOL     OW64648   5.183   3.253   7.238  0.2998 -0.5025  0.2741
21172SOL    HW164649   5.277   3.243   7.222  0.7465 -1.2926  2.9493
21172SOL    HW264650   5.172   3.238   7.332 -2.4459  0.1681  0.1618
21173SOL     OW64651   5.336   5.180   2.523  0.6400 -0.7208  0.4629
21173SOL    HW164652   5.292   5.164   2.606  0.2926  0.2771  0.4869
21173SOL    HW264653   5.280   5.138   2.457 -0.2394  0.3055  0.5218
21174SOL     OW64654   6.256   8.227   1.316 -0.0530 -0.3185 -0.3572
21174SOL    HW164655   6.321   8.278   1.363  0.1620  0.8306 -1.8433
21174SOL    HW264656   6.231   8.158   1.377  0.6358  0.7657  1.2043
21175SOL     OW64657   8.372   0.927   0.306  0.6944  0.4895 -0.2045
21175SOL    HW164658   8.308   0.905   0.374  1.9658  0.0477  0.8811
21175SOL    HW264659   8.389   1.020   0.319  0.6878  0.4809 -0.1326
21176SOL     OW64660   1.629   4.010   6.666 -0.1740 -0.2099 -0.5300
21176SOL    HW164661   1.649   4.000   6.573 -0.2518  0.3588 -0.6148
21176SOL    HW264662   1.591   4.098   6.672 -0.6261 -0.4397 -0.0369
21177SOL     OW64663   4.320   6.696   8.570 -0.2125  0.2569  0.4485
21177SOL    HW164664   4.337   6.612   8.614  0.2500  0.4839  0.7038
21177SOL    HW264665   4.226   6.694   8.553 -0.8202  0.9707  3.1751
21178SOL     OW64666   3.134   0.029   2.834  0.0086 -0.5915 -0.4272
21178SOL    HW164667   3.129  -0.053   2.785 -0.1450  0.3155 -1.9841
21178SOL    HW264668   3.186   0.087   2.779  1.5882 -0.1401  1.4192
21179SOL     OW64669   8.535   2.549   5.145 -0.1815  0.0522  0.4750
21179SOL    HW164670   8.607   2.546   5.208 -0.7431  0.5292  1.1627
21179SOL    HW264671   8.462   2.507   5.190  0.4060 -3.1860 -1.3013
21180SOL     OW64672   1.569   0.219   5.824  0.2296  0.0915  0.5874
21180SOL    HW164673   1.663   0.212   5.807  0.1691 -0.2551  0.3870
21180SOL    HW264674   1.557   0.309   5.854  0.4847  0.4157 -0.2612
21181SOL     OW64675   7.889   0.173   6.789 -0.3615  0.1464 -0.6345
21181SOL    HW164676   7.833   0.105   6.752  1.0129 -0.3152 -1.9612
21181SOL    HW264677   7.964   0.125   6.825 -0.5384  0.7922  0.6864
21182SOL     OW64678   7.796   3.651   2.301  0.3210  0.5172 -0.5365
21182SOL    HW164679   7.836   3.669   2.386  0.7271  1.9874 -1.0028
21182SOL    HW264680   7.807   3.557   2.288 -0.5855  0.0791  1.4469
21183SOL     OW64681   0.268   4.082   3.695 -0.2266  0.0852  0.0722
21183SOL    HW164682   0.183   4.067   3.736  0.4627 -0.8093  1.2481
21183SOL    HW264683   0.249   4.139   3.621 -1.9357 -0.5989 -0.0696
21184SOL     OW64684   0.896   7.690   8.075  0.3587  0.3642  0.2856
21184SOL    HW164685   0.839   7.757   8.037  0.6753  0.6096  0.2385
21184SOL    HW264686   0.956   7.667   8.003  0.5448  0.3591  0.4437
21185SOL     OW64687   2.963   8.462   5.511 -0.1322 -1.0363  0.2089
21185SOL    HW164688   2.872   8.458   5.482 -0.2629 -1.9618  0.7311
21185SOL    HW264689   2.969   8.546   5.558  0.2508  0.8489 -2.9039
21186SOL     OW64690   4.956   6.632   1.763 -0.1693  0.1895 -0.0964
21186SOL    HW164691   4.863   6.649   1.776 -0.2291  0.0051 -0.2673
21186SOL    HW264692   4.965   6.538   1.780 -0.1832  0.0207 -1.0002
21187SOL     OW64693   6.847   8.701   5.386  0.1340  0.3010 -0.0347
21187SOL    HW164694   6.920   8.721   5.327 -0.5500 -1.0756 -1.3987
21187SOL    HW264695   6.769   8.721   5.335 -0.4751 -0.4185  0.6042
21188SOL     OW64696   4.272   8.016   5.515 -0.4538 -0.1987 -0.0892
21188SOL    HW164697   4.270   8.046   5.424 -0.7137 -2.4966 -0.8917
21188SOL    HW264698   4.362   7.985   5.528 -0.9097 -1.6088 -0.1818
21189SOL     OW64699   3.134   1.680   4.521 -0.5056 -0.1323 -0.1762
21189SOL    HW164700   3.104   1.764   4.557 -1.3258 -0.4285 -0.1700
21189SOL    HW264701   3.054   1.630   4.505  0.0369 -1.7484  1.7901
21190SOL     OW64702   2.508   8.111   1.571 -0.7218  0.4594  0.3686
21190SOL    HW164703   2.498   8.038   1.510 -1.9422 -0.8336  2.0433
21190SOL    HW264704   2.427   8.113   1.621 -0.7150  2.9592  0.4436
21191SOL     OW64705   9.101   8.544   6.048  0.4761 -0.1075 -0.1649
21191SOL    HW164706   9.127   8.547   5.956  1.0207 -1.3458 -0.0724
21191SOL    HW264707   9.071   8.454   6.061 -0.7411  0.3732  0.5775
21192SOL     OW64708   5.519   4.468   8.460 -0.5405 -0.1523  0.1025
21192SOL    HW164709   5.611   4.482   8.482  0.1350  1.2472 -3.0068
21192SOL    HW264710   5.517   4.378   8.426 -0.4116 -0.3441  0.5980
21193SOL     OW64711   2.181   6.194   6.645 -0.1039 -0.0252  0.0189
21193SOL    HW164712   2.101   6.246   6.641  0.5527  1.1118  0.9755
21193SOL    HW264713   2.239   6.233   6.579 -0.0505 -0.3308 -0.1162
21194SOL     OW64714   5.709   0.807   8.939  0.3715 -0.4021  0.0899
21194SOL    HW164715   5.796   0.826   8.902  0.4461  1.3361  1.0490
21194SOL    HW264716   5.680   0.891   8.975 -2.1957 -0.6597 -1.1648
21195SOL     OW64717   7.011   2.115   4.824 -0.8665  0.0142 -0.3225
21195SOL    HW164718   6.927   2.069   4.821  1.3997 -4.8641 -4.6675
21195SOL    HW264719   7.064   2.065   4.887 -0.2070  1.0605 -0.0076
21196SOL     OW64720   5.197   3.302   1.783 -0.3040 -0.5917  0.3415
21196SOL    HW164721   5.174   3.265   1.698  1.2526  2.0448 -1.3761
21196SOL    HW264722   5.127   3.365   1.802 -1.0165 -1.6623  1.4288
21197SOL     OW64723   5.279   7.372   5.738  0.2124 -0.0723  0.5273
21197SOL    HW164724   5.346   7.325   5.789 -0.1190  0.2208  1.2453
21197SOL    HW264725   5.291   7.464   5.762 -1.2947 -0.1384  1.6952
21198SOL     OW64726   1.811   1.948   9.028  0.1554  0.3316 -0.2470
21198SOL    HW164727   1.769   1.906   9.102  1.2289 -0.6054 -0.1472
21198SOL    HW264728   1.902   1.917   9.030  0.7194  1.8417 -0.7877
21199SOL     OW64729   3.892   2.272   2.608  0.5099 -0.2070 -0.1305
21199SOL    HW164730   3.943   2.213   2.552  0.2526  1.3537 -2.1254
21199SOL    HW264731   3.803   2.239   2.602  0.5993 -0.4744 -0.0253
21200SOL     OW64732   7.701   3.099   4.802 -0.0496 -0.4442 -0.5697
21200SOL    HW164733   7.689   3.004   4.799 -1.7929 -0.3067  0.6478
21200SOL    HW264734   7.616   3.133   4.830  1.3859  1.2553  2.1190
21201SOL     OW64735   8.173   2.097   9.025  0.3251 -0.2170  0.3050
21201SOL    HW164736   8.126   2.052   8.955  1.4716 -0.0322 -0.6118
21201SOL    HW264737   8.113   2.095   9.099 -1.3298  0.4741 -0.9655
21202SOL     OW64738   2.950   3.942   7.852 -0.1199  0.0263 -0.0571
21202SOL    HW164739   2.952   3.928   7.947 -1.1663 -1.8824 -0.2555
21202SOL    HW264740   3.032   3.905   7.821 -0.8651 -1.7089 -0.0970
21203SOL     OW64741   0.555   6.965   8.987 -0.2993 -0.4863 -0.1686
21203SOL    HW164742   0.577   7.058   8.987  1.6271 -0.9070  0.0239
21203SOL    HW264743   0.485   6.957   8.921  0.4391  0.8928 -1.1663
21204SOL     OW64744   4.820   0.643   0.506  0.2146  0.6153  0.2019
21204SOL    HW164745   4.857   0.715   0.455 -1.4483  0.9981 -0.5322
21204SOL    HW264746   4.726   0.660   0.508 -0.0076 -0.5053  1.6827
21205SOL     OW64747   7.103   4.561   2.610  0.0741 -0.3990 -0.8058
21205SOL    HW164748   7.017   4.554   2.569  0.0842  0.2504 -0.9402
21205SOL    HW264749   7.164   4.562   2.537  0.0263  1.9209 -0.8649
21206SOL     OW64750   3.458   7.571   7.386 -0.3452 -0.1235  0.1124
21206SOL    HW164751   3.482   7.535   7.472 -0.3311 -0.7306 -0.1473
21206SOL    HW264752   3.461   7.666   7.399 -1.8492 -0.1934  1.2168
21207SOL     OW64753   1.297   6.105   4.039  0.5256 -0.8174  0.1151
21207SOL    HW164754   1.218   6.113   3.985  0.4532  0.3151  0.3594
21207SOL    HW264755   1.271   6.049   4.111  0.3760 -1.6483 -0.5646
21208SOL     OW64756   3.586   7.804   5.069  0.0744  0.0201  0.5336
21208SOL    HW164757   3.542   7.847   4.995 -0.3269 -1.5059 -0.1552
21208SOL    HW264758   3.628   7.876   5.116 -0.7722  1.1952 -0.4139
21209SOL     OW64759   9.110   4.902   8.900 -0.5144  0.7028  0.1725
21209SOL    HW164760   9.191   4.944   8.931  0.1788  1.5524 -2.4592
21209SOL    HW264761   9.138   4.847   8.826 -2.1291 -0.3543  0.2970
21210SOL     OW64762   8.871   5.965   1.487 -0.3169  0.1288  0.4112
21210SOL    HW164763   8.805   6.034   1.478  0.8419  1.1767 -0.2071
21210SOL    HW264764   8.952   6.011   1.509  0.0274 -1.2183  2.1904
21211SOL     OW64765   4.895   2.602   1.183  0.3370  0.4800 -1.0370
21211SOL    HW164766   4.846   2.675   1.145  0.7731  1.1000 -0.4520
21211SOL    HW264767   4.870   2.602   1.275  0.4677 -0.0067 -1.0028
21212SOL     OW64768   1.153   0.334   8.590  0.3301 -0.4922 -0.4014
21212SOL    HW164769   1.142   0.429   8.592  2.0197 -0.2833  0.7862
21212SOL    HW264770   1.087   0.302   8.651 -1.2795 -0.2509 -1.9319
21213SOL     OW64771   3.581   0.457   8.743 -0.0035  0.0804  0.2281
21213SOL    HW164772   3.497   0.412   8.729  1.4121 -1.8483 -3.0785
21213SOL    HW264773   3.556   0.545   8.770 -3.1954  0.0003 -1.8855
21214SOL     OW64774   4.845   1.162   1.522 -0.4878  0.1097 -0.2296
21214SOL    HW164775   4.902   1.239   1.524 -1.0391  0.5509 -1.1928
21214SOL    HW264776   4.906   1.088   1.522  0.0496  0.5331  0.3711
21215SOL     OW64777   0.933   3.610   7.811 -0.2101 -0.5623 -0.3885
21215SOL    HW164778   0.874   3.559   7.755 -0.0281 -1.1575 -0.0413
21215SOL    HW264779   0.997   3.547   7.842 -0.6907 -0.3937  1.0147
21216SOL     OW64780   1.046   3.899   8.338  0.2231  0.0354 -0.4187
21216SOL    HW164781   0.972   3.929   8.286 -2.2622 -1.9784  1.6487
21216SOL    HW264782   1.076   3.820   8.294  0.1689  0.0393 -0.4622
21217SOL     OW64783   2.412   2.491   1.240  0.0704  0.4733 -0.7241
21217SOL    HW164784   2.359   2.480   1.161  2.4872 -0.5311 -2.3498
21217SOL    HW264785   2.482   2.551   1.213  0.2194  1.1926  1.1098
21218SOL     OW64786   1.396   8.286   5.225  0.4235  0.3033  0.5744
21218SOL    HW164787   1.416   8.242   5.308 -1.5137  0.9931  1.4672
21218SOL    HW264788   1.320   8.239   5.190  0.0746  1.1663  0.1304
21219SOL     OW64789   1.683   5.902   1.709 -0.3972 -0.0443 -0.1401
21219SOL    HW164790   1.723   5.841   1.771  0.7106  0.3873 -0.3921
21219SOL    HW264791   1.685   5.856   1.625  0.3639  0.2879 -0.3143
21220SOL     OW64792   8.018   8.596   8.148 -0.3317 -0.1062 -0.0327
21220SOL    HW164793   7.987   8.544   8.073  0.8910  0.4334 -0.9469
21220SOL    HW264794   7.973   8.680   8.139  0.2977  0.1867 -0.5598
21221SOL     OW64795   8.447   7.928   5.459 -0.4580  0.1643 -0.0948
21221SOL    HW164796   8.495   7.848   5.438 -0.6953  0.2291 -0.9387
21221SOL    HW264797   8.447   7.978   5.377 -0.9089  0.7158  0.2315
21222SOL     OW64798   2.568   3.072   5.601  0.1896  0.1632  0.4215
21222SOL    HW164799   2.621   3.046   5.676  0.3100  0.5667  0.4751
21222SOL    HW264800   2.628   3.118   5.543  0.3174 -0.9474 -0.3633
21223SOL     OW64801   6.222   6.261   4.802 -0.1141 -0.1098 -0.0654
21223SOL    HW164802   6.210   6.348   4.762 -2.4421 -0.5052 -0.3910
21223SOL    HW264803   6.212   6.275   4.896  0.0919  0.0471 -0.0661
21224SOL     OW64804   8.663   5.111   7.767 -0.0812  0.6550  0.3945
21224SOL    HW164805   8.604   5.040   7.742  1.9566 -1.2701  0.6752
21224SOL    HW264806   8.720   5.123   7.690  0.4862  1.0097  0.8597
21225SOL     OW64807   0.675   0.577   3.214 -0.6345 -0.0107 -0.1497
21225SOL    HW164808   0.725   0.645   3.170 -0.7862 -0.3467 -0.8635
21225SOL    HW264809   0.679   0.502   3.155 -0.9521 -0.4358  0.3547
21226SOL     OW64810   8.963   8.591   6.347  0.7771 -0.7672  0.2916
21226SOL    HW164811   9.037   8.531   6.359  2.0177  0.2770 -1.6625
21226SOL    HW264812   8.992   8.674   6.384  0.0324 -0.6888  0.7271
21227SOL     OW64813   1.004   2.797   4.960  0.1165  0.6089  0.4574
21227SOL    HW164814   0.997   2.785   5.054  2.9856 -0.3965  0.6429
21227SOL    HW264815   1.090   2.761   4.937 -0.7255  0.2132 -2.6428
21228SOL     OW64816   2.104   3.225   6.833  0.0137 -0.1499 -0.4555
21228SOL    HW164817   2.081   3.212   6.925 -1.6723 -1.3421 -0.9994
21228SOL    HW264818   2.180   3.284   6.836 -0.3382  0.2981  1.6554
21229SOL     OW64819   3.631   8.921   8.445 -0.0251  0.1624 -0.6641
21229SOL    HW164820   3.668   8.988   8.387 -1.4924  0.2522 -1.5382
21229SOL    HW264821   3.561   8.880   8.394  0.2015 -1.3942  0.2112
21230SOL     OW64822   1.383   2.505   6.226  0.0563  0.5869  0.7282
21230SOL    HW164823   1.370   2.414   6.251 -4.1689  0.8135  0.2229
21230SOL    HW264824   1.460   2.504   6.169  0.6477 -2.4756  1.4167
21231SOL     OW64825   1.747   3.830   0.219 -0.0379 -0.2944  0.9011
21231SOL    HW164826   1.688   3.894   0.180  0.6684  0.2165  0.6435
21231SOL    HW264827   1.731   3.749   0.170  0.2090  0.1125  0.1208
21232SOL     OW64828   4.294   5.203   3.381 -0.4580 -0.4369 -0.2155
21232SOL    HW164829   4.293   5.145   3.457  0.1731  1.0577  0.9728
21232SOL    HW264830   4.383   5.239   3.380 -0.1090 -1.2336 -2.3133
21233SOL     OW64831   4.836   0.722   5.462 -0.6079 -0.6985  0.1791
21233SOL    HW164832   4.847   0.790   5.396 -1.8944 -1.3425 -0.7489
21233SOL    HW264833   4.898   0.653   5.436  0.5980  0.0113  1.0434
21234SOL     OW64834   7.998   6.239   8.411  0.2942 -0.6254 -0.2649
21234SOL    HW164835   7.952   6.307   8.362 -0.7197  0.9274  2.5765
21234SOL    HW264836   7.941   6.221   8.486  3.4084  0.0101  2.4679
21235SOL     OW64837   2.787   4.993   1.560  0.5086  0.8910  0.0700
21235SOL    HW164838   2.774   4.898   1.563  0.0071  0.9588  0.1057
21235SOL    HW264839   2.808   5.017   1.650  1.1636  0.7451 -0.0369
21236SOL     OW64840   8.771   4.062   8.791 -0.0320 -0.0258 -0.0013
21236SOL    HW164841   8.757   4.092   8.880  0.9336 -0.7898  0.4325
21236SOL    HW264842   8.848   4.110   8.761 -0.5118  0.4263 -0.5267
21237SOL     OW64843   6.145   0.805   7.925  0.3686 -0.2019  0.5576
21237SOL    HW164844   6.216   0.744   7.946  1.8973  1.1268 -0.5250
21237SOL    HW264845   6.139   0.802   7.829 -0.8571 -0.0604  0.6181
21238SOL     OW64846   6.125   4.342   2.133 -0.2247  0.4868  0.4629
21238SOL    HW164847   6.107   4.248   2.140  0.3331  0.2238 -1.3349
21238SOL    HW264848   6.158   4.366   2.220  2.9384 -1.7430  0.0528
21239SOL     OW64849   0.836   3.225   8.453 -0.2019  0.4630  0.2078
21239SOL    HW164850   0.812   3.138   8.484  1.7344 -1.4797 -3.1072
21239SOL    HW264851   0.824   3.221   8.358  2.3353  2.9051 -0.3649
21240SOL     OW64852   5.250   1.354   1.995  0.0266  0.5135 -0.5583
21240SOL    HW164853   5.328   1.318   1.952  0.0744 -0.8664  0.5817
21240SOL    HW264854   5.283   1.384   2.080 -0.7926 -0.9228  0.3132
21241SOL     OW64855   4.939   2.095   8.387  0.2052 -0.5443 -0.2529
21241SOL    HW164856   4.874   2.057   8.327 -1.3622 -0.1686  1.1287
21241SOL    HW264857   4.992   2.152   8.331 -2.4139  1.2966 -1.0733
21242SOL     OW64858   4.494   2.922   1.831  0.1071 -0.3202  0.5254
21242SOL    HW164859   4.453   3.008   1.844  0.6968 -0.2293  2.0401
21242SOL    HW264860   4.428   2.860   1.860 -0.4119 -0.4219 -0.8006
21243SOL     OW64861   1.816   8.465   7.805  0.0335  0.3586  0.0363
21243SOL    HW164862   1.776   8.380   7.789 -0.8159  0.3833  1.8468
21243SOL    HW264863   1.742   8.525   7.817  0.5990  0.8613  1.1808
21244SOL     OW64864   5.100   4.778   8.612 -0.5017 -0.0584 -0.4229
21244SOL    HW164865   5.051   4.728   8.678  0.6998 -0.8494 -0.0827
21244SOL    HW264866   5.135   4.711   8.553  1.2320  0.3499  0.1019
21245SOL     OW64867   0.667   7.837   7.501  0.7809 -0.0866  0.0425
21245SOL    HW164868   0.611   7.901   7.545  0.7876  0.3859 -0.6185
21245SOL    HW264869   0.626   7.752   7.520  0.4251  0.1628  0.4137
21246SOL     OW64870   4.874   1.495   3.309 -0.0857  0.5139  0.5192
21246SOL    HW164871   4.780   1.498   3.293 -0.1564 -0.5969  0.6588
21246SOL    HW264872   4.886   1.545   3.390 -0.8265 -1.0010  1.6010
21247SOL     OW64873   2.189   5.263   6.760  0.1147 -0.2069 -0.2854
21247SOL    HW164874   2.128   5.202   6.718  0.6104 -0.6120 -0.4303
21247SOL    HW264875   2.157   5.349   6.736 -2.3203 -0.2663  2.2790
21248SOL     OW64876   4.495   4.830   7.852  0.1875 -0.1430  0.5238
21248SOL    HW164877   4.464   4.786   7.931 -0.2646 -0.7809  0.0009
21248SOL    HW264878   4.580   4.790   7.834 -0.5054 -1.2790 -0.3084
21249SOL     OW64879   0.046   3.728   6.661  0.2836 -0.5962  0.0191
21249SOL    HW164880   0.095   3.802   6.697  0.9909 -0.0406 -1.9612
21249SOL    HW264881   0.096   3.651   6.688  0.6786 -0.2155  0.3908
21250SOL     OW64882   3.955   5.382   0.133  0.4744 -0.4401 -0.3737
21250SOL    HW164883   3.956   5.462   0.186  0.8769 -0.5279 -0.2431
21250SOL    HW264884   3.934   5.313   0.195  0.6868 -0.5094 -0.3792
21251SOL     OW64885   4.901   3.831   7.793  0.1438 -0.4106 -1.0491
21251SOL    HW164886   4.835   3.761   7.800 -1.2092  0.9150  0.0910
21251SOL    HW264887   4.981   3.791   7.825 -1.2337 -0.7212  2.5199
21252SOL     OW64888   1.166   4.087   5.406 -0.7310  0.1819  0.0278
21252SOL    HW164889   1.192   4.080   5.498  0.2551  0.8620 -0.1792
21252SOL    HW264890   1.090   4.144   5.407 -1.3919 -0.6705  0.5116
21253SOL     OW64891   8.819   1.539   8.977 -0.0651 -0.3788 -0.4732
21253SOL    HW164892   8.835   1.449   9.004 -0.3636 -0.4929 -0.6757
21253SOL    HW264893   8.755   1.532   8.906 -1.6861  0.1018  0.8623
21254SOL     OW64894   4.426   6.326   5.743  0.1549  0.3894 -0.0665
21254SOL    HW164895   4.497   6.308   5.682 -0.7854 -1.2756 -0.7144
21254SOL    HW264896   4.350   6.344   5.688 -0.0504  1.8154  0.6158
21255SOL     OW64897   4.957   0.874   6.824  0.5534  0.1251  0.1155
21255SOL    HW164898   4.999   0.915   6.748  1.4499 -1.0412 -0.0375
21255SOL    HW264899   5.028   0.829   6.870 -0.3463 -1.0370  0.4187
21256SOL     OW64900   7.527   6.701   5.853 -0.3225 -0.0791  0.0134
21256SOL    HW164901   7.497   6.791   5.861  1.9228  0.7448 -0.3575
21256SOL    HW264902   7.551   6.676   5.943 -0.8498 -0.3000  0.0994
21257SOL     OW64903   7.303   6.058   3.569 -0.6333 -0.2493  0.0270
21257SOL    HW164904   7.227   6.000   3.576 -0.6256 -0.4238 -1.2065
21257SOL    HW264905   7.361   6.016   3.506  0.5661 -0.1813  1.0350
21258SOL     OW64906   1.742   1.799   3.584  0.3076  0.3032 -1.1221
21258SOL    HW164907   1.672   1.842   3.534  0.5463 -0.5060 -2.1970
21258SOL    HW264908   1.758   1.857   3.658 -2.3553 -0.0858 -0.1336
21259SOL     OW64909   2.041   0.495   8.257  0.3177 -0.2923  0.5577
21259SOL    HW164910   1.964   0.550   8.241 -0.6036 -1.4399  0.9434
21259SOL    HW264911   2.106   0.555   8.292 -0.1190  0.8533 -0.5178
21260SOL     OW64912   8.604   2.283   4.290 -0.0197 -0.1594  0.5850
21260SOL    HW164913   8.669   2.213   4.288  0.1858  0.0470 -1.3932
21260SOL    HW264914   8.586   2.303   4.198 -2.0985  0.5254  1.0714
21261SOL     OW64915   2.263   8.547   4.625 -0.8543 -0.3671 -1.0301
21261SOL    HW164916   2.343   8.498   4.605  0.2052  1.8698 -2.5951
21261SOL    HW264917   2.284   8.597   4.704 -1.2356 -0.8459 -0.6153
21262SOL     OW64918   4.587   6.309   8.222 -0.5913  0.1557 -0.3551
21262SOL    HW164919   4.587   6.297   8.128  3.0294 -1.0503 -0.3300
21262SOL    HW264920   4.565   6.402   8.234 -1.3141  0.2864 -2.3121
21263SOL     OW64921   3.197   6.401   1.330 -0.1594  0.0535  0.6106
21263SOL    HW164922   3.173   6.317   1.290  0.8071 -0.9395  2.0137
21263SOL    HW264923   3.128   6.418   1.394 -0.0866  0.0514  0.6906
21264SOL     OW64924   8.393   1.796   6.035  0.3423  0.3046  0.1313
21264SOL    HW164925   8.433   1.872   5.993  0.1310 -0.1229 -0.8669
21264SOL    HW264926   8.402   1.725   5.972  0.6711 -0.5573  1.1065
21265SOL     OW64927   0.404   6.313   7.084  0.6589 -0.4717 -0.0877
21265SOL    HW164928   0.393   6.265   7.002 -1.0908 -1.2405  0.5480
21265SOL    HW264929   0.352   6.264   7.148  0.4998  1.1187  1.0673
21266SOL     OW64930   6.978   8.485   6.851 -0.3433  0.6410 -0.4445
21266SOL    HW164931   7.006   8.394   6.841  0.3559  0.4178  2.5699
21266SOL    HW264932   6.896   8.479   6.901 -0.8632  1.6554 -1.1442
21267SOL     OW64933   1.074   5.007   6.240  0.7567  0.2874 -0.4925
21267SOL    HW164934   1.024   4.940   6.286  0.5785  1.2914  0.8216
21267SOL    HW264935   1.165   4.980   6.248  0.6835  0.1887 -0.0117
21268SOL     OW64936   6.012   5.934   7.396 -0.4155 -0.0307  0.2331
21268SOL    HW164937   5.987   5.958   7.307  2.3183  0.5674 -0.4871
21268SOL    HW264938   6.053   5.848   7.386 -0.1039  0.0307  0.9149
21269SOL     OW64939   4.277   4.853   0.082 -0.3062 -0.0668  0.0970
21269SOL    HW164940   4.229   4.777   0.049 -1.1070  0.8365 -0.8827
21269SOL    HW264941   4.209   4.914   0.110  0.3412 -0.1041  1.8710
21270SOL     OW64942   0.480   2.913   1.148 -0.4494 -0.1581  0.7752
21270SOL    HW164943   0.464   3.004   1.124  0.2988 -0.5707 -1.5338
21270SOL    HW264944   0.562   2.891   1.103 -0.3574 -1.8316  1.6947
21271SOL     OW64945   7.157   7.533   5.986  0.3027  0.0304  0.3272
21271SOL    HW164946   7.133   7.584   6.064  0.9954  0.8541  0.0142
21271SOL    HW264947   7.103   7.454   5.992 -1.9755  1.4619  0.0336
21272SOL     OW64948   5.433   6.022   4.785 -0.3216  0.3816  0.2552
21272SOL    HW164949   5.383   6.086   4.735 -3.1313 -2.7762 -1.3577
21272SOL    HW264950   5.391   6.021   4.871  0.0806  1.0294  0.4656
21273SOL     OW64951   1.972   2.433   6.519 -0.8434  0.1536  0.1443
21273SOL    HW164952   2.065   2.424   6.499 -0.9389 -0.4462 -0.0432
21273SOL    HW264953   1.946   2.515   6.477 -0.2353  0.6947  0.8149
21274SOL     OW64954   2.419   4.180   2.633  0.3742  0.4438 -0.4998
21274SOL    HW164955   2.445   4.107   2.689  1.0259 -0.9514 -2.5216
21274SOL    HW264956   2.323   4.180   2.637  0.3654 -0.5031 -0.4246
21275SOL     OW64957   8.944   0.963   8.390  0.4989 -0.3526  0.5043
21275SOL    HW164958   8.942   0.874   8.356  1.1098 -0.4190  0.6308
21275SOL    HW264959   8.911   1.017   8.319  0.5456 -0.6339  0.2694
21276SOL     OW64960   2.207   6.863   7.809  0.6069  0.1252 -0.2563
21276SOL    HW164961   2.166   6.791   7.761 -0.5913  0.8079 -0.2901
21276SOL    HW264962   2.221   6.829   7.897 -1.0938  0.2215  0.0824
21277SOL     OW64963   0.231   2.741   3.594  0.2320 -0.3168  0.1543
21277SOL    HW164964   0.141   2.772   3.583  0.4391 -0.3017 -1.9072
21277SOL    HW264965   0.284   2.808   3.551  1.0305 -1.4302 -0.6355
21278SOL     OW64966   3.923   5.976   0.353 -0.1273  0.2565 -1.1540
21278SOL    HW164967   3.956   5.894   0.315 -1.2468  0.4493 -2.5962
21278SOL    HW264968   3.973   6.044   0.309 -0.0648  0.4067 -0.8517
21279SOL     OW64969   3.254   2.644   5.711 -0.3754  0.0605 -0.2553
21279SOL    HW164970   3.248   2.595   5.793 -1.3627  0.4877 -0.0485
21279SOL    HW264971   3.294   2.728   5.736  1.9321 -0.8301 -0.7225
21280SOL     OW64972   0.264   5.190   4.840  0.3892  0.4013  0.8310
21280SOL    HW164973   0.244   5.144   4.759  1.5515  1.4232 -0.0847
21280SOL    HW264974   0.209   5.149   4.906 -1.2956  0.1791 -0.6563
21281SOL     OW64975   0.369   5.949   5.224  0.6036  0.1917  0.1449
21281SOL    HW164976   0.456   5.986   5.211 -0.0051  0.6890 -3.9140
21281SOL    HW264977   0.322   6.013   5.277  1.9594  1.1647  0.1974
21282SOL     OW64978   7.808   4.697   8.802  0.5720  0.0366  0.8181
21282SOL    HW164979   7.851   4.612   8.791 -0.8130 -0.9349  2.3903
21282SOL    HW264980   7.872   4.749   8.851  0.7448 -0.7302  1.4339
21283SOL     OW64981   0.298   6.729   5.484 -0.5519  0.4085 -0.0653
21283SOL    HW164982   0.324   6.674   5.558 -2.6622  3.3533  3.2087
21283SOL    HW264983   0.246   6.671   5.428 -0.9602 -1.4514  2.0865
21284SOL     OW64984   8.245   3.147   1.346 -0.1430 -0.1874  0.6890
21284SOL    HW164985   8.250   3.179   1.256 -0.0071 -0.8651  0.4461
21284SOL    HW264986   8.156   3.168   1.374 -0.0816  0.3169  0.5065
21285SOL     OW64987   4.612   7.462   5.828  0.7224 -0.0049 -0.2269
21285SOL    HW164988   4.683   7.457   5.892 -0.8583  1.3825  1.7601
21285SOL    HW264989   4.608   7.554   5.803  0.7415 -0.3786 -1.7097
21286SOL     OW64990   4.028   1.665   4.637  0.2159  0.3731  0.0616
21286SOL    HW164991   4.037   1.636   4.728 -1.3927 -0.4140  0.0089
21286SOL    HW264992   4.117   1.668   4.604  0.7579 -0.2866  1.3900
21287SOL     OW64993   4.517   6.061   2.913 -0.2873 -0.3936  0.1953
21287SOL    HW164994   4.421   6.054   2.917 -0.1965 -1.5027  0.9204
21287SOL    HW264995   4.546   6.042   3.003  0.5741  0.7806  0.1825
21288SOL     OW64996   5.279   3.952   8.685 -0.1456 -0.5633 -0.4596
21288SOL    HW164997   5.334   3.885   8.727 -1.6190 -1.8563 -0.5032
21288SOL    HW264998   5.328   3.977   8.607  0.2062 -2.0093 -0.7424
21289SOL     OW64999   1.651   2.933   9.071  0.2657 -0.0646 -0.1404
21289SOL    HW165000   1.650   2.933   8.976  1.4957  0.6556 -0.1764
21289SOL    HW265001   1.701   3.012   9.095  0.8859 -0.7879  1.0690
21290SOL     OW65002   0.794   3.098   1.866 -0.5100 -0.0011 -0.0072
21290SOL    HW165003   0.724   3.154   1.832 -1.6855 -1.3896  0.0299
21290SOL    HW265004   0.748   3.022   1.903  0.8968  0.1639  2.2116
21291SOL     OW65005   3.076   5.659   2.956 -0.2848  0.2762 -0.1372
21291SOL    HW165006   3.169   5.681   2.944  0.3175 -1.3095  1.2226
21291SOL    HW265007   3.054   5.697   3.041  0.2166 -2.4053  1.2894
21292SOL     OW65008   7.759   2.129   6.834 -0.2367  0.4278  0.0076
21292SOL    HW165009   7.737   2.209   6.882  1.6500 -0.1756  2.0662
21292SOL    HW265010   7.731   2.058   6.891 -0.8765 -0.4078 -1.2971
21293SOL     OW65011   8.306   5.559   7.138  0.2748 -0.5178 -0.0204
21293SOL    HW165012   8.365   5.510   7.195  0.1238  0.3034  0.8569
21293SOL    HW265013   8.242   5.494   7.109  0.5257 -1.0109  0.5009
21294SOL     OW65014   9.090   0.200   4.783 -0.4483  0.1873  0.2955
21294SOL    HW165015   9.072   0.262   4.854 -1.0677  0.1979  0.1413
21294SOL    HW265016   9.039   0.122   4.807 -2.2512  0.8610 -1.0780
21295SOL     OW65017   2.138   4.397   2.876 -0.5638 -0.1708  0.1910
21295SOL    HW165018   2.223   4.392   2.833 -1.0252 -0.0776 -0.7592
21295SOL    HW265019   2.145   4.472   2.935  0.0121 -0.1698  0.1278
21296SOL     OW65020   7.072   6.567   8.879  0.5109  0.4096 -0.1130
21296SOL    HW165021   7.043   6.609   8.798  2.9182  0.6012 -0.9763
21296SOL    HW265022   6.993   6.560   8.933 -1.3055 -0.3133 -2.7009
21297SOL     OW65023   2.524   8.105   0.181 -0.2384 -0.0576 -0.0617
21297SOL    HW165024   2.613   8.114   0.147 -0.0137  0.1059  0.5658
21297SOL    HW265025   2.515   8.177   0.243 -0.4537 -0.6842  0.6459
21298SOL     OW65026   3.864   7.375   3.984 -0.6051  0.0454 -0.4986
21298SOL    HW165027   3.786   7.383   3.929 -0.6699  2.2859 -0.1886
21298SOL    HW265028   3.932   7.425   3.937 -0.1778  0.5308  0.5874
21299SOL     OW65029   1.012   2.604   2.141 -0.2107  0.4603  0.0222
21299SOL    HW165030   0.959   2.524   2.143  1.5734 -0.7857 -0.3190
21299SOL    HW265031   0.996   2.641   2.055 -0.5836  0.1437 -0.0488
21300SOL     OW65032   2.042   1.914   6.496  0.1993 -0.3682 -0.0348
21300SOL    HW165033   2.030   1.944   6.406  1.5695 -0.6943 -0.3524
21300SOL    HW265034   1.986   1.836   6.503 -0.7083  0.2495 -0.2664
21301SOL     OW65035   4.972   5.601   6.961 -0.0342 -0.1629  0.3164
21301SOL    HW165036   4.969   5.673   6.898  0.1516 -1.0701 -0.7759
21301SOL    HW265037   5.065   5.592   6.981 -0.2538  1.5316  2.4696
21302SOL     OW65038   5.033   3.872   6.840  0.1634 -0.1578 -0.1392
21302SOL    HW165039   4.980   3.952   6.850 -0.3719 -0.5904  0.6307
21302SOL    HW265040   5.023   3.827   6.924  0.9236 -0.7621 -0.3645
21303SOL     OW65041   7.365   0.780   7.438 -0.0418 -0.0798  0.2440
21303SOL    HW165042   7.284   0.744   7.402  0.0365  1.3362 -1.5640
21303SOL    HW265043   7.336   0.841   7.506 -0.2297 -2.3607  2.3489
21304SOL     OW65044   0.599   0.809   4.434 -0.0951  0.4221 -0.5096
21304SOL    HW165045   0.622   0.889   4.388 -1.5105  1.3397  0.3182
21304SOL    HW265046   0.670   0.795   4.497 -0.9033  2.3130  0.9075
21305SOL     OW65047   5.975   8.166   0.062 -0.0922 -0.3185  0.5048
21305SOL    HW165048   5.882   8.171   0.083 -0.0757 -1.4103  0.8894
21305SOL    HW265049   5.990   8.074   0.042  0.6320  0.0729 -0.8785
21306SOL     OW65050   3.125   0.069   1.824 -0.0242 -0.8256 -0.0447
21306SOL    HW165051   3.036   0.099   1.803  1.2852  2.0228 -2.2891
21306SOL    HW265052   3.151   0.016   1.749  0.3360 -1.3071  0.4096
21307SOL     OW65053   3.309   1.306   6.952 -0.8080 -0.0499 -0.0372
21307SOL    HW165054   3.261   1.225   6.971 -1.4019  0.0274 -1.0984
21307SOL    HW265055   3.398   1.289   6.983 -1.4948 -0.1777  2.0323
21308SOL     OW65056   0.392   2.530   0.370 -0.1037 -0.1159  0.1920
21308SOL    HW165057   0.320   2.498   0.425  0.1905  1.2251  1.4315
21308SOL    HW265058   0.352   2.544   0.284 -1.2875  0.3985  0.7981
21309SOL     OW65059   6.670   6.050   6.103  0.0254  0.6448  0.3114
21309SOL    HW165060   6.722   6.074   6.180  0.2930  0.8994  0.0528
21309SOL    HW265061   6.581   6.041   6.136  0.2129  0.3003  0.7440
21310SOL     OW65062   4.904   5.262   9.040 -0.1670 -0.2325  0.6767
21310SOL    HW165063   4.839   5.293   8.978 -0.6516 -2.2521  0.0997
21310SOL    HW265064   4.979   5.236   8.986 -0.0832 -0.7867  1.0495
21311SOL     OW65065   2.858   1.711   1.126 -0.7549  0.4554 -0.1008
21311SOL    HW165066   2.915   1.634   1.134 -0.4839  0.7308  0.7187
21311SOL    HW265067   2.827   1.709   1.036  0.4027  0.2001 -0.5012
21312SOL     OW65068   6.140   1.435   5.679  0.0522 -0.0560  0.3548
21312SOL    HW165069   6.048   1.457   5.670  0.3230  0.7086 -0.6915
21312SOL    HW265070   6.147   1.347   5.641 -0.3338 -0.3626  0.9726
21313SOL     OW65071   8.059   8.952   6.374 -0.4305  0.0651  0.3731
21313SOL    HW165072   7.991   8.936   6.440 -0.5105  2.2313  0.8909
21313SOL    HW265073   8.009   8.976   6.296 -0.2978  0.8337  0.5169
21314SOL     OW65074   8.051   7.564   8.514 -0.1335 -0.4817 -0.3605
21314SOL    HW165075   8.113   7.586   8.583 -1.3713 -0.3136  0.7300
21314SOL    HW265076   8.056   7.469   8.506 -0.1569 -0.5229  0.1174
21315SOL     OW65077   8.931   6.158   2.165  0.4268 -0.3259 -0.2527
21315SOL    HW165078   8.917   6.216   2.239 -1.6163 -1.6015  0.4550
21315SOL    HW265079   8.900   6.208   2.089  0.2039  0.0893  0.1073
21316SOL     OW65080   4.916   5.676   1.837 -0.1173 -0.3156  0.6427
21316SOL    HW165081   4.822   5.663   1.847 -0.4206  1.1287 -0.1334
21316SOL    HW265082   4.955   5.600   1.880 -1.6050 -0.4203  1.8993
21317SOL     OW65083   5.694   8.871   0.877  0.4217  0.3547  0.7737
21317SOL    HW165084   5.694   8.777   0.895  1.2049 -0.0400 -0.9970
21317SOL    HW265085   5.721   8.912   0.959 -0.0748 -0.9532  1.6130
21318SOL     OW65086   1.099   7.004   7.570 -0.0893 -0.4647  0.6544
21318SOL    HW165087   1.018   7.054   7.582  0.5829  0.7683  0.2299
21318SOL    HW265088   1.129   6.986   7.659  0.4133  1.1901  0.8562
21319SOL     OW65089   6.055   1.426   5.283 -0.4294 -0.5767  0.8365
21319SOL    HW165090   5.986   1.488   5.308 -1.3017 -1.9626  2.0106
21319SOL    HW265091   6.089   1.460   5.200 -0.4621  1.7836  1.7124
21320SOL     OW65092   5.727   8.891   1.198 -0.0539 -0.2218  0.3711
21320SOL    HW165093   5.773   8.807   1.198 -0.5097 -0.6319 -3.1513
21320SOL    HW265094   5.795   8.956   1.212  0.6564 -1.0608  0.9048
21321SOL     OW65095   8.428   5.396   8.060  0.1934  0.5941  0.7935
21321SOL    HW165096   8.489   5.377   7.989  0.3038  0.9345  0.7964
21321SOL    HW265097   8.473   5.364   8.139 -0.4707 -0.9614  0.5744
21322SOL     OW65098   7.675   4.509   2.100 -0.3224  0.3233 -0.0255
21322SOL    HW165099   7.649   4.547   2.184 -1.1926  0.4966 -0.3660
21322SOL    HW265100   7.701   4.584   2.046  0.8248  0.1604  0.2805
21323SOL     OW65101   4.583   5.398   2.881  0.1162  0.1028  0.0817
21323SOL    HW165102   4.614   5.403   2.972 -0.0959 -0.6673  0.1994
21323SOL    HW265103   4.662   5.405   2.828  0.3868 -0.7732  0.3595
21324SOL     OW65104   6.362   0.650   2.324 -0.6260 -0.8535 -0.5430
21324SOL    HW165105   6.442   0.702   2.333 -0.7953 -0.0172 -3.0967
21324SOL    HW265106   6.346   0.617   2.413  0.7943  1.5042  0.7312
21325SOL     OW65107   1.089   6.354   4.419  0.1471 -0.2851  0.2016
21325SOL    HW165108   1.181   6.356   4.442  0.1022 -1.7499  0.6032
21325SOL    HW265109   1.057   6.442   4.439  1.6732  0.6109 -0.9927
21326SOL     OW65110   1.034   6.948   1.405 -0.3126  0.2930 -0.3880
21326SOL    HW165111   1.009   6.860   1.377  2.0236 -0.7010  0.3405
21326SOL    HW265112   1.050   6.995   1.324 -2.0744  0.2485 -0.7981
21327SOL     OW65113   4.838   0.829   2.626  0.4892  0.2522 -0.1757
21327SOL    HW165114   4.922   0.791   2.654 -0.1290 -2.0152 -1.1852
21327SOL    HW265115   4.796   0.760   2.575 -2.3526  1.0341  0.9168
21328SOL     OW65116   6.574   8.771   2.235  0.3104 -0.1356  0.1063
21328SOL    HW165117   6.536   8.795   2.150  1.8287 -0.2017 -0.6273
21328SOL    HW265118   6.591   8.855   2.278 -0.2342 -0.0927  0.2399
21329SOL     OW65119   6.059   4.092   1.422 -0.1657  0.4297  0.5282
21329SOL    HW165120   6.086   4.031   1.353 -0.2863  0.0915  0.7776
21329SOL    HW265121   6.069   4.042   1.503 -1.5641  0.2770  0.6292
21330SOL     OW65122   8.769   7.912   7.608 -0.2347  0.2290 -0.5623
21330SOL    HW165123   8.765   8.007   7.613  0.6542  0.2651 -0.3579
21330SOL    HW265124   8.679   7.883   7.625 -0.3680  1.0011  0.1088
21331SOL     OW65125   2.720   2.109   8.629 -0.0771 -0.1582  0.4536
21331SOL    HW165126   2.733   2.052   8.553 -0.3366 -0.6987  0.8079
21331SOL    HW265127   2.625   2.113   8.639 -0.0213 -0.8856  1.3366
21332SOL     OW65128   4.387   7.125   7.171  0.3251 -0.2012  0.1525
21332SOL    HW165129   4.411   7.147   7.081  2.5512 -2.2832  0.1277
21332SOL    HW265130   4.399   7.207   7.219  1.2591  0.4398 -1.0930
21333SOL     OW65131   3.300   8.929   6.299 -0.2869 -0.4209 -0.2070
21333SOL    HW165132   3.271   9.014   6.332 -1.1768 -0.5760 -0.5738
21333SOL    HW265133   3.245   8.865   6.345  0.4021 -0.8150  0.0966
21334SOL     OW65134   7.797   1.911   5.405  0.4764  0.0968 -0.4561
21334SOL    HW165135   7.826   1.855   5.333 -1.2731  0.7481 -1.7342
21334SOL    HW265136   7.716   1.869   5.437  0.0727  0.9786 -0.3025
21335SOL     OW65137   7.254   8.438   6.002 -0.3839  0.1508  0.2564
21335SOL    HW165138   7.217   8.466   5.919  1.9388  3.4965  0.1480
21335SOL    HW265139   7.242   8.513   6.060 -2.1230 -2.1401  3.1248
21336SOL     OW65140   1.592   7.815   2.316  1.0257 -0.4686 -0.0205
21336SOL    HW165141   1.637   7.898   2.333  1.7071 -0.9881  0.8486
21336SOL    HW265142   1.647   7.771   2.252  2.6849 -1.7381  2.1061
21337SOL     OW65143   6.835   8.063   7.606  0.2730  0.4822  0.2030
21337SOL    HW165144   6.799   8.103   7.527  1.5062  1.3246  0.0554
21337SOL    HW265145   6.849   7.971   7.582 -0.6502  0.4117 -0.1028
21338SOL     OW65146   3.485   1.732   1.982 -0.7303  0.2014  0.3724
21338SOL    HW165147   3.488   1.815   1.934 -1.8312  1.0283  1.6613
21338SOL    HW265148   3.400   1.733   2.027 -1.0370 -1.9070 -0.0389
21339SOL     OW65149   6.725   2.618   1.826 -0.3207 -0.5175  0.6515
21339SOL    HW165150   6.760   2.584   1.744  0.3366 -1.3203  1.2449
21339SOL    HW265151   6.780   2.693   1.846  1.2438 -1.8445  1.6433
21340SOL     OW65152   2.618   1.008   5.575  0.5677 -0.1512 -0.5134
21340SOL    HW165153   2.589   1.091   5.537 -0.6531 -0.4370 -0.2492
21340SOL    HW265154   2.575   1.004   5.660  1.0388 -0.8146 -0.2993
21341SOL     OW65155   1.438   4.994   8.935 -0.1423 -0.3463  0.1726
21341SOL    HW165156   1.392   4.910   8.938 -3.3197  1.2416  1.4053
21341SOL    HW265157   1.368   5.059   8.943  2.1862  2.4339 -0.5689
21342SOL     OW65158   1.205   8.759   5.650 -0.3077  0.3582 -0.4150
21342SOL    HW165159   1.246   8.771   5.736 -1.7575  0.1002  0.3380
21342SOL    HW265160   1.155   8.839   5.636  1.7241  1.4294 -2.1087
21343SOL     OW65161   5.338   2.259   0.934  0.7023 -0.0055  0.4138
21343SOL    HW165162   5.404   2.190   0.924 -0.9367 -1.3039 -2.6790
21343SOL    HW265163   5.312   2.280   0.844 -3.0551  0.4455  1.4715
21344SOL     OW65164   7.412   1.277   1.286 -0.7355 -0.8351  0.4244
21344SOL    HW165165   7.472   1.292   1.358 -0.7906 -0.5062  0.4012
21344SOL    HW265166   7.325   1.281   1.326 -0.7433 -1.4877  0.4923
21345SOL     OW65167   7.897   5.550   7.462 -0.2977 -0.0567  0.3329
21345SOL    HW165168   7.855   5.634   7.440  0.1544  0.3495  0.9798
21345SOL    HW265169   7.832   5.505   7.516 -0.5494 -0.1300 -0.0298
21346SOL     OW65170   7.517   5.234   5.846 -0.0022  0.2524  0.6051
21346SOL    HW165171   7.581   5.274   5.787 -1.1301 -1.3938 -1.8617
21346SOL    HW265172   7.566   5.168   5.894  0.4875  0.1407 -0.0464
21347SOL     OW65173   0.180   6.071   6.739  0.3572 -0.1419 -0.3224
21347SOL    HW165174   0.275   6.076   6.740  0.4417 -1.3847  1.2745
21347SOL    HW265175   0.158   6.044   6.650  1.3273  2.0441 -1.2982
21348SOL     OW65176   2.813   2.341   5.533 -0.4122 -0.3781  0.3138
21348SOL    HW165177   2.816   2.256   5.576 -1.2663 -0.3763  0.3809
21348SOL    HW265178   2.872   2.331   5.458  0.6254 -0.5599  1.1345
21349SOL     OW65179   3.431   1.766   6.539 -0.9656  0.3610 -0.8295
21349SOL    HW165180   3.355   1.814   6.573  0.2611  0.1292  2.6460
21349SOL    HW265181   3.483   1.832   6.494 -2.0841  1.0073 -1.2212
21350SOL     OW65182   6.080   4.767   9.081 -0.2441 -0.1898  0.0002
21350SOL    HW165183   6.121   4.811   9.155  0.0944 -1.1314  0.3926
21350SOL    HW265184   6.050   4.684   9.117  1.5702 -1.4893 -1.3046
21351SOL     OW65185   1.497   1.526   4.298  0.1790 -0.0091  0.0457
21351SOL    HW165186   1.543   1.592   4.350 -0.0581  2.0999 -2.2286
21351SOL    HW265187   1.416   1.570   4.270 -0.0784 -1.3147 -1.4091
21352SOL     OW65188   8.574   1.058   6.403 -0.2207 -0.6213  0.1767
21352SOL    HW165189   8.658   1.023   6.431  0.2880 -0.8093 -1.4365
21352SOL    HW265190   8.520   1.060   6.482  2.0670  1.9030  1.8630
21353SOL     OW65191   4.356   6.957   4.545  0.2469 -0.4507 -0.0757
21353SOL    HW165192   4.377   7.021   4.477  0.2989 -1.3039 -0.8813
21353SOL    HW265193   4.261   6.948   4.541  0.3830 -1.6300 -1.1002
21354SOL     OW65194   6.780   7.189   8.529  0.0940 -0.3156 -0.2094
21354SOL    HW165195   6.692   7.170   8.499  0.5835 -1.8316 -0.7672
21354SOL    HW265196   6.784   7.153   8.618  0.0691  0.0259 -0.0668
21355SOL     OW65197   3.505   4.244   1.823 -0.3552  0.5315  0.4838
21355SOL    HW165198   3.566   4.287   1.763 -1.7173  1.2686 -0.4306
21355SOL    HW265199   3.443   4.198   1.765 -0.8957  0.1137  1.3649
21356SOL     OW65200   4.520   3.718   7.571 -0.5031 -0.5596 -0.0436
21356SOL    HW165201   4.424   3.718   7.564 -0.7245 -0.7000  2.1598
21356SOL    HW265202   4.546   3.808   7.550 -1.4535  0.3099  2.1640
21357SOL     OW65203   8.916   0.005   1.906 -0.5770  0.1281  0.0633
21357SOL    HW165204   8.914  -0.021   1.998  0.7763  3.1496  1.0641
21357SOL    HW265205   8.837   0.058   1.894 -1.8023 -1.8103 -1.1673
21358SOL     OW65206   6.898   4.275   0.834 -0.6581  0.9257  0.1091
21358SOL    HW165207   6.894   4.299   0.741  1.1204  0.2321 -0.1688
21358SOL    HW265208   6.969   4.212   0.840 -1.8379 -0.3385  1.6965
21359SOL     OW65209   7.013   7.122   8.139  0.0627  0.2731  0.3749
21359SOL    HW165210   7.006   7.112   8.233  1.0412  1.8453  0.6487
21359SOL    HW265211   6.923   7.111   8.106 -0.2874 -0.2394  1.4703
21360SOL     OW65212   0.378   0.806   7.423  0.4157  0.5339  0.0328
21360SOL    HW165213   0.456   0.757   7.398  0.6274  0.6403  0.4902
21360SOL    HW265214   0.361   0.864   7.348 -0.2510 -0.7225 -0.8420
21361SOL     OW65215   0.974   5.365   8.441 -0.2385 -0.0552  0.4799
21361SOL    HW165216   1.014   5.315   8.512 -0.8599  1.2012  1.7747
21361SOL    HW265217   0.885   5.382   8.472 -1.3359 -1.4626 -1.6520
21362SOL     OW65218   1.119   4.360   0.548 -0.7132 -0.2973 -0.7744
21362SOL    HW165219   1.145   4.280   0.594 -0.1227 -0.2096 -0.9455
21362SOL    HW265220   1.184   4.370   0.478  0.6633  1.6016  0.6604
21363SOL     OW65221   3.360   1.305   2.791 -0.5140 -0.1374  0.7687
21363SOL    HW165222   3.373   1.284   2.699  0.4534  1.7077  0.4340
21363SOL    HW265223   3.265   1.305   2.803 -0.6653  0.1628 -0.3744
21364SOL     OW65224   1.320   8.222   0.064  0.4456 -0.4158  0.1574
21364SOL    HW165225   1.343   8.249  -0.024 -2.5060  0.7822 -0.3748
21364SOL    HW265226   1.336   8.299   0.119 -0.2351 -0.2681  0.1573
21365SOL     OW65227   0.321   1.859   0.544 -0.4351  0.3141 -0.8035
21365SOL    HW165228   0.271   1.930   0.502 -0.6673  1.2216  0.9003
21365SOL    HW265229   0.260   1.786   0.548 -0.5395  0.3428 -1.6596
21366SOL     OW65230   0.405   1.153   1.401 -0.4244  0.6126  0.3505
21366SOL    HW165231   0.423   1.206   1.323 -0.4617  0.4999  0.2651
21366SOL    HW265232   0.347   1.084   1.370  0.5433 -0.1486  0.2182
21367SOL     OW65233   3.624   6.988   8.338 -0.3593  0.1983  0.4355
21367SOL    HW165234   3.642   6.894   8.339 -1.0713  0.0417 -0.0756
21367SOL    HW265235   3.612   7.012   8.430  0.9325  0.0248  0.6607
21368SOL     OW65236   6.323   4.897   5.079  0.2049 -0.1034 -0.1536
21368SOL    HW165237   6.379   4.908   5.156 -0.5691 -1.2039  0.6119
21368SOL    HW265238   6.382   4.875   5.008  0.8384 -0.2324  0.4041
21369SOL     OW65239   2.739   6.956   5.342 -0.3320  0.3443  0.1007
21369SOL    HW165240   2.788   7.035   5.361  1.9498 -1.3834  2.0622
21369SOL    HW265241   2.669   6.955   5.407  0.5431  0.0755  1.0688
21370SOL     OW65242   8.257   5.014   6.559 -0.0128  0.7410 -0.0719
21370SOL    HW165243   8.282   5.060   6.479 -0.3249  2.9229  1.0000
21370SOL    HW265244   8.215   5.081   6.613 -1.6436 -1.1256  1.1244
21371SOL     OW65245   4.096   4.600   0.094  0.2821 -0.0455  0.5627
21371SOL    HW165246   4.175   4.562   0.131  0.7119 -0.9748 -1.1881
21371SOL    HW265247   4.025   4.543   0.125  0.6112 -0.6959  0.1406
21372SOL     OW65248   4.390   6.797   0.244  0.3784 -0.4228  0.3136
21372SOL    HW165249   4.320   6.785   0.308  0.8261 -2.0641  0.5483
21372SOL    HW265250   4.440   6.872   0.277 -1.0254  0.5311  0.3426
21373SOL     OW65251   7.864   2.908   0.588  0.4729 -0.1746  0.0001
21373SOL    HW165252   7.828   2.948   0.667  0.7926  0.2531 -0.0656
21373SOL    HW265253   7.875   2.981   0.526  1.0765 -0.3518 -0.1178
21374SOL     OW65254   3.132   4.270   5.867  0.6624  0.3181 -0.1814
21374SOL    HW165255   3.196   4.281   5.937  2.8792 -0.4343 -1.9845
21374SOL    HW265256   3.146   4.344   5.808 -0.1513  0.1539 -0.6028
21375SOL     OW65257   4.820   3.946   5.150  0.6550 -0.6057 -0.0659
21375SOL    HW165258   4.737   3.913   5.185  0.3118  0.6853  0.3762
21375SOL    HW265259   4.856   4.000   5.220  1.3809 -0.3237 -0.6405
21376SOL     OW65260   0.737   5.291   8.709 -0.6967  0.4374  0.5579
21376SOL    HW165261   0.820   5.251   8.684  0.2059  2.1152  0.6793
21376SOL    HW265262   0.679   5.275   8.635  0.5288  1.4059 -0.6755
21377SOL     OW65263   3.580   7.221   2.935 -0.2691  0.1954 -0.4665
21377SOL    HW165264   3.580   7.129   2.909 -0.2499 -0.2194  0.9092
21377SOL    HW265265   3.672   7.243   2.944 -0.2269  0.7417 -2.0398
21378SOL     OW65266   7.519   5.957   8.914 -0.1195  0.5447  0.5765
21378SOL    HW165267   7.552   5.869   8.933 -3.0890 -0.7922  0.0491
21378SOL    HW265268   7.492   5.991   8.999  1.2404  1.1312  0.8155
21379SOL     OW65269   2.961   5.722   8.163  0.6197 -0.0144 -0.5314
21379SOL    HW165270   2.905   5.775   8.220 -1.2196 -1.3051 -1.0047
21379SOL    HW265271   3.000   5.657   8.221  0.3787 -0.0593 -0.4160
21380SOL     OW65272   0.457   7.744   9.038  0.3614 -0.3118 -0.0781
21380SOL    HW165273   0.517   7.672   9.018  0.3378 -0.2051 -0.5337
21380SOL    HW265274   0.487   7.817   8.984 -0.9040 -0.6149 -1.2693
21381SOL     OW65275   2.285   0.012   9.061 -0.0152  0.1474 -0.5857
21381SOL    HW165276   2.247   0.095   9.035 -0.9895 -0.5765 -1.5758
21381SOL    HW265277   2.376   0.017   9.033 -0.0280  0.9323 -0.5032
21382SOL     OW65278   1.793   6.831   5.267  0.2003  0.3566 -0.1586
21382SOL    HW165279   1.785   6.874   5.182 -1.2162 -1.2880 -0.9267
21382SOL    HW265280   1.790   6.737   5.246  0.9847 -0.0993  1.6231
21383SOL     OW65281   3.458   1.639   7.817 -0.0570 -0.3484  0.0405
21383SOL    HW165282   3.462   1.551   7.779 -1.5616 -0.3903 -0.0839
21383SOL    HW265283   3.521   1.690   7.766  0.9520 -1.3755  0.2239
21384SOL     OW65284   3.828   5.888   0.756 -0.2549 -0.1421 -0.1432
21384SOL    HW165285   3.761   5.937   0.803 -0.1579  0.7051 -0.8723
21384SOL    HW265286   3.895   5.870   0.822  0.3466  1.8824 -0.1347
21385SOL     OW65287   1.815   6.866   4.236  0.1900 -0.4488  0.2849
21385SOL    HW165288   1.878   6.820   4.179  0.5903 -0.2596  0.5734
21385SOL    HW265289   1.846   6.849   4.325 -0.3731 -0.6475  0.4479
21386SOL     OW65290   0.682   5.273   8.391 -0.3345 -0.1930  0.5771
21386SOL    HW165291   0.682   5.349   8.333  0.2758 -1.4062 -1.0992
21386SOL    HW265292   0.593   5.240   8.388 -0.2116 -0.4908 -0.0389
21387SOL     OW65293   0.669   4.510   8.790  0.1210 -0.2237 -0.4357
21387SOL    HW165294   0.670   4.557   8.706 -0.4181 -0.0308 -0.3351
21387SOL    HW265295   0.650   4.577   8.855 -1.4803 -0.7110 -0.3718
21388SOL     OW65296   3.399   6.097   8.595 -0.0016  0.4125 -0.1834
21388SOL    HW165297   3.323   6.156   8.593  0.5077  1.0812 -0.1107
21388SOL    HW265298   3.464   6.140   8.539  1.2487  1.1223  1.7402
21389SOL     OW65299   8.559   1.086   6.019 -0.2714  0.2369  0.2884
21389SOL    HW165300   8.487   1.112   6.076 -1.0712 -0.0451 -0.5706
21389SOL    HW265301   8.595   1.169   5.987  0.0214  0.3889  0.9779
21390SOL     OW65302   3.325   7.150   4.545  0.5363  0.6844  0.2904
21390SOL    HW165303   3.269   7.089   4.497  1.1392  1.5106 -1.5565
21390SOL    HW265304   3.264   7.206   4.593 -0.1940  0.9835 -0.9567
21391SOL     OW65305   8.576   2.252   2.472  0.0189  0.2563 -0.2416
21391SOL    HW165306   8.533   2.191   2.412 -0.5233  0.9256 -0.5477
21391SOL    HW265307   8.669   2.245   2.451 -0.1638  0.4764 -1.1711
21392SOL     OW65308   5.949   7.952   1.878  0.3345  0.1169 -0.0434
21392SOL    HW165309   5.958   8.029   1.933 -0.9806  0.8954 -0.8779
21392SOL    HW265310   5.985   7.979   1.793  1.5076 -0.7745  0.1437
21393SOL     OW65311   0.702   3.989   8.447  0.6137 -0.2318  0.5333
21393SOL    HW165312   0.757   4.004   8.524 -2.8449  0.1126  3.2126
21393SOL    HW265313   0.664   4.075   8.428 -1.3617 -1.0014  0.8278
21394SOL     OW65314   6.220   2.348   3.957  0.1950 -0.0451 -1.0124
21394SOL    HW165315   6.288   2.382   3.898  1.0640  0.2000  0.0889
21394SOL    HW265316   6.199   2.422   4.014 -1.0866 -0.0963 -1.4048
21395SOL     OW65317   5.642   2.631   5.090 -0.7815 -0.0325  0.2731
21395SOL    HW165318   5.627   2.541   5.118 -1.7672 -0.2073 -0.7445
21395SOL    HW265319   5.670   2.623   4.999  0.5366  0.6219  0.5983
21396SOL     OW65320   5.369   3.028   7.395  0.0201 -0.2451  0.3889
21396SOL    HW165321   5.392   3.001   7.306  0.1559  0.6464  0.1477
21396SOL    HW265322   5.311   3.103   7.384  0.5236  0.2572  1.0612
21397SOL     OW65323   5.542   0.623   3.194 -0.7821  0.4798  0.3687
21397SOL    HW165324   5.464   0.635   3.248 -1.0849  1.3554 -0.2268
21397SOL    HW265325   5.529   0.540   3.149 -1.4742  0.7134  0.1290
21398SOL     OW65326   0.227   8.145   1.826 -0.3355  0.4725 -0.1707
21398SOL    HW165327   0.160   8.212   1.839 -0.8000 -0.2055  1.1881
21398SOL    HW265328   0.279   8.176   1.752 -0.3244  2.4929  0.6221
21399SOL     OW65329   6.397   6.059   6.155  0.3667 -0.0934 -0.5292
21399SOL    HW165330   6.401   6.146   6.193 -3.0098  0.7534 -1.7335
21399SOL    HW265331   6.309   6.027   6.177  1.3802 -3.1248 -0.3689
21400SOL     OW65332   7.359   3.539   4.121 -0.2121 -0.7875  0.4564
21400SOL    HW165333   7.310   3.608   4.077 -0.8358 -0.9226  0.9269
21400SOL    HW265334   7.333   3.546   4.213  1.5442 -0.1047  0.9358
21401SOL     OW65335   4.863   6.235   0.652 -0.5188 -0.1574 -0.5104
21401SOL    HW165336   4.780   6.242   0.605  0.4470 -0.0082 -2.2763
21401SOL    HW265337   4.916   6.306   0.617  0.4754 -0.4387  0.3833
21402SOL     OW65338   6.113   4.346   0.141  0.2046  0.7811  0.0143
21402SOL    HW165339   6.054   4.417   0.168 -0.3944 -0.2212  1.5159
21402SOL    HW265340   6.138   4.304   0.223  1.7534  0.1814 -0.7363
21403SOL     OW65341   3.743   2.878   1.936 -0.2160  0.0906 -0.4615
21403SOL    HW165342   3.816   2.816   1.940  0.1659  0.6237  2.4068
21403SOL    HW265343   3.777   2.950   1.882  0.2362 -0.9837 -1.6814
21404SOL     OW65344   4.219   8.632   6.416 -0.6310  0.3193 -0.2130
21404SOL    HW165345   4.270   8.648   6.495 -0.6629 -1.5779  0.2485
21404SOL    HW265346   4.154   8.702   6.414 -1.4264 -0.2583  2.1322
21405SOL     OW65347   8.891   4.057   1.392  0.1962  0.5137 -0.5529
21405SOL    HW165348   8.822   4.107   1.436 -1.4194 -0.5528 -1.7358
21405SOL    HW265349   8.923   3.996   1.458  0.9755  1.9021  0.3954
21406SOL     OW65350   8.192   5.968   8.597 -0.5388 -0.3825  0.4158
21406SOL    HW165351   8.285   5.978   8.578 -0.5997 -2.0695 -1.0065
21406SOL    HW265352   8.185   5.976   8.692  1.0736 -0.4529  0.5551
21407SOL     OW65353   4.904   6.811   2.768 -0.1692 -0.3471  0.2950
21407SOL    HW165354   4.899   6.741   2.703  0.8325 -1.4795  1.3969
21407SOL    HW265355   4.984   6.858   2.747 -1.0945  0.8353 -0.7525
21408SOL     OW65356   7.300   7.083   5.708 -0.0017  0.0402 -0.3276
21408SOL    HW165357   7.321   7.165   5.665  1.3732 -1.2248 -2.1741
21408SOL    HW265358   7.204   7.078   5.704  0.0268  0.1461 -3.0442
21409SOL     OW65359   7.670   7.067   4.445 -0.2429  0.3064 -0.2718
21409SOL    HW165360   7.700   7.011   4.374  2.1314  0.1288  0.7518
21409SOL    HW265361   7.670   7.155   4.408  2.1703  0.3806 -0.2545
21410SOL     OW65362   5.674   8.100   7.139 -0.2617  0.1891  0.0737
21410SOL    HW165363   5.736   8.167   7.111 -0.3620 -0.1282 -0.9483
21410SOL    HW265364   5.699   8.081   7.230 -1.2346  2.7421  0.9720
21411SOL     OW65365   4.189   1.298   8.834 -0.0310  0.2861 -0.1516
21411SOL    HW165366   4.263   1.357   8.820 -1.4488  2.2652  0.2628
21411SOL    HW265367   4.194   1.235   8.762  1.9069  0.5143 -0.2519
21412SOL     OW65368   5.013   4.263   3.016 -0.6403 -0.1047 -0.0215
21412SOL    HW165369   4.947   4.195   3.026 -0.3083 -0.2149  1.6960
21412SOL    HW265370   4.967   4.336   2.975 -1.5064 -0.6384 -0.0143
21413SOL     OW65371   2.586   0.231   6.103  0.8278 -0.3446 -0.4195
21413SOL    HW165372   2.650   0.301   6.108 -0.2071  0.5614  2.1232
21413SOL    HW265373   2.501   0.276   6.098  0.2246 -1.4406 -0.5340
21414SOL     OW65374   2.903   8.312   4.569 -0.0976  0.2064  0.0272
21414SOL    HW165375   2.922   8.357   4.487 -0.5850  1.9498  0.8321
21414SOL    HW265376   2.982   8.261   4.588  0.0010 -0.2659 -1.5199
21415SOL     OW65377   0.118   5.041   0.858  0.2930  0.5587 -0.4767
21415SOL    HW165378   0.089   5.102   0.926  0.1631  0.4471 -0.4313
21415SOL    HW265379   0.078   5.073   0.777  0.2968  0.5851 -0.4680
21416SOL     OW65380   2.829   2.755   0.598  0.1218  0.3902 -0.2970
21416SOL    HW165381   2.900   2.768   0.535 -1.8217  3.2682 -2.1175
21416SOL    HW265382   2.787   2.674   0.570  0.0902  0.9333 -1.9568
21417SOL     OW65383   5.761   5.980   1.053  0.1766  0.1721 -0.0368
21417SOL    HW165384   5.670   5.971   1.025 -0.2588  1.7323  0.7961
21417SOL    HW265385   5.779   6.074   1.046  0.8515  0.2747  2.4344
21418SOL     OW65386   3.893   3.472   3.748 -0.4979  0.3936 -0.0722
21418SOL    HW165387   3.981   3.471   3.710 -0.1275 -0.3171  0.7652
21418SOL    HW265388   3.835   3.497   3.675  0.1090 -1.4922 -1.2825
21419SOL     OW65389   8.806   4.464   6.918 -0.0243  0.4316 -0.0472
21419SOL    HW165390   8.881   4.511   6.880 -0.0479  1.1580  0.7766
21419SOL    HW265391   8.732   4.490   6.864 -0.1946  2.0590  0.9109
21420SOL     OW65392   4.249   6.529   6.172 -0.2181 -0.5740 -0.2450
21420SOL    HW165393   4.293   6.577   6.102  1.7148  0.7497  1.7224
21420SOL    HW265394   4.188   6.593   6.210 -1.2515 -1.2773 -0.6700
21421SOL     OW65395   6.454   2.121   7.358  0.1095  0.4175 -0.0261
21421SOL    HW165396   6.410   2.148   7.278 -1.3751 -0.8526  0.3077
21421SOL    HW265397   6.452   2.198   7.414 -1.0809  0.6027 -0.2993
21422SOL     OW65398   7.207   1.267   3.071  0.4023 -0.4169 -0.3807
21422SOL    HW165399   7.215   1.295   3.163  0.8321 -1.0459 -0.2132
21422SOL    HW265400   7.137   1.202   3.072 -0.2282  0.2504 -0.6705
21423SOL     OW65401   1.127   2.628   0.343  0.0987  0.0165 -0.4960
21423SOL    HW165402   1.055   2.637   0.281  0.7239  1.0631 -1.0943
21423SOL    HW265403   1.156   2.718   0.359 -0.2189 -0.1948  1.5369
21424SOL     OW65404   3.305   7.634   8.369 -0.3596  0.0023  0.6603
21424SOL    HW165405   3.303   7.730   8.372  0.1437  0.1278 -1.7694
21424SOL    HW265406   3.396   7.611   8.387  0.1231  0.1576 -1.4041
21425SOL     OW65407   7.779   1.696   6.321 -0.0430  0.0041  0.3722
21425SOL    HW165408   7.729   1.778   6.316  0.6882  0.4023 -1.1188
21425SOL    HW265409   7.729   1.634   6.269  0.3887  0.0676 -0.1270
21426SOL     OW65410   1.015   6.724   7.120  0.0340  0.5114 -0.3137
21426SOL    HW165411   1.015   6.638   7.161 -0.6104  0.6715  0.0303
21426SOL    HW265412   1.104   6.757   7.134 -0.6314  1.3255  2.5864
21427SOL     OW65413   5.212   2.741   5.837 -0.7773  0.1687 -0.1128
21427SOL    HW165414   5.284   2.786   5.793 -1.4699  0.0127 -1.4831
21427SOL    HW265415   5.157   2.710   5.765 -1.5267 -0.8433  0.8763
21428SOL     OW65416   2.871   3.346   8.943 -0.5983  0.0857  0.5309
21428SOL    HW165417   2.827   3.265   8.918  1.3918 -0.9048  0.0017
21428SOL    HW265418   2.901   3.331   9.032 -0.3786  0.3183  0.4983
21429SOL     OW65419   4.779   4.414   4.627  0.0280  0.0000  0.2017
21429SOL    HW165420   4.689   4.439   4.652 -1.0275 -1.5852 -1.7481
21429SOL    HW265421   4.817   4.378   4.707 -1.1952  0.4080  0.9887
21430SOL     OW65422   3.420   5.279   1.565  0.2948 -0.3603 -0.8504
21430SOL    HW165423   3.447   5.215   1.631  0.2625  0.6508  0.1712
21430SOL    HW265424   3.376   5.226   1.498 -1.9166 -1.1876  1.1075
21431SOL     OW65425   2.824   5.216   4.037  0.4838  0.1000  0.3305
21431SOL    HW165426   2.805   5.221   3.943  0.2997  0.0009  0.3615
21431SOL    HW265427   2.757   5.272   4.078  1.8436  1.8571  0.2448
21432SOL     OW65428   4.864   8.500   3.064 -0.2676  0.2690  0.7755
21432SOL    HW165429   4.781   8.472   3.026  0.9478  1.3825 -3.2030
21432SOL    HW265430   4.909   8.419   3.086 -0.8804 -0.5548 -0.8313
21433SOL     OW65431   3.894   2.198   8.317 -0.4456  0.3775 -0.0775
21433SOL    HW165432   3.856   2.285   8.325  0.6524  0.9338 -0.6287
21433SOL    HW265433   3.954   2.191   8.391 -0.1847  0.2833 -0.2934
21434SOL     OW65434   1.618   4.741   4.877  0.0377  0.1239  0.4127
21434SOL    HW165435   1.674   4.670   4.846 -0.5284 -0.3351  0.4259
21434SOL    HW265436   1.546   4.744   4.813  1.0084  1.9479 -0.6931
21435SOL     OW65437   3.417   0.069   4.602  0.0924 -0.2272 -0.1822
21435SOL    HW165438   3.371  -0.015   4.607  0.1883 -0.7823 -4.7621
21435SOL    HW265439   3.359   0.126   4.553  0.5981  2.1058  1.7277
21436SOL     OW65440   3.083   6.209   8.265  0.3334 -0.3076  0.4357
21436SOL    HW165441   3.082   6.126   8.217  1.3054  0.0274 -0.2080
21436SOL    HW265442   3.103   6.275   8.198 -0.4789  0.4578  0.9304
21437SOL     OW65443   2.405   1.760   8.039 -0.4522  0.2490  0.2586
21437SOL    HW165444   2.314   1.748   8.066 -0.4847 -1.1694 -0.3912
21437SOL    HW265445   2.435   1.672   8.018  0.6098  0.8728 -0.9817
21438SOL     OW65446   2.398   6.302   1.450 -0.2517 -0.0104 -0.9499
21438SOL    HW165447   2.432   6.238   1.388  0.4253  0.2735 -0.8854
21438SOL    HW265448   2.463   6.373   1.449 -0.9539  0.6460 -0.9718
21439SOL     OW65449   5.343   3.803   0.711  0.0318 -0.8834 -0.3099
21439SOL    HW165450   5.329   3.712   0.737 -0.1033 -0.9137 -0.4888
21439SOL    HW265451   5.363   3.848   0.794 -2.6322 -0.5521  0.2663
21440SOL     OW65452   8.490   2.211   7.779 -0.2942  0.0711 -0.4476
21440SOL    HW165453   8.461   2.250   7.696 -1.7620  1.4671  0.6666
21440SOL    HW265454   8.547   2.278   7.818  0.3566 -0.5628 -0.2899
21441SOL     OW65455   4.103   4.676   5.794  1.0245  0.0088 -0.3128
21441SOL    HW165456   4.037   4.631   5.846  0.7390  0.3356 -0.3905
21441SOL    HW265457   4.097   4.636   5.707  0.1283  0.8328 -0.6396
21442SOL     OW65458   4.217   3.061   5.578  0.3066 -0.1871 -0.1287
21442SOL    HW165459   4.144   3.094   5.525 -0.3447  0.3309  1.0427
21442SOL    HW265460   4.176   3.033   5.660  1.3153 -0.7644  0.1949
21443SOL     OW65461   8.797   3.364   1.048 -0.1935 -0.6825 -0.0232
21443SOL    HW165462   8.839   3.315   1.118  0.5475 -1.2252 -0.8251
21443SOL    HW265463   8.707   3.332   1.047 -0.3390 -0.3462  0.9532
21444SOL     OW65464   6.577   3.662   5.701 -0.3807  0.1599  0.3130
21444SOL    HW165465   6.517   3.598   5.663  2.6506 -2.4853 -0.3698
21444SOL    HW265466   6.584   3.636   5.793 -0.3545  0.5313  0.4175
21445SOL     OW65467   1.137   6.601   0.554  0.1622  1.1790 -0.1194
21445SOL    HW165468   1.121   6.506   0.559  1.9382  0.7677 -1.1741
21445SOL    HW265469   1.159   6.617   0.462  2.9467  2.0048  0.5783
21446SOL     OW65470   0.790   1.206   8.040  0.1555 -0.1210  0.9096
21446SOL    HW165471   0.878   1.201   8.003  0.5005 -1.7451  1.8334
21446SOL    HW265472   0.791   1.284   8.095  0.6405  0.5176  0.0116
21447SOL     OW65473   6.280   2.481   8.134  0.3313 -0.3207 -0.0283
21447SOL    HW165474   6.271   2.400   8.184  0.5406 -0.6417 -0.5011
21447SOL    HW265475   6.314   2.453   8.049 -0.6040  0.1487 -0.5672
21448SOL     OW65476   8.523   2.166   1.537 -0.0712 -0.1421 -0.2842
21448SOL    HW165477   8.601   2.132   1.494  0.7221 -0.3272  1.2136
21448SOL    HW265478   8.451   2.115   1.500  0.6404 -0.6811 -0.9539
21449SOL     OW65479   2.815   5.888   1.464 -0.0108 -0.5997 -0.4982
21449SOL    HW165480   2.732   5.853   1.432 -0.3991  0.7543 -1.0493
21449SOL    HW265481   2.858   5.924   1.386  0.7230 -0.5520 -0.0851
21450SOL     OW65482   7.019   6.203   6.563 -0.6099  0.2667 -0.4742
21450SOL    HW165483   7.086   6.252   6.515 -0.0917 -0.2532 -0.2875
21450SOL    HW265484   7.013   6.248   6.648  0.0637 -0.1583 -0.1992
21451SOL     OW65485   0.417   4.733   7.671  0.4845 -0.2202  0.3463
21451SOL    HW165486   0.440   4.651   7.715 -0.5005 -0.1642  0.9992
21451SOL    HW265487   0.394   4.793   7.742  1.1943  0.6244 -0.1295
21452SOL     OW65488   5.125   7.434   6.913  0.2961  0.6905 -0.1957
21452SOL    HW165489   5.125   7.465   7.003  0.1602  1.1113 -0.3378
21452SOL    HW265490   5.077   7.352   6.916  1.9195 -0.2894  0.4394
21453SOL     OW65491   7.417   6.241   5.161 -0.2587 -0.2219  0.2035
21453SOL    HW165492   7.410   6.149   5.135 -0.7964 -0.0049 -0.4414
21453SOL    HW265493   7.360   6.249   5.238 -0.6806 -0.2969 -0.0993
21454SOL     OW65494   4.221   5.648   3.579  0.0224  0.0063  0.2205
21454SOL    HW165495   4.178   5.617   3.659  1.0048 -0.6412  0.5046
21454SOL    HW265496   4.299   5.693   3.609  0.8592 -0.9880 -0.4024
21455SOL     OW65497   3.444   7.603   6.831 -0.1935 -0.0008  0.5038
21455SOL    HW165498   3.430   7.553   6.912  1.2067 -3.0453 -0.9634
21455SOL    HW265499   3.356   7.613   6.794 -0.6639 -0.1082  1.5570
21456SOL     OW65500   7.759   0.015   0.182  0.0822  0.2786  0.4198
21456SOL    HW165501   7.808  -0.035   0.117 -0.8771  0.1861 -0.2650
21456SOL    HW265502   7.733   0.095   0.136 -1.9468 -0.4694  0.1363
21457SOL     OW65503   4.234   2.658   3.887 -0.2287 -0.2398  0.0107
21457SOL    HW165504   4.285   2.595   3.836  0.1406  0.3382 -0.3405
21457SOL    HW265505   4.160   2.680   3.832  0.8050  1.3107 -0.8231
21458SOL     OW65506   6.092   3.905   0.676  0.7066 -0.9376  0.1077
21458SOL    HW165507   6.109   3.851   0.753  2.1204 -1.1111 -0.2914
21458SOL    HW265508   6.082   3.841   0.605  0.2477 -0.7482  0.0018
21459SOL     OW65509   0.436   5.735   2.087 -0.0873 -0.6999 -0.1945
21459SOL    HW165510   0.391   5.753   2.170  1.3026 -1.3065  0.7396
21459SOL    HW265511   0.384   5.666   2.046 -1.4384  0.4042 -0.4077
21460SOL     OW65512   3.002   6.586   4.295 -0.1224 -0.1308 -0.2126
21460SOL    HW165513   2.957   6.572   4.212 -0.5423 -1.3294  0.1991
21460SOL    HW265514   3.051   6.667   4.282 -0.2175 -0.2710 -1.6076
21461SOL     OW65515   4.762   1.021   3.009  0.1053 -0.0106  0.2445
21461SOL    HW165516   4.756   1.016   2.913 -1.0838  0.5625  0.2766
21461SOL    HW265517   4.726   0.938   3.039  1.3792 -0.6139  0.1965
21462SOL     OW65518   6.413   1.610   7.678  0.2637  0.3092  0.3470
21462SOL    HW165519   6.397   1.545   7.610 -0.2927 -0.0540  0.8279
21462SOL    HW265520   6.354   1.683   7.657  0.9208  0.6916 -0.2191
21463SOL     OW65521   3.081   8.629   5.009 -0.1293 -0.5502 -0.2149
21463SOL    HW165522   3.017   8.579   4.958  0.2503 -0.2691 -0.9730
21463SOL    HW265523   3.094   8.710   4.960 -0.7593  0.3259  1.0238
21464SOL     OW65524   7.408   8.105   8.482  0.0553  0.1360 -0.0330
21464SOL    HW165525   7.318   8.079   8.463 -0.2723  1.0654  0.2042
21464SOL    HW265526   7.462   8.041   8.436 -0.7242 -0.3822 -0.2440
21465SOL     OW65527   6.388   2.056   3.472  0.0344 -0.5176 -0.3312
21465SOL    HW165528   6.416   2.083   3.384  1.8094 -0.7467  0.1154
21465SOL    HW265529   6.440   2.110   3.531  0.5794 -1.9410  0.5610
21466SOL     OW65530   7.571   5.883   8.631 -0.5081 -0.1828 -0.4671
21466SOL    HW165531   7.583   5.968   8.589  1.3692 -0.6121 -0.9096
21466SOL    HW265532   7.531   5.903   8.716 -0.0715  1.1306 -0.5479
21467SOL     OW65533   4.619   0.975   4.089 -0.7186  0.0241 -0.0168
21467SOL    HW165534   4.561   0.972   4.165 -0.2190  0.2687  0.3806
21467SOL    HW265535   4.683   1.042   4.111 -0.9796  0.6049 -0.9559
21468SOL     OW65536   5.709   6.555   8.200  0.4599  0.1986 -0.1055
21468SOL    HW165537   5.705   6.471   8.247  0.9188  0.4402  0.3685
21468SOL    HW265538   5.791   6.595   8.229  0.8228  0.3024 -1.2126
21469SOL     OW65539   3.971   2.718   1.972  0.1238  0.0577 -0.6244
21469SOL    HW165540   4.012   2.683   2.051  0.9766  0.0847 -1.0472
21469SOL    HW265541   4.024   2.683   1.900 -1.6849 -1.4740 -1.3196
21470SOL     OW65542   8.623   0.191   7.611  0.1496  0.0597  0.5306
21470SOL    HW165543   8.580   0.119   7.658 -0.3714 -2.4841 -3.3924
21470SOL    HW265544   8.550   0.246   7.582 -0.0731 -1.1211 -1.3105
21471SOL     OW65545   0.381   0.053   3.125 -0.3176 -0.7031 -0.1006
21471SOL    HW165546   0.288   0.073   3.115  0.0328  0.4447 -1.3072
21471SOL    HW265547   0.417   0.131   3.167  0.4598 -0.2262 -1.6139
21472SOL     OW65548   3.021   5.518   8.669 -0.0067  0.3945  0.4958
21472SOL    HW165549   3.097   5.463   8.650  0.1144 -0.3799  2.9005
21472SOL    HW265550   2.945   5.465   8.643  0.2029  0.3066  0.0620
21473SOL     OW65551   0.338   1.576   5.975 -0.1880  0.0013 -0.8529
21473SOL    HW165552   0.246   1.566   5.951 -0.4307  0.2409 -0.0587
21473SOL    HW265553   0.369   1.648   5.921 -0.5626  0.1372 -0.8927
21474SOL     OW65554   2.972   7.839   7.069  0.1092  0.1693  0.5424
21474SOL    HW165555   2.909   7.867   7.136  0.0839  1.2008  0.1087
21474SOL    HW265556   2.964   7.743   7.067 -3.0054  0.3270 -0.9618
21475SOL     OW65557   4.262   2.246   5.032 -0.5129 -0.4410 -0.6061
21475SOL    HW165558   4.253   2.341   5.033 -0.6105 -0.4507  0.2647
21475SOL    HW265559   4.301   2.226   4.946  1.1113  0.5400 -0.1430
21476SOL     OW65560   5.424   6.149   4.080  0.1339 -0.2352  0.3141
21476SOL    HW165561   5.360   6.193   4.136  1.5425  1.0885  0.9557
21476SOL    HW265562   5.473   6.093   4.140  0.7484  0.1296  0.1508
21477SOL     OW65563   2.564   1.693   5.013  0.5283 -0.4261  0.3293
21477SOL    HW165564   2.608   1.778   5.009 -0.4279  0.1735  1.7074
21477SOL    HW265565   2.576   1.663   5.103  0.8081 -1.7498 -0.1258
21478SOL     OW65566   3.184   0.955   8.391  0.3166  0.1191 -0.6563
21478SOL    HW165567   3.193   0.984   8.300  1.5841 -1.5377 -1.0979
21478SOL    HW265568   3.266   0.983   8.433  0.2789 -0.2249 -0.3473
21479SOL     OW65569   5.840   5.552   2.316  0.5998  0.4001  0.2453
21479SOL    HW165570   5.778   5.483   2.293 -0.4375  1.6723 -0.9802
21479SOL    HW265571   5.922   5.525   2.274  0.0321  0.2166 -0.7920
21480SOL     OW65572   0.627   3.119   8.252 -0.2801 -0.6244 -0.2957
21480SOL    HW165573   0.595   3.208   8.234  1.0996 -0.0619 -0.1498
21480SOL    HW265574   0.595   3.066   8.179  1.5857  0.6955 -2.2074
21481SOL     OW65575   8.787   4.485   7.933 -0.5234  0.9180 -0.2876
21481SOL    HW165576   8.743   4.569   7.940 -0.3569  0.9365  0.6795
21481SOL    HW265577   8.868   4.496   7.983  0.3005  0.6909 -1.5148
21482SOL     OW65578   2.699   0.476   5.994  0.3923 -0.1718  0.1970
21482SOL    HW165579   2.719   0.497   6.085  0.8378 -0.5662  0.1892
21482SOL    HW265580   2.653   0.553   5.962  2.0085  0.8225  0.1654
21483SOL     OW65581   3.712   8.807   7.793  0.3238  0.0906 -0.1196
21483SOL    HW165582   3.802   8.782   7.776 -0.1079 -1.5545 -0.1310
21483SOL    HW265583   3.700   8.792   7.887 -0.4629 -1.5606 -0.4532
21484SOL     OW65584   4.396   7.923   1.210  0.2983 -0.5068  0.3492
21484SOL    HW165585   4.369   7.908   1.119 -1.3217 -1.4312  0.9363
21484SOL    HW265586   4.396   7.836   1.249  1.5930 -0.1912  1.0957
21485SOL     OW65587   8.504   3.858   5.284  0.5763 -0.6783 -0.7595
21485SOL    HW165588   8.475   3.841   5.373  0.8181  1.5090 -0.1987
21485SOL    HW265589   8.435   3.914   5.247  1.0282 -0.6393 -1.5623
21486SOL     OW65590   5.145   1.616   5.486 -0.3841 -0.3709  0.1246
21486SOL    HW165591   5.226   1.662   5.465 -0.2883 -0.7014 -0.2480
21486SOL    HW265592   5.077   1.683   5.481 -0.2136 -0.2164 -0.1600
21487SOL     OW65593   5.026   6.999   0.828  0.3749  0.1818  0.1622
21487SOL    HW165594   5.041   7.086   0.792  0.5891 -0.2388 -0.7885
21487SOL    HW265595   4.984   7.015   0.913  0.6952  1.2084  0.1368
21488SOL     OW65596   6.256   2.048   6.880  0.5253 -0.0578 -0.3456
21488SOL    HW165597   6.260   1.952   6.870  1.0096  0.1127 -2.2140
21488SOL    HW265598   6.197   2.076   6.810 -1.0680  0.8861  1.3319
21489SOL     OW65599   1.651   2.194   1.547 -0.5155 -0.1573  0.3098
21489SOL    HW165600   1.686   2.258   1.485  1.1720  0.0954  1.4625
21489SOL    HW265601   1.576   2.237   1.586  0.2954  0.9535  0.7006
21490SOL     OW65602   6.082   4.470   1.890  0.7608  0.0154  0.0976
21490SOL    HW165603   5.987   4.460   1.878  0.9301 -3.2299  0.6329
21490SOL    HW265604   6.099   4.436   1.977  2.3817  1.0701  0.2246
21491SOL     OW65605   8.857   7.711   5.049  0.0410  0.1002 -0.6820
21491SOL    HW165606   8.853   7.679   5.139  0.7399  0.8488 -0.3771
21491SOL    HW265607   8.880   7.804   5.057  1.7841 -0.2049 -1.6759
21492SOL     OW65608   8.160   8.541   5.232 -0.2146  0.4222 -0.7297
21492SOL    HW165609   8.164   8.627   5.274  2.7308 -0.0093  0.1551
21492SOL    HW265610   8.160   8.559   5.139  0.1840  1.4070 -0.5467
21493SOL     OW65611   3.520   5.712   2.673  0.0363 -0.2554  0.1199
21493SOL    HW165612   3.526   5.688   2.581  1.5008  1.9002 -0.4270
21493SOL    HW265613   3.575   5.649   2.719  0.4934 -0.4541 -0.6925
21494SOL     OW65614   5.783   0.901   5.436 -0.6401 -0.4617  1.0189
21494SOL    HW165615   5.805   0.987   5.400 -0.8373 -0.2846  1.3212
21494SOL    HW265616   5.866   0.868   5.471 -0.8017  0.1112  1.9618
21495SOL     OW65617   3.857   6.737   3.208  0.2593 -0.0379  0.2338
21495SOL    HW165618   3.939   6.706   3.247  0.6625 -0.7353 -1.0993
21495SOL    HW265619   3.825   6.803   3.270  1.4870 -0.2159  1.1097
21496SOL     OW65620   3.022   5.936   1.724  0.0444 -0.0730  0.1252
21496SOL    HW165621   3.066   5.851   1.722  0.0716 -0.1953  2.6761
21496SOL    HW265622   2.964   5.934   1.648  1.6201 -1.4460 -1.1344
21497SOL     OW65623   7.701   8.061   0.907 -0.0207 -0.4664 -0.4086
21497SOL    HW165624   7.661   7.978   0.932 -0.1937  0.0621  1.1815
21497SOL    HW265625   7.637   8.101   0.848 -0.5467 -0.8670 -0.1170
21498SOL     OW65626   5.322   3.109   5.804  0.0023 -0.0243 -0.4004
21498SOL    HW165627   5.274   3.123   5.886  1.8814  1.3229  0.5297
21498SOL    HW265628   5.253   3.100   5.738 -1.5603  0.9126  1.0094
21499SOL     OW65629   6.621   6.885   6.761 -0.5219  0.2504  0.4194
21499SOL    HW165630   6.689   6.817   6.767  0.3337  0.7524 -2.1628
21499SOL    HW265631   6.540   6.840   6.786  0.4773 -0.7910  2.0118
21500SOL     OW65632   8.653   0.961   5.440  0.1351  0.0416 -0.0678
21500SOL    HW165633   8.717   0.934   5.506 -0.3923  0.4058  0.6008
21500SOL    HW265634   8.705   1.003   5.372  0.4924  1.5988  1.1132
21501SOL     OW65635   8.750   4.581   2.957  0.1346  0.2721 -0.9443
21501SOL    HW165636   8.708   4.666   2.971 -1.7933 -0.6158 -0.9609
21501SOL    HW265637   8.677   4.523   2.934  1.1426 -1.7650  0.7424
21502SOL     OW65638   0.340   1.392   7.637  0.6672 -0.2185 -0.3461
21502SOL    HW165639   0.267   1.400   7.699  0.9039  1.0820 -0.2026
21502SOL    HW265640   0.413   1.437   7.679  1.2886 -0.6841 -0.9003
21503SOL     OW65641   3.504   8.834   1.696 -0.5420  0.1613  0.3643
21503SOL    HW165642   3.568   8.763   1.700 -2.2939 -1.5545 -0.1875
21503SOL    HW265643   3.541   8.896   1.633  1.1260 -0.1225  1.0029
21504SOL     OW65644   8.709   7.606   6.159 -0.1840 -1.2100 -0.2390
21504SOL    HW165645   8.652   7.637   6.089  0.5269 -0.8157 -0.6596
21504SOL    HW265646   8.651   7.592   6.233 -0.3210  3.6811  0.9102
21505SOL     OW65647   5.597   3.038   3.861  0.7232 -0.3188 -0.3975
21505SOL    HW165648   5.535   3.111   3.856 -1.2603 -1.9518 -0.9566
21505SOL    HW265649   5.609   3.011   3.770  3.2645  0.6860 -0.4380
21506SOL     OW65650   7.167   7.443   7.316 -0.8135 -0.4499 -0.3685
21506SOL    HW165651   7.218   7.378   7.267  0.2666  1.0007 -1.2509
21506SOL    HW265652   7.078   7.432   7.285 -0.7706 -1.8913 -0.0614
21507SOL     OW65653   8.630   6.334   8.838 -0.3652 -0.7278  0.3545
21507SOL    HW165654   8.552   6.287   8.868  0.7998 -2.8295  0.2656
21507SOL    HW265655   8.599   6.422   8.816 -2.8113 -1.6848 -0.2567
21508SOL     OW65656   4.949   5.429   5.562  0.0783 -0.2893 -0.5450
21508SOL    HW165657   4.892   5.491   5.518  0.8517  1.0687  0.2546
21508SOL    HW265658   4.908   5.415   5.647  0.9898  0.9073  0.1426
21509SOL     OW65659   5.763   7.827   5.587  0.7528 -0.3681 -0.5066
21509SOL    HW165660   5.775   7.901   5.527 -1.7640  1.0650  0.6195
21509SOL    HW265661   5.716   7.863   5.661  1.5012 -2.6520  1.2110
21510SOL     OW65662   4.705   4.115   5.370  0.6864 -0.4929 -0.4676
21510SOL    HW165663   4.641   4.045   5.352  0.3583 -0.8933  1.8348
21510SOL    HW265664   4.677   4.188   5.315 -2.8200 -0.1161  1.4505
21511SOL     OW65665   2.136   8.540   2.001  0.1308 -0.1881 -0.2278
21511SOL    HW165666   2.105   8.597   2.072  0.8109  1.9072 -1.5139
21511SOL    HW265667   2.232   8.548   2.005  0.1857 -0.2552 -1.1890
21512SOL     OW65668   9.008   1.025   4.414  0.1369  0.0942  0.2923
21512SOL    HW165669   8.935   0.962   4.413  1.5689 -1.6714  0.9351
21512SOL    HW265670   9.002   1.066   4.500  0.2153 -0.4597  0.5682
21513SOL     OW65671   8.868   7.520   8.167 -0.2369  0.1807  0.5488
21513SOL    HW165672   8.852   7.608   8.203 -0.6890  0.9225 -1.3136
21513SOL    HW265673   8.807   7.513   8.094  1.4319 -0.7397 -0.8239
21514SOL     OW65674   0.003   8.538   2.764  0.6485 -0.3755 -0.5962
21514SOL    HW165675   0.089   8.540   2.722  0.6618  0.1263 -0.5500
21514SOL    HW265676  -0.059   8.563   2.695  0.1103 -3.8362 -1.5705
21515SOL     OW65677   6.498   6.092   4.827  0.5015  0.2636 -0.0180
21515SOL    HW165678   6.505   6.073   4.920  0.1339 -0.4398 -0.1225
21515SOL    HW265679   6.406   6.116   4.814  0.4426 -0.0808 -0.2674
21516SOL     OW65680   5.648   7.189   2.922  0.1844 -0.1534  0.1210
21516SOL    HW165681   5.644   7.094   2.927 -0.2018 -0.0883  1.5900
21516SOL    HW265682   5.572   7.219   2.972 -0.0687  0.9303 -0.8569
21517SOL     OW65683   5.179   4.514   0.690  0.2640  0.0304 -0.6621
21517SOL    HW165684   5.246   4.543   0.628  1.1700  0.6261  0.5634
21517SOL    HW265685   5.196   4.421   0.703  0.8026  0.1554 -0.4406
21518SOL     OW65686   3.781   3.803   1.948 -0.1980 -0.0783  0.1555
21518SOL    HW165687   3.804   3.834   1.861  1.0746  1.0870  0.8649
21518SOL    HW265688   3.739   3.877   1.990  1.3266  0.1867  1.2988
21519SOL     OW65689   2.942   3.637   6.073 -0.1525 -0.2179  0.1796
21519SOL    HW165690   2.876   3.625   6.005  0.8761  0.4956 -0.9789
21519SOL    HW265691   3.019   3.590   6.041  0.4309  0.3532  0.7223
21520SOL     OW65692   7.372   3.164   3.151  0.4443  0.1937 -0.3200
21520SOL    HW165693   7.348   3.077   3.121 -1.9468  1.0420 -1.0946
21520SOL    HW265694   7.333   3.171   3.238  1.7190  0.0892  0.2929
21521SOL     OW65695   8.248   7.824   7.435  0.1909  0.4011  0.8210
21521SOL    HW165696   8.299   7.744   7.449 -0.5795 -0.6092 -1.5114
21521SOL    HW265697   8.282   7.859   7.352  0.1967  2.2691  1.5810
21522SOL     OW65698   6.662   2.805   4.615 -0.1113 -0.0237  0.2711
21522SOL    HW165699   6.671   2.720   4.658 -2.2554 -0.6443 -0.3801
21522SOL    HW265700   6.591   2.849   4.662  0.1954  0.9264 -0.1232
21523SOL     OW65701   7.621   0.518   5.832 -0.0932  0.1448  0.0837
21523SOL    HW165702   7.538   0.485   5.796  0.5995 -0.6706 -0.8034
21523SOL    HW265703   7.595   0.596   5.882 -1.7156 -1.4389  1.8973
21524SOL     OW65704   3.000   6.291   5.787 -0.1532 -0.2324  0.1384
21524SOL    HW165705   3.092   6.317   5.784 -1.0830  3.7921  1.3036
21524SOL    HW265706   2.974   6.300   5.879 -2.4345  2.0725 -0.5983
21525SOL     OW65707   4.926   8.694   8.993  1.0814 -0.0329 -0.2821
21525SOL    HW165708   5.000   8.634   8.987  0.8934 -0.2923 -0.0106
21525SOL    HW265709   4.966   8.781   8.987  1.5720 -0.1150  1.3249
21526SOL     OW65710   2.534   0.767   8.239  0.3259 -0.0569  0.1240
21526SOL    HW165711   2.482   0.703   8.191 -1.1226  0.1096  1.4203
21526SOL    HW265712   2.571   0.824   8.170 -0.6935 -0.5457 -0.8531
21527SOL     OW65713   4.436   7.680   6.976 -0.0314 -0.9001  0.3419
21527SOL    HW165714   4.495   7.657   7.048  2.6810  0.9952 -1.0988
21527SOL    HW265715   4.406   7.596   6.941  0.8483 -1.8934  1.8764
21528SOL     OW65716   2.350   0.756   5.740  0.5379 -0.0933 -0.7628
21528SOL    HW165717   2.341   0.832   5.682 -0.8103  0.8545  0.6173
21528SOL    HW265718   2.294   0.689   5.701 -1.8499  1.1438  0.3058
21529SOL     OW65719   0.388   4.536   2.091 -0.3369 -0.2333 -0.0804
21529SOL    HW165720   0.407   4.598   2.161 -0.8186  0.1368 -0.2714
21529SOL    HW265721   0.379   4.590   2.012  0.2114 -0.6423 -0.4369
21530SOL     OW65722   8.497   4.557   4.116  0.3242  0.3522 -0.0248
21530SOL    HW165723   8.441   4.616   4.167  0.7336 -0.0860  0.9558
21530SOL    HW265724   8.442   4.531   4.042 -1.2510 -0.9555  1.4885
21531SOL     OW65725   0.905   6.897   2.507  0.0415 -0.7772  0.0538
21531SOL    HW165726   0.979   6.845   2.475 -0.7014 -1.3498 -0.7856
21531SOL    HW265727   0.862   6.928   2.427 -0.1894  0.1934  0.5382
21532SOL     OW65728   3.557   1.319   5.290  0.3394  0.3575  0.0245
21532SOL    HW165729   3.490   1.288   5.229 -0.1381  0.9018  0.2569
21532SOL    HW265730   3.540   1.413   5.298  0.1494  0.2342  1.2827
21533SOL     OW65731   1.165   7.276   2.980 -0.1298  0.3226  0.1521
21533SOL    HW165732   1.080   7.317   2.995 -0.4497 -0.7800  1.6261
21533SOL    HW265733   1.190   7.241   3.066  0.3468 -2.0942 -0.8879
21534SOL     OW65734   7.019   5.233   6.287  0.8081 -0.0495  0.4281
21534SOL    HW165735   6.938   5.284   6.277  0.6615 -0.1291  1.1748
21534SOL    HW265736   6.995   5.161   6.344  1.5834  0.3170  1.2397
21535SOL     OW65737   7.602   7.137   1.459 -0.1899 -0.0055 -0.2205
21535SOL    HW165738   7.624   7.074   1.528 -0.7045  0.4382  0.3598
21535SOL    HW265739   7.687   7.169   1.428  0.0539 -0.4119  0.0250
21536SOL     OW65740   3.105   0.447   7.031  0.1089 -0.6354  0.4941
21536SOL    HW165741   3.141   0.392   6.961  0.5304  0.3483 -0.0851
21536SOL    HW265742   3.032   0.493   6.991 -0.4534 -1.0151  1.0705
21537SOL     OW65743   4.597   4.702   3.129 -0.4606  0.5614  0.1304
21537SOL    HW165744   4.662   4.731   3.065  0.2112  3.7212  2.0500
21537SOL    HW265745   4.513   4.724   3.088 -0.1931 -0.2826 -0.9031
21538SOL     OW65746   1.528   4.610   6.664 -0.8787  0.1299 -0.1244
21538SOL    HW165747   1.477   4.602   6.584 -1.5364 -0.0916  0.3148
21538SOL    HW265748   1.614   4.642   6.635 -0.0212 -2.8893 -1.2935
21539SOL     OW65749   1.868   2.686   8.683 -0.2107  0.1245  0.0320
21539SOL    HW165750   1.773   2.680   8.669 -0.1905 -0.1594  0.0013
21539SOL    HW265751   1.888   2.617   8.746 -0.2040  1.0134  1.0318
21540SOL     OW65752   0.116   5.419   4.802 -0.2888 -0.2870 -0.4173
21540SOL    HW165753   0.167   5.338   4.803 -0.1585 -0.2127  0.9528
21540SOL    HW265754   0.034   5.394   4.759  0.0505 -0.9491 -0.7026
21541SOL     OW65755   1.249   7.217   4.746  0.2756 -0.4639  0.0228
21541SOL    HW165756   1.265   7.124   4.759  2.2028 -0.1531  0.1540
21541SOL    HW265757   1.242   7.227   4.651 -2.4016 -1.0520  0.0845
21542SOL     OW65758   3.854   8.035   1.757  0.0530 -0.0887 -0.3916
21542SOL    HW165759   3.892   8.112   1.801  0.8788  0.2445 -1.6140
21542SOL    HW265760   3.898   7.961   1.797  0.2587  0.1693 -0.1344
21543SOL     OW65761   8.709   7.283   2.664 -0.6724  0.4971  0.0325
21543SOL    HW165762   8.790   7.237   2.684 -1.1194 -0.7588 -0.9154
21543SOL    HW265763   8.640   7.222   2.690 -1.2886  0.0217 -2.4354
21544SOL     OW65764   6.729   3.869   6.083 -0.2166  0.0792 -0.2705
21544SOL    HW165765   6.748   3.854   6.176 -0.7912 -0.1721 -0.1894
21544SOL    HW265766   6.657   3.809   6.064  0.3960 -0.4121 -1.0737
21545SOL     OW65767   3.619   1.412   8.295  0.2112 -0.5063 -0.2532
21545SOL    HW165768   3.678   1.468   8.345 -0.2293 -0.1225 -0.1512
21545SOL    HW265769   3.586   1.469   8.225  1.2501 -1.1835 -1.3342
21546SOL     OW65770   7.154   4.916   8.266  0.2862  0.2653  0.3836
21546SOL    HW165771   7.194   4.895   8.182  1.3013  0.5432  0.7868
21546SOL    HW265772   7.101   4.839   8.287  1.2528 -0.4577  0.2220
21547SOL     OW65773   4.126   3.578   2.969  0.3997  0.1088  0.4872
21547SOL    HW165774   4.073   3.648   3.007  2.4764  1.2449  1.4390
21547SOL    HW265775   4.138   3.605   2.878  1.2236  1.0675  0.8564
21548SOL     OW65776   8.583   4.988   7.401 -0.3763 -0.1710  0.1918
21548SOL    HW165777   8.656   5.039   7.436  0.6736 -1.9635  0.7235
21548SOL    HW265778   8.521   4.981   7.474 -1.0000  1.1217 -0.1795
21549SOL     OW65779   2.865   6.727   5.196 -0.1966  0.1560 -0.3331
21549SOL    HW165780   2.905   6.675   5.266  1.9519  0.6621 -1.1242
21549SOL    HW265781   2.822   6.800   5.241  0.1233 -0.1788  0.5261
21550SOL     OW65782   1.288   0.847   2.214 -0.2632  0.1963 -0.8870
21550SOL    HW165783   1.338   0.899   2.277 -1.3427 -0.4270  0.5217
21550SOL    HW265784   1.197   0.862   2.237 -0.6315 -1.3300 -1.2478
21551SOL     OW65785   8.541   8.304   7.837  0.1629 -0.1466 -0.2933
21551SOL    HW165786   8.606   8.261   7.892  0.1612 -0.9144 -0.8735
21551SOL    HW265787   8.460   8.304   7.888 -0.1861 -2.0520 -0.7839
21552SOL     OW65788   6.448   6.758   7.879 -0.1639 -0.2921 -0.2073
21552SOL    HW165789   6.362   6.789   7.907 -0.7167 -1.8755 -0.0105
21552SOL    HW265790   6.438   6.663   7.874  1.7829 -0.5805  0.5153
21553SOL     OW65791   0.416   4.102   7.377  0.2142 -0.3872 -1.0281
21553SOL    HW165792   0.338   4.097   7.431 -0.1104 -0.7580 -1.5205
21553SOL    HW265793   0.391   4.158   7.304  1.5621  2.6530  0.6744
21554SOL     OW65794   5.152   4.328   1.176 -0.9799 -0.4415 -0.1985
21554SOL    HW165795   5.129   4.407   1.127 -1.1762 -0.6471 -0.4376
21554SOL    HW265796   5.159   4.358   1.267 -0.9201 -0.1213 -0.3092
21555SOL     OW65797   1.238   8.459   0.641  0.0970 -0.7111  0.3971
21555SOL    HW165798   1.181   8.489   0.570 -0.3060 -0.4323  0.8362
21555SOL    HW265799   1.181   8.407   0.697  0.0822  0.2012  1.2526
21556SOL     OW65800   0.256   2.199   2.279  0.6077  0.3301  0.1516
21556SOL    HW165801   0.322   2.130   2.275 -0.4081 -0.6449 -0.4765
21556SOL    HW265802   0.230   2.202   2.371  0.8425  0.0450  0.2288
21557SOL     OW65803   6.542   5.381   8.556 -0.0460 -0.1720 -0.0232
21557SOL    HW165804   6.636   5.376   8.541 -0.2262 -0.7581 -1.0461
21557SOL    HW265805   6.521   5.303   8.607  0.1280  0.3595  0.8862
21558SOL     OW65806   2.128   2.475   5.380 -0.6645 -0.2234  0.4080
21558SOL    HW165807   2.122   2.438   5.292 -0.5044 -0.1010  0.3441
21558SOL    HW265808   2.127   2.570   5.365  0.3399 -0.1965  0.4622
21559SOL     OW65809   0.193   2.632   8.227  0.0141  0.4081  0.2818
21559SOL    HW165810   0.224   2.622   8.137  1.8463  1.1594  0.7773
21559SOL    HW265811   0.100   2.651   8.219 -0.1605 -0.9068 -1.3693
21560SOL     OW65812   7.660   3.426   5.461 -0.6906  0.1815  0.1683
21560SOL    HW165813   7.620   3.463   5.540 -1.1699  0.1440 -0.0516
21560SOL    HW265814   7.681   3.335   5.485 -2.1367 -0.2676 -0.1758
21561SOL     OW65815   3.346   0.370   8.685  0.1899 -0.1125  0.4207
21561SOL    HW165816   3.349   0.454   8.638  0.9733 -0.0284  0.5990
21561SOL    HW265817   3.298   0.311   8.627 -1.1845  0.6934  0.6881
21562SOL     OW65818   3.245   2.826   1.736  0.2540  0.5407  0.2960
21562SOL    HW165819   3.302   2.750   1.725  0.8056  0.8039  1.2411
21562SOL    HW265820   3.246   2.844   1.830 -0.4972  1.2346  0.1827
21563SOL     OW65821   4.756   1.337   2.383  0.2870  0.1252  0.1468
21563SOL    HW165822   4.833   1.286   2.410 -1.7887 -2.2546  2.0784
21563SOL    HW265823   4.776   1.426   2.410  1.9567 -0.6189  1.6102
21564SOL     OW65824   7.105   4.108   7.026  0.2076 -0.1118 -0.0254
21564SOL    HW165825   7.140   4.019   7.026 -0.7628 -0.5305 -1.0617
21564SOL    HW265826   7.132   4.145   7.110  3.1414 -0.3558 -0.7616
21565SOL     OW65827   5.934   5.265   1.890  0.4754  0.0039  0.5724
21565SOL    HW165828   5.976   5.187   1.926 -0.4924 -0.3510  0.9630
21565SOL    HW265829   5.954   5.262   1.796  0.2125 -0.8791  0.5360
21566SOL     OW65830   1.036   5.037   2.896 -0.0368  0.7613  0.4652
21566SOL    HW165831   0.984   5.098   2.843  1.4096 -0.1981 -2.2698
21566SOL    HW265832   1.118   5.085   2.913 -0.6690  1.2376  2.3370
21567SOL     OW65833   5.407   1.284   5.990 -0.0873 -0.5656  0.7739
21567SOL    HW165834   5.392   1.249   5.902  1.3549 -0.3526  0.4187
21567SOL    HW265835   5.439   1.373   5.975  1.4696 -0.9850  1.4369
21568SOL     OW65836   3.715   8.373   0.009  0.6910 -0.0123 -0.3236
21568SOL    HW165837   3.808   8.383  -0.014  0.7674 -0.1103 -0.0645
21568SOL    HW265838   3.707   8.417   0.094  0.4788  0.0786 -0.3899
21569SOL     OW65839   4.191   8.474   4.611  0.0480  0.0357  0.1831
21569SOL    HW165840   4.233   8.412   4.551  0.2629  0.3914 -0.0405
21569SOL    HW265841   4.101   8.480   4.580 -0.2266 -0.8679  0.7756
21570SOL     OW65842   2.792   0.868   1.815  0.1258 -0.0040  0.4285
21570SOL    HW165843   2.722   0.886   1.878 -0.2855  0.2301 -0.0819
21570SOL    HW265844   2.848   0.804   1.858 -0.7579 -0.6791  0.6022
21571SOL     OW65845   7.288   6.254   7.752  0.9088 -0.0542 -0.4542
21571SOL    HW165846   7.318   6.192   7.818  0.3471 -1.3957 -1.4190
21571SOL    HW265847   7.323   6.220   7.670 -1.3544 -0.4262 -1.3254
21572SOL     OW65848   1.240   0.310   5.699 -0.0113  0.0118  0.9048
21572SOL    HW165849   1.183   0.315   5.776  1.1082 -1.3407  1.8628
21572SOL    HW265850   1.250   0.217   5.682  1.3655  0.2376  0.3532
21573SOL     OW65851   7.046   5.379   5.276 -0.3376  0.2200  0.0722
21573SOL    HW165852   7.077   5.406   5.190 -0.0998  0.1885  0.1487
21573SOL    HW265853   7.025   5.286   5.266 -0.2266  0.1955  0.0727
21574SOL     OW65854   0.186   2.259   8.627 -0.3272  0.1894 -0.8442
21574SOL    HW165855   0.105   2.245   8.675  0.2494 -0.8466 -0.1369
21574SOL    HW265856   0.207   2.174   8.589  1.0016  0.1444 -0.0856
21575SOL     OW65857   3.670   5.347   8.047 -0.5297  0.0208  0.1675
21575SOL    HW165858   3.678   5.428   7.997 -0.6655 -0.5805 -0.8604
21575SOL    HW265859   3.744   5.349   8.108  0.5528  0.0566 -1.1051
21576SOL     OW65860   7.047   6.166   0.985  0.1669  0.2598 -0.2927
21576SOL    HW165861   7.041   6.080   1.028 -2.1661  0.2071 -0.6090
21576SOL    HW265862   7.131   6.201   1.014  1.8339 -2.6385 -1.1647
21577SOL     OW65863   7.391   4.722   7.246 -0.1212  0.1294 -0.4233
21577SOL    HW165864   7.443   4.773   7.308 -0.5282  2.3325 -1.7884
21577SOL    HW265865   7.455   4.670   7.197  0.7269  1.8803 -1.2563
21578SOL     OW65866   3.202   3.004   8.015 -0.3349  0.0891  0.4493
21578SOL    HW165867   3.236   2.992   7.926 -0.5073  0.6970  0.2956
21578SOL    HW265868   3.269   2.965   8.072 -0.5715 -0.9679  0.0176
21579SOL     OW65869   7.795   3.708   4.822 -0.2172  0.6880  0.2461
21579SOL    HW165870   7.853   3.784   4.812 -1.6486  1.8925  0.6775
21579SOL    HW265871   7.726   3.738   4.882  0.1341 -1.5503  1.9059
21580SOL     OW65872   0.297   1.523   2.513  0.3682 -0.1105 -0.6459
21580SOL    HW165873   0.302   1.591   2.446  1.3403  0.2995 -0.1811
21580SOL    HW265874   0.241   1.559   2.581  0.4191  0.0019 -0.6626
21581SOL     OW65875   1.409   8.059   6.558 -0.5593  0.2663  0.1388
21581SOL    HW165876   1.346   8.109   6.506  1.0863  1.1458 -1.1121
21581SOL    HW265877   1.488   8.056   6.503  1.1254  0.8214  2.3626
21582SOL     OW65878   6.807   6.385   4.552 -0.5086  0.6185 -0.1910
21582SOL    HW165879   6.825   6.331   4.630 -0.3703 -1.2479 -1.4470
21582SOL    HW265880   6.760   6.326   4.492 -0.4404  1.9406 -1.6066
21583SOL     OW65881   1.435   4.798   8.321 -0.1641  0.4633 -0.0723
21583SOL    HW165882   1.403   4.866   8.261  0.7563 -0.0841 -1.2254
21583SOL    HW265883   1.530   4.803   8.313 -0.0015  0.7321  1.7827
21584SOL     OW65884   8.380   6.989   4.809 -0.0156 -0.2432  0.1957
21584SOL    HW165885   8.287   6.979   4.786 -0.2502  1.6223  0.2333
21584SOL    HW265886   8.399   7.081   4.795  2.2859 -0.8712 -1.3312
21585SOL     OW65887   4.237   5.863   2.716 -0.4218 -0.2733  0.5774
21585SOL    HW165888   4.328   5.831   2.709 -0.5644 -0.7139  0.6916
21585SOL    HW265889   4.205   5.825   2.797 -0.4361  0.5953  0.9849
21586SOL     OW65890   3.394   3.829   2.843  0.0870  0.0878 -0.4847
21586SOL    HW165891   3.381   3.815   2.937 -2.6013  0.3082 -0.7558
21586SOL    HW265892   3.437   3.915   2.838  0.2458  0.0820  0.5222
21587SOL     OW65893   5.839   8.372   3.074 -0.2086  0.6810 -0.0478
21587SOL    HW165894   5.934   8.373   3.086 -0.2260  1.7322  0.0649
21587SOL    HW265895   5.818   8.457   3.036 -1.1562  0.6284  0.3226
21588SOL     OW65896   6.619   0.783   0.170 -0.1687 -0.5558 -0.0438
21588SOL    HW165897   6.630   0.688   0.166 -0.7902 -0.6035 -2.1091
21588SOL    HW265898   6.525   0.797   0.179 -0.1855 -0.1565 -0.7424
21589SOL     OW65899   6.727   3.585   0.944  0.2650 -0.7294  0.3065
21589SOL    HW165900   6.750   3.492   0.943 -0.9370 -1.1062  2.4897
21589SOL    HW265901   6.662   3.594   1.014 -0.5836  1.5534 -0.6514
21590SOL     OW65902   5.103   1.449   7.152 -0.3744  0.2331  0.1862
21590SOL    HW165903   5.009   1.454   7.137 -0.2806  1.5959 -0.0369
21590SOL    HW265904   5.134   1.386   7.086 -0.8663  1.3162 -1.1227
21591SOL     OW65905   6.572   7.443   7.408  0.2578 -0.4199 -0.3402
21591SOL    HW165906   6.661   7.416   7.387  0.5559  0.3885 -0.1528
21591SOL    HW265907   6.577   7.472   7.499  0.3864  2.0021 -1.0527
21592SOL     OW65908   5.746   1.040   7.981 -0.0730  0.2372 -0.1372
21592SOL    HW165909   5.701   1.109   8.029  0.8261  0.2831  0.6568
21592SOL    HW265910   5.839   1.055   7.999  0.1483 -0.9755 -0.2266
21593SOL     OW65911   3.564   2.134   0.408 -0.2005  0.0525  0.0424
21593SOL    HW165912   3.646   2.107   0.449 -0.7568  1.5642  2.3538
21593SOL    HW265913   3.505   2.151   0.481 -1.8194  1.2798 -1.4600
21594SOL     OW65914   8.698   5.735   5.398  0.5318 -0.0933 -0.4284
21594SOL    HW165915   8.680   5.642   5.384 -0.8226 -0.1408  1.2391
21594SOL    HW265916   8.654   5.780   5.326 -2.0760 -0.5705  0.7483
21595SOL     OW65917   3.301   4.875   4.114  0.1867 -0.3433  0.5381
21595SOL    HW165918   3.329   4.934   4.184  0.0378  0.6894 -0.2578
21595SOL    HW265919   3.238   4.816   4.156  2.2025 -1.6490  1.9666
21596SOL     OW65920   2.378   6.939   6.706  0.3144  0.4032 -0.2173
21596SOL    HW165921   2.328   6.914   6.628  0.7742 -0.0570 -0.3691
21596SOL    HW265922   2.469   6.917   6.684  0.3212 -0.7154  0.8387
21597SOL     OW65923   1.526   8.442   5.529 -0.2318  0.7212  1.1379
21597SOL    HW165924   1.444   8.486   5.507 -0.8110 -1.4923 -1.7023
21597SOL    HW265925   1.499   8.373   5.590 -1.1303 -1.6115 -1.6507
21598SOL     OW65926   1.554   4.880   1.459 -0.1270  0.2716 -0.2535
21598SOL    HW165927   1.604   4.961   1.458 -0.8931  0.7517 -1.2704
21598SOL    HW265928   1.532   4.864   1.367 -0.3497 -0.8661 -0.0207
21599SOL     OW65929   1.398   4.122   2.045 -0.9870 -0.0287  0.3489
21599SOL    HW165930   1.338   4.160   1.981 -1.0270  0.4125  0.6513
21599SOL    HW265931   1.377   4.028   2.043 -0.3951 -0.1642 -0.9251
21600SOL     OW65932   6.589   4.773   6.049 -0.3530  0.4588  0.1282
21600SOL    HW165933   6.586   4.720   5.970 -0.1154  1.1932 -0.3767
21600SOL    HW265934   6.505   4.757   6.092 -1.3895  1.6951 -1.3522
21601SOL     OW65935   8.730   4.221   1.544  0.1083 -0.2057 -0.0041
21601SOL    HW165936   8.640   4.245   1.522  0.1267 -1.1833 -1.2450
21601SOL    HW265937   8.770   4.303   1.574 -0.9308  0.4376 -0.3261
21602SOL     OW65938   7.927   2.585   5.849 -0.3229  0.5139 -0.1506
21602SOL    HW165939   7.834   2.607   5.850 -0.5691 -0.1135 -2.7388
21602SOL    HW265940   7.932   2.496   5.884 -0.6860  0.6078  0.1378
21603SOL     OW65941   6.599   1.821   4.840 -0.1650  0.3295 -0.1447
21603SOL    HW165942   6.543   1.898   4.843  1.7097  1.7241  0.9853
21603SOL    HW265943   6.556   1.758   4.898 -2.0782  0.2045 -1.6162
21604SOL     OW65944   5.380   5.417   4.414  0.1406 -0.0254 -0.2583
21604SOL    HW165945   5.411   5.329   4.433  0.7751  0.8237  3.4374
21604SOL    HW265946   5.460   5.471   4.413 -0.3297  0.7038 -1.5151
21605SOL     OW65947   7.206   2.536   0.117 -0.5585  0.5736  0.0123
21605SOL    HW165948   7.257   2.609   0.153 -2.2394  1.9449 -0.2572
21605SOL    HW265949   7.260   2.501   0.046  0.5079  1.1938  0.4981
21606SOL     OW65950   1.968   1.009   0.999  0.2915 -0.6305  0.7624
21606SOL    HW165951   2.004   1.055   0.923 -0.7278  2.1467  1.8663
21606SOL    HW265952   2.039   0.951   1.027  1.9656  0.8468 -0.2365
21607SOL     OW65953   6.922   0.951   0.335  0.3953 -0.1657 -0.2499
21607SOL    HW165954   6.926   0.860   0.365 -0.7168  0.3058  1.5217
21607SOL    HW265955   7.011   0.985   0.347  0.9910 -1.1939 -1.6071
21608SOL     OW65956   7.468   5.166   7.112  0.0994 -0.0567  0.3101
21608SOL    HW165957   7.452   5.169   7.018  1.5956  0.2173  0.0418
21608SOL    HW265958   7.384   5.191   7.152  0.0468  2.0592 -0.9960
21609SOL     OW65959   5.785   7.938   7.673  0.6294 -0.4685 -0.2895
21609SOL    HW165960   5.789   7.848   7.704  0.5968 -0.6813 -0.8856
21609SOL    HW265961   5.872   7.954   7.636  0.5461 -0.3437 -0.4318
21610SOL     OW65962   5.434   2.107   0.479 -0.1976  0.5550  1.0398
21610SOL    HW165963   5.506   2.072   0.531  0.5763 -1.0941 -0.9957
21610SOL    HW265964   5.463   2.194   0.452 -0.1140  0.9431  2.2949
21611SOL     OW65965   5.089   0.797   5.116 -0.4630 -0.5856 -0.6304
21611SOL    HW165966   5.076   0.887   5.143 -1.4753 -0.9002 -0.0130
21611SOL    HW265967   5.044   0.790   5.032 -2.1461 -0.9986  0.2608
21612SOL     OW65968   5.871   6.472   1.780 -0.0049  0.3571  0.3340
21612SOL    HW165969   5.886   6.539   1.713 -2.5838  0.0622 -0.6405
21612SOL    HW265970   5.949   6.416   1.774  0.8609  1.5980 -0.8556
21613SOL     OW65971   6.612   6.834   2.306  0.0404  0.0917  0.0849
21613SOL    HW165972   6.538   6.888   2.334  0.3896  0.5872  0.0533
21613SOL    HW265973   6.617   6.765   2.372 -0.3280  0.1630  0.1927
21614SOL     OW65974   3.984   4.215   6.102 -0.3873  0.6014 -0.6439
21614SOL    HW165975   3.968   4.262   6.183  0.6368 -2.0722  1.2252
21614SOL    HW265976   4.078   4.226   6.086  0.0229 -1.2741  0.2232
21615SOL     OW65977   2.753   4.218   1.434 -0.4414  0.0609  0.3674
21615SOL    HW165978   2.816   4.222   1.506  1.1534  1.4736 -1.0115
21615SOL    HW265979   2.736   4.310   1.412 -2.4145 -0.3112  0.1783
21616SOL     OW65980   6.254   4.954   1.603  0.2770  0.5756  0.2411
21616SOL    HW165981   6.167   4.915   1.604  0.0183  1.0803 -0.7946
21616SOL    HW265982   6.279   4.953   1.510  0.3739  2.5789  0.2024
21617SOL     OW65983   7.977   6.319   7.310 -0.3793 -0.0706 -0.5324
21617SOL    HW165984   7.929   6.393   7.273 -0.9033 -0.5059 -0.7291
21617SOL    HW265985   8.067   6.351   7.318  0.0697 -0.4029 -3.4342
21618SOL     OW65986   2.150   4.152   3.270  0.0407 -0.1426  0.1969
21618SOL    HW165987   2.169   4.091   3.199  0.0770 -1.1188  1.0222
21618SOL    HW265988   2.119   4.231   3.226  0.1402 -0.6947 -0.9033
21619SOL     OW65989   4.359   8.110   1.444  0.3669 -0.0246 -0.0196
21619SOL    HW165990   4.354   8.042   1.511  0.9754 -0.1101 -0.0601
21619SOL    HW265991   4.353   8.063   1.361 -0.4496  0.0873 -0.0349
21620SOL     OW65992   4.377   0.923   2.322 -0.1295  0.1651  0.1757
21620SOL    HW165993   4.294   0.961   2.296 -1.2832 -2.5296 -0.4917
21620SOL    HW265994   4.427   0.917   2.240 -0.7642 -1.4671 -0.1309
21621SOL     OW65995   6.865   4.120   3.402  0.6713  0.0907  0.0756
21621SOL    HW165996   6.837   4.163   3.322  0.1143 -1.4677 -0.5953
21621SOL    HW265997   6.937   4.062   3.375  0.8749 -0.0120  0.8027
21622SOL     OW65998   0.393   3.094   2.058 -0.4532  0.0459 -0.4625
21622SOL    HW165999   0.314   3.149   2.058 -0.4587  0.0385 -0.0743
21622SOL    HW266000   0.426   3.099   2.148 -0.0055  0.0537 -0.6249
21623SOL     OW66001   6.407   6.100   4.523 -0.4604  0.0532 -0.2641
21623SOL    HW166002   6.483   6.042   4.521  0.2497  0.9705 -1.3086
21623SOL    HW266003   6.442   6.186   4.545 -1.1445  0.5527 -1.0375
21624SOL     OW66004   2.698   4.077   3.643  0.2911 -0.3923 -0.5846
21624SOL    HW166005   2.776   4.049   3.595 -1.4051 -1.2080 -3.1121
21624SOL    HW266006   2.642   4.000   3.646 -0.4030  0.1124  1.3277
21625SOL     OW66007   4.962   1.644   6.632 -0.1133 -0.0554 -0.0929
21625SOL    HW166008   5.012   1.599   6.564 -0.3773 -1.0516  0.3532
21625SOL    HW266009   4.938   1.728   6.593  0.9741 -0.0159 -0.6993
21626SOL     OW66010   0.163   2.103   1.624 -0.1897  0.1759  0.1770
21626SOL    HW166011   0.257   2.119   1.612 -0.2630 -0.3132 -1.2804
21626SOL    HW266012   0.121   2.169   1.569 -0.8551  2.4523  3.1904
21627SOL     OW66013   7.953   9.019   0.897  0.3999 -0.2417 -0.2759
21627SOL    HW166014   7.919   8.930   0.903 -1.3114  0.2189 -2.0581
21627SOL    HW266015   7.911   9.055   0.819  3.3168  1.1908 -1.3115
21628SOL     OW66016   1.035   3.040   7.093  0.4188 -0.2239 -0.4894
21628SOL    HW166017   1.097   3.005   7.157 -0.2212 -1.5323 -0.5640
21628SOL    HW266018   1.016   2.966   7.035  2.0054  1.2186 -3.0582
21629SOL     OW66019   2.081   7.593   0.132 -0.5290  0.1536 -0.1143
21629SOL    HW166020   2.167   7.634   0.118 -0.8527  1.0717  0.5017
21629SOL    HW266021   2.018   7.656   0.099 -0.9608 -0.8911 -1.3650
21630SOL     OW66022   3.364   4.351   8.626  0.3609 -0.3916 -0.2007
21630SOL    HW166023   3.337   4.347   8.717 -0.6120 -0.1543 -0.4754
21630SOL    HW266024   3.431   4.282   8.619 -1.9063 -2.7625 -0.0728
21631SOL     OW66025   6.945   4.965   2.175  0.1258  0.2753  0.6254
21631SOL    HW166026   6.855   4.993   2.157  0.4420  1.2852  0.5427
21631SOL    HW266027   6.938   4.871   2.193 -0.9233  0.3153  0.4873
21632SOL     OW66028   6.135   2.102   3.622  0.2877 -0.3951 -0.0895
21632SOL    HW166029   6.118   2.179   3.568 -0.7413  0.6832  1.6914
21632SOL    HW266030   6.220   2.071   3.592  0.3473  0.9209 -1.4305
21633SOL     OW66031   8.027   5.731   6.963 -0.2140 -0.4345  0.5337
21633SOL    HW166032   7.964   5.760   6.897 -0.0085  0.6218  0.7849
21633SOL    HW266033   8.111   5.735   6.919 -0.1523 -0.3812  0.6567
21634SOL     OW66034   0.886   4.673   1.660 -0.0986 -0.1292 -0.1734
21634SOL    HW166035   0.937   4.593   1.649  1.5408  0.8501 -0.0923
21634SOL    HW266036   0.802   4.644   1.697  0.3999 -1.8015 -0.2856
21635SOL     OW66037   0.684   5.174   6.146 -0.1192 -0.3534  0.0008
21635SOL    HW166038   0.643   5.215   6.222  0.4694  1.0220 -0.4026
21635SOL    HW266039   0.651   5.224   6.071 -1.8488 -2.5689 -0.8702
21636SOL     OW66040   6.014   8.768   5.965 -0.1596  0.0092 -0.4537
21636SOL    HW166041   6.028   8.839   6.028  0.4639  0.1753 -0.7684
21636SOL    HW266042   6.087   8.775   5.904 -1.0822  0.2436 -1.5743
21637SOL     OW66043   5.527   6.992   7.772  0.1145  0.1741 -0.2265
21637SOL    HW166044   5.500   6.904   7.746  0.5432 -0.3478  1.0070
21637SOL    HW266045   5.539   6.986   7.867 -0.4416  1.7262 -0.0227
21638SOL     OW66046   8.011   3.148   5.942  0.5110 -0.7090 -0.6509
21638SOL    HW166047   7.974   3.201   6.013 -0.3817 -1.5060 -0.5126
21638SOL    HW266048   7.972   3.061   5.954  1.6314 -1.2979 -1.1239
21639SOL     OW66049   3.706   7.485   4.435 -0.0561  0.0947  0.4493
21639SOL    HW166050   3.758   7.497   4.515  0.0177 -1.4125  0.6592
21639SOL    HW266051   3.627   7.439   4.464  1.1489 -2.9212 -0.6331
21640SOL     OW66052   2.966   1.145   1.002 -0.0813 -0.5084 -0.8661
21640SOL    HW166053   2.887   1.162   1.053  0.0644 -1.2429 -0.3954
21640SOL    HW266054   2.975   1.223   0.946  0.1020  0.5953  0.6427
21641SOL     OW66055   8.110   6.251   5.579  0.0475 -0.5679  0.1930
21641SOL    HW166056   8.056   6.246   5.500  1.0225 -1.6794 -0.4467
21641SOL    HW266057   8.197   6.277   5.548  0.1642  0.1168  1.0551
21642SOL     OW66058   8.164   2.409   5.574  0.3306 -0.8552 -0.1746
21642SOL    HW166059   8.124   2.328   5.543 -2.5312 -0.2325  1.5399
21642SOL    HW266060   8.203   2.385   5.658 -0.7606 -0.4443  0.4677
21643SOL     OW66061   4.456   0.652   5.092  0.0358 -0.6757 -0.0782
21643SOL    HW166062   4.420   0.707   5.022  0.3168  1.0487  1.0744
21643SOL    HW266063   4.492   0.713   5.155  3.0958 -2.2565 -0.1092
21644SOL     OW66064   4.231   8.500   8.153 -0.2608 -0.1136  0.1947
21644SOL    HW166065   4.283   8.465   8.081 -1.1599 -0.5020 -0.2882
21644SOL    HW266066   4.169   8.560   8.111 -0.9029 -0.4653  0.6159
21645SOL     OW66067   0.606   3.415   1.176 -0.0847 -0.0290  0.0763
21645SOL    HW166068   0.694   3.383   1.195  0.5807  1.8698  0.4920
21645SOL    HW266069   0.609   3.508   1.200 -3.3069 -0.6334  3.7733
21646SOL     OW66070   3.247   0.932   7.689  0.5712  0.4378  0.1569
21646SOL    HW166071   3.208   0.875   7.623  0.8336  0.5374 -0.0877
21646SOL    HW266072   3.342   0.925   7.674  0.6367  0.4223  0.5556
21647SOL     OW66073   5.554   0.342   2.398 -0.4287 -0.4527 -0.2551
21647SOL    HW166074   5.614   0.349   2.472 -1.2847  2.4972  0.2817
21647SOL    HW266075   5.607   0.364   2.321  0.0832 -1.9793 -0.3798
21648SOL     OW66076   8.388   0.735   5.420 -0.7129  0.3556  0.4484
21648SOL    HW166077   8.357   0.806   5.365  0.9520  0.5752 -0.2422
21648SOL    HW266078   8.476   0.715   5.388 -0.0907 -0.2119  2.3428
21649SOL     OW66079   6.361   2.194   3.167 -0.2845  0.4443 -0.3960
21649SOL    HW166080   6.297   2.263   3.153  0.9707  1.6798 -0.2331
21649SOL    HW266081   6.418   2.199   3.090 -0.3939 -0.6718 -0.5624
21650SOL     OW66082   1.606   3.681   8.756  0.3515 -0.1101  0.0935
21650SOL    HW166083   1.515   3.653   8.762  0.7354 -1.2286  0.9339
21650SOL    HW266084   1.650   3.609   8.711  1.2933 -0.7406  1.9736
21651SOL     OW66085   6.723   2.123   3.304 -0.1647 -0.6237 -0.0130
21651SOL    HW166086   6.761   2.035   3.301  1.3197 -0.0307  0.4265
21651SOL    HW266087   6.687   2.137   3.217  1.7161 -0.7785 -0.8563
21652SOL     OW66088   7.732   0.156   8.620 -0.6575  0.3637 -0.1927
21652SOL    HW166089   7.652   0.146   8.568  0.1300 -0.0467 -1.3431
21652SOL    HW266090   7.737   0.075   8.671 -0.8815  0.3244 -0.2298
21653SOL     OW66091   7.123   5.896   4.893  0.2269 -0.6497 -0.2647
21653SOL    HW166092   7.118   5.924   4.985  2.0420  2.2151 -0.9029
21653SOL    HW266093   7.214   5.909   4.869 -0.2446 -1.1190 -2.5733
21654SOL     OW66094   9.087   6.781   1.066  0.6737 -0.2802  0.4938
21654SOL    HW166095   9.088   6.717   0.995 -0.4523  2.1819 -1.9735
21654SOL    HW266096   8.998   6.817   1.065  1.2820  1.4062  1.5965
21655SOL     OW66097   3.838   7.715   2.175  0.0441  0.0499 -0.1455
21655SOL    HW166098   3.775   7.670   2.118 -0.6013  0.6239  0.1040
21655SOL    HW266099   3.839   7.805   2.144  1.1870 -0.0679 -0.5131
21656SOL     OW66100   0.737   7.781   7.154 -0.0728  0.2989  0.4160
21656SOL    HW166101   0.645   7.752   7.158  0.0817 -0.4894 -1.1034
21656SOL    HW266102   0.762   7.768   7.063  1.0092  2.2847  0.3963
21657SOL     OW66103   5.682   4.757   3.677  0.5650 -0.2320 -0.1107
21657SOL    HW166104   5.609   4.747   3.616  0.5572  0.7773 -0.2813
21657SOL    HW266105   5.655   4.709   3.755  0.6692 -1.7435 -0.9589
21658SOL     OW66106   0.351   0.289   6.201 -0.0139 -0.1184 -0.0545
21658SOL    HW166107   0.339   0.309   6.108  1.3245  0.6564 -0.0782
21658SOL    HW266108   0.379   0.371   6.240  2.6997 -1.1474  0.4061
21659SOL     OW66109   7.741   7.934   0.188  0.0993  0.1463 -0.2266
21659SOL    HW166110   7.688   7.951   0.266  1.1640  1.0715  0.3221
21659SOL    HW266111   7.767   7.842   0.196 -1.2663 -0.2905 -0.4357
21660SOL     OW66112   6.027   8.714   2.724  0.1839 -0.1155 -0.3352
21660SOL    HW166113   5.964   8.783   2.703 -0.2648  0.2189  1.8642
21660SOL    HW266114   6.112   8.759   2.728  0.0047  0.1711  0.3315
21661SOL     OW66115   0.408   1.129   4.295  0.2291 -0.0068 -0.1951
21661SOL    HW166116   0.386   1.182   4.218  0.6686 -1.5521 -1.4464
21661SOL    HW266117   0.329   1.132   4.349 -0.2891  0.6785 -0.9576
21662SOL     OW66118   4.416   8.482   7.356  0.0274 -0.0298  0.1376
21662SOL    HW166119   4.505   8.476   7.322 -1.0454 -2.5214 -2.6209
21662SOL    HW266120   4.380   8.560   7.314  0.7248  0.8151  1.0340
21663SOL     OW66121   8.071   6.643   4.402  0.6575  0.6121 -0.1448
21663SOL    HW166122   7.996   6.588   4.383  1.6850 -1.0101  0.2842
21663SOL    HW266123   8.042   6.732   4.380 -1.6798  0.1801  0.9269
21664SOL     OW66124   6.794   6.749   9.020 -0.1008 -0.6746  0.4677
21664SOL    HW166125   6.798   6.653   9.012  0.5348 -0.5942 -0.3150
21664SOL    HW266126   6.883   6.775   9.045  0.2302 -0.1584 -1.1108
21665SOL     OW66127   4.550   2.581   4.267 -0.4742  0.0933  0.0658
21665SOL    HW166128   4.581   2.670   4.251  1.7033 -0.4702  0.7722
21665SOL    HW266129   4.622   2.525   4.238 -2.5801 -1.6158 -2.3333
21666SOL     OW66130   8.123   8.908   3.897 -0.0476  0.4434  0.0582
21666SOL    HW166131   8.083   8.995   3.895 -1.2198 -0.0700  0.4099
21666SOL    HW266132   8.097   8.871   3.982  1.4854  0.2221  0.4566
21667SOL     OW66133   6.758   6.134   8.852  0.1281 -0.3431  0.0555
21667SOL    HW166134   6.702   6.178   8.917 -0.4801 -0.6618 -0.2419
21667SOL    HW266135   6.703   6.064   8.817  0.2752  0.1231 -1.1571
21668SOL     OW66136   0.806   6.279   8.948 -0.2557 -0.6527 -0.5126
21668SOL    HW166137   0.764   6.254   9.030  0.0691  1.6636  0.4457
21668SOL    HW266138   0.898   6.288   8.970 -0.3666  1.4607 -0.6652
21669SOL     OW66139   0.529   6.640   4.882  0.2252  0.5401  0.1412
21669SOL    HW166140   0.620   6.614   4.867 -0.2374 -0.4743 -1.1110
21669SOL    HW266141   0.488   6.634   4.796 -1.0967  0.7488  0.7317
21670SOL     OW66142   7.455   6.103   0.006 -0.1702 -0.5024 -0.0938
21670SOL    HW166143   7.496   6.088   0.091 -0.4776 -0.8976 -0.0088
21670SOL    HW266144   7.454   6.198  -0.004 -1.2602 -0.3826  0.9246
21671SOL     OW66145   4.403   3.993   2.054 -0.2383 -0.1799  0.7844
21671SOL    HW166146   4.449   3.946   1.985  0.4131 -0.6031  1.4958
21671SOL    HW266147   4.395   4.083   2.021 -3.3085 -1.1192 -1.5104
21672SOL     OW66148   7.816   3.330   4.876  0.3318  0.1230  0.3950
21672SOL    HW166149   7.746   3.379   4.920 -0.6810 -0.4317 -0.5555
21672SOL    HW266150   7.774   3.249   4.846  0.7531  0.8460 -2.3414
21673SOL     OW66151   1.395   7.361   1.685  0.2327 -0.8789 -0.0601
21673SOL    HW166152   1.430   7.317   1.607  1.3220 -0.4218  0.1546
21673SOL    HW266153   1.302   7.338   1.685 -0.1928  0.5104 -2.4690
21674SOL     OW66154   7.612   7.318   4.323 -0.1404  0.5533 -0.0915
21674SOL    HW166155   7.560   7.360   4.391 -1.7123 -1.1901 -0.1533
21674SOL    HW266156   7.564   7.335   4.242 -0.0825 -0.2212 -0.2919
21675SOL     OW66157   0.449   4.404   1.527  0.0360 -0.1243 -0.0584
21675SOL    HW166158   0.514   4.371   1.466  2.0267  2.1396  0.7165
21675SOL    HW266159   0.384   4.333   1.533  1.8008 -2.0058 -1.7100
21676SOL     OW66160   6.410   7.301   2.300  0.4482 -0.2406 -0.3855
21676SOL    HW166161   6.342   7.358   2.335  1.6344  1.8059 -1.2279
21676SOL    HW266162   6.490   7.354   2.303  1.0242 -0.5705 -4.2244
21677SOL     OW66163   2.906   0.611   4.601 -0.3858  0.2273 -0.3076
21677SOL    HW166164   2.890   0.654   4.517 -2.4032 -0.6661 -0.4489
21677SOL    HW266165   2.862   0.527   4.594  2.6904 -1.5865  0.2782
21678SOL     OW66166   4.299   6.896   2.246  0.4600 -0.9192  0.1071
21678SOL    HW166167   4.307   6.808   2.283  1.0088 -0.0533  2.2229
21678SOL    HW266168   4.205   6.915   2.253  0.2657 -1.4940 -0.7984
21679SOL     OW66169   0.593   7.833   6.663 -0.0515  0.5013  0.0139
21679SOL    HW166170   0.657   7.777   6.619  0.7106  1.0097  0.4662
21679SOL    HW266171   0.629   7.921   6.655 -1.1070  0.9061 -0.4447
21680SOL     OW66172   0.549   4.772   7.121  0.0263 -0.1140 -0.2557
21680SOL    HW166173   0.539   4.795   7.028  0.5544  2.0119  0.1609
21680SOL    HW266174   0.490   4.830   7.167  0.5958 -0.3674  0.8363
21681SOL     OW66175   6.270   7.948   8.469  0.4716 -0.4742  0.0075
21681SOL    HW166176   6.330   7.989   8.532  0.2556  0.8469 -0.6237
21681SOL    HW266177   6.185   7.987   8.488  0.2801 -0.5505 -0.6737
21682SOL     OW66178   6.822   9.081   6.155 -0.3459 -0.3519 -0.3384
21682SOL    HW166179   6.746   9.100   6.209 -0.5708 -3.4934  0.6111
21682SOL    HW266180   6.897   9.113   6.205 -0.8145 -0.1088  0.2056
21683SOL     OW66181   6.018   2.738   4.563  0.1175 -0.6383  0.3863
21683SOL    HW166182   5.930   2.736   4.601  0.0432 -2.1464  0.1980
21683SOL    HW266183   6.030   2.829   4.535 -1.7707 -0.6193 -0.4994
21684SOL     OW66184   5.790   6.637   3.747 -0.1343  0.1673 -0.1330
21684SOL    HW166185   5.856   6.615   3.813 -0.5581 -0.1311  0.1929
21684SOL    HW266186   5.801   6.570   3.679  2.2046  2.0349 -1.7887
21685SOL     OW66187   1.383   3.887   1.527  0.6055 -0.0699  0.1819
21685SOL    HW166188   1.347   3.867   1.613  1.8802  0.6587  0.9096
21685SOL    HW266189   1.449   3.954   1.543  0.2198  0.7709 -1.4877
21686SOL     OW66190   7.118   4.333   6.159  0.0490 -0.0319  0.1336
21686SOL    HW166191   7.100   4.241   6.139  1.1162 -0.0857 -0.6570
21686SOL    HW266192   7.168   4.365   6.084 -0.2615  1.1904  0.4226
21687SOL     OW66193   1.739   0.456   7.662  0.5902  0.0572  0.6496
21687SOL    HW166194   1.719   0.496   7.747  0.2478  0.7297  0.2633
21687SOL    HW266195   1.829   0.484   7.644  1.1380 -1.1621  1.3784
21688SOL     OW66196   0.007   4.257   6.887 -0.1256  0.4192  0.4501
21688SOL    HW166197   0.007   4.226   6.796  0.7931  1.6397  0.0055
21688SOL    HW266198  -0.047   4.336   6.885 -0.7324  0.0281  1.1336
21689SOL     OW66199   6.408   3.313   0.101 -0.0623 -0.2962 -0.3209
21689SOL    HW166200   6.313   3.325   0.106 -0.0195  0.0158 -0.2986
21689SOL    HW266201   6.427   3.308   0.008 -0.1466 -0.7264 -0.3193
21690SOL     OW66202   0.706   2.774   0.481 -0.7111  0.5059 -0.2342
21690SOL    HW166203   0.699   2.822   0.398 -1.6097 -0.2888 -0.6410
21690SOL    HW266204   0.799   2.777   0.503 -0.1926 -0.4817 -2.0371
21691SOL     OW66205   8.843   7.553   1.613  0.3403 -0.5094  0.3291
21691SOL    HW166206   8.780   7.604   1.563 -0.5501 -1.1047  0.8119
21691SOL    HW266207   8.921   7.548   1.557 -0.0846  0.1243 -0.3270
21692SOL     OW66208   2.756   1.240   5.889 -0.0248 -0.4524  0.8658
21692SOL    HW166209   2.799   1.268   5.969 -0.7704  1.5478  0.6152
21692SOL    HW266210   2.664   1.226   5.914  0.0714 -1.4822  0.6991
21693SOL     OW66211   4.481   9.018   4.071 -0.0744  0.0570 -0.0652
21693SOL    HW166212   4.510   9.109   4.070 -0.3995  0.1836  0.8792
21693SOL    HW266213   4.555   8.968   4.037 -0.4791  0.8050 -2.2206
21694SOL     OW66214   7.970   8.316   6.417  0.1272  0.6644  0.1287
21694SOL    HW166215   8.032   8.243   6.413 -0.2723  0.2693  0.9899
21694SOL    HW266216   8.024   8.395   6.412  0.7077  0.3242  0.9639
21695SOL     OW66217   1.735   4.329   6.554 -0.1115 -0.5643 -0.2082
21695SOL    HW166218   1.662   4.292   6.603  0.3888  0.1467  1.1245
21695SOL    HW266219   1.759   4.260   6.491 -0.7602 -1.5153  0.5566
21696SOL     OW66220   3.103   7.330   8.699  0.0716 -0.3625 -0.0827
21696SOL    HW166221   3.117   7.393   8.770 -0.3182  1.4036 -1.4755
21696SOL    HW266222   3.021   7.285   8.722 -0.2678  0.4758  0.4062
21697SOL     OW66223   1.339   2.843   0.056  0.0696 -0.0944  0.0488
21697SOL    HW166224   1.384   2.825   0.138 -1.6210  1.4268  1.3750
21697SOL    HW266225   1.337   2.938   0.049 -3.6926  0.0340  0.6089
21698SOL     OW66226   3.745   6.841   0.898 -0.0425  0.1034  0.1860
21698SOL    HW166227   3.832   6.864   0.867 -0.5123  1.8719  0.0642
21698SOL    HW266228   3.720   6.914   0.956 -1.5513 -0.2101 -0.0157
21699SOL     OW66229   0.525   0.927   1.694 -0.3130  0.4987 -0.5641
21699SOL    HW166230   0.602   0.936   1.638  0.8959 -0.9823  0.7650
21699SOL    HW266231   0.538   0.991   1.763  0.9656 -1.2671  0.9263
21700SOL     OW66232   0.550   8.365   5.621  0.2647 -1.0650  0.1506
21700SOL    HW166233   0.641   8.336   5.619  0.7905  0.5132 -0.3684
21700SOL    HW266234   0.539   8.403   5.708  0.6190  0.2248 -0.3458
21701SOL     OW66235   4.122   8.730   8.983 -0.2451 -0.1032 -0.1849
21701SOL    HW166236   4.039   8.776   8.971 -0.7167 -0.5574  1.1059
21701SOL    HW266237   4.112   8.649   8.933 -0.5197 -0.0848 -0.1628
21702SOL     OW66238   8.832   4.325   8.472 -0.8372 -0.0830 -0.0498
21702SOL    HW166239   8.836   4.395   8.538 -0.6383 -0.7936  0.7079
21702SOL    HW266240   8.916   4.281   8.479 -1.0275 -0.5039 -0.4071
21703SOL     OW66241   0.212   7.121   8.051 -0.9658  0.0612  0.9884
21703SOL    HW166242   0.251   7.202   8.018 -0.3008 -0.8239 -0.4770
21703SOL    HW266243   0.131   7.112   8.000 -0.2653 -0.9652 -0.0066
21704SOL     OW66244   3.339   1.341   5.838  0.4341 -0.2880  0.3026
21704SOL    HW166245   3.258   1.330   5.788  0.7953  1.5966 -0.8087
21704SOL    HW266246   3.404   1.367   5.773  1.0563  1.7042  1.6311
21705SOL     OW66247   7.638   6.282   5.026  0.0467 -0.6269 -0.4682
21705SOL    HW166248   7.617   6.342   4.954  1.5932  1.0419  0.3840
21705SOL    HW266249   7.558   6.278   5.078  0.0859  1.3415 -0.1619
21706SOL     OW66250   7.992   4.447   3.603 -0.5354 -0.2099 -0.6384
21706SOL    HW166251   7.916   4.497   3.572  1.0906  2.0728 -1.1152
21706SOL    HW266252   8.011   4.386   3.531 -0.4821  0.8520 -1.5457
21707SOL     OW66253   3.259   4.483   0.978 -0.0013 -0.5429  0.0923
21707SOL    HW166254   3.291   4.399   1.010 -0.2224 -0.0324  1.7715
21707SOL    HW266255   3.177   4.497   1.025 -0.8699 -0.1714 -1.4714
21708SOL     OW66256   3.314   5.980   3.781  0.0865 -0.0393  0.3999
21708SOL    HW166257   3.219   5.987   3.780  0.1059  0.2608  0.2943
21708SOL    HW266258   3.342   6.026   3.701  0.3184 -0.1030  0.4431
21709SOL     OW66259   9.096   1.401   2.759  0.3045  0.1097 -1.0899
21709SOL    HW166260   9.134   1.333   2.703 -0.6141 -0.0619 -1.5162
21709SOL    HW266261   9.011   1.366   2.785  1.1103 -0.2817  1.2890
21710SOL     OW66262   7.623   0.918   0.783 -0.2376  0.3448  0.0830
21710SOL    HW166263   7.587   0.929   0.695  0.7439 -0.5777 -0.4529
21710SOL    HW266264   7.675   0.837   0.779  0.5600  0.7574  1.2561
21711SOL     OW66265   5.467   0.400   3.582  0.1740 -0.3925  0.2019
21711SOL    HW166266   5.490   0.478   3.631 -1.3750  0.5727 -0.5355
21711SOL    HW266267   5.507   0.328   3.632 -1.0798  0.5356  2.7476
21712SOL     OW66268   7.129   6.224   8.828 -0.1087 -0.2411 -0.5599
21712SOL    HW166269   7.216   6.222   8.868  0.3753 -1.9739 -1.5938
21712SOL    HW266270   7.126   6.307   8.781  0.9957 -0.1525 -0.4973
21713SOL     OW66271   6.715   6.244   8.436  0.2751 -0.0977 -0.1392
21713SOL    HW166272   6.723   6.148   8.441  1.5183  0.0475  1.7006
21713SOL    HW266273   6.751   6.275   8.519  0.8349  2.0299 -1.1093
21714SOL     OW66274   1.716   6.129   8.509  0.2102 -0.2300  0.1924
21714SOL    HW166275   1.660   6.163   8.439  0.9703  0.6951  0.0204
21714SOL    HW266276   1.797   6.103   8.465  1.6111  2.4563  0.9430
21715SOL     OW66277   2.746   8.891   7.756 -0.2762 -0.5103  0.1729
21715SOL    HW166278   2.766   8.832   7.828 -1.4960 -0.8474  0.2644
21715SOL    HW266279   2.700   8.965   7.798 -1.0545 -0.7409 -0.2509
21716SOL     OW66280   1.777   1.291   8.396  0.9111 -0.3172  0.5994
21716SOL    HW166281   1.872   1.299   8.404  0.6976  0.9960  2.8636
21716SOL    HW266282   1.749   1.374   8.358  0.6093 -0.3490  0.7473
21717SOL     OW66283   8.416   0.222   8.975 -0.5384 -0.3842  0.1334
21717SOL    HW166284   8.393   0.225   8.882 -1.7983 -1.1178  0.4078
21717SOL    HW266285   8.483   0.290   8.985  0.5847 -1.1787 -1.5602
21718SOL     OW66286   5.602   3.772   3.677  0.2607  0.3206  0.2703
21718SOL    HW166287   5.643   3.818   3.603 -0.4124  1.9504  0.8590
21718SOL    HW266288   5.513   3.753   3.647  0.2807  0.1386  0.3269
21719SOL     OW66289   5.458   1.959   4.242 -0.6075 -0.1612  0.0093
21719SOL    HW166290   5.416   1.951   4.156 -0.3375 -0.2584 -0.1146
21719SOL    HW266291   5.545   1.919   4.230 -1.3530 -2.1689  0.9199
21720SOL     OW66292   3.816   9.089   5.882 -0.0218 -0.2487 -0.0237
21720SOL    HW166293   3.858   9.005   5.896 -1.1524 -0.7288  0.7020
21720SOL    HW266294   3.744   9.071   5.822 -0.2154  0.2196  0.0582
21721SOL     OW66295   0.996   0.837   4.939  0.0832 -0.0051 -0.7592
21721SOL    HW166296   0.944   0.875   4.868  0.0702  0.7940 -0.3305
21721SOL    HW266297   0.968   0.745   4.942  0.3889 -0.1668 -2.0550
21722SOL     OW66298   1.714   4.537   8.887  0.0345 -0.2637 -0.1379
21722SOL    HW166299   1.702   4.583   8.804 -1.9494  0.7045  0.6141
21722SOL    HW266300   1.790   4.480   8.873  0.8903  1.2381 -1.9862
21723SOL     OW66301   1.316   3.568   1.773 -0.0622 -0.7540  1.2042
21723SOL    HW166302   1.249   3.631   1.744 -0.0386 -0.5441  1.6088
21723SOL    HW266303   1.269   3.509   1.831  0.0938 -0.6344  1.4525
21724SOL     OW66304   7.471   2.061   5.569  0.3469  0.1160 -0.2408
21724SOL    HW166305   7.429   2.086   5.651  0.5148  2.0211 -0.6852
21724SOL    HW266306   7.462   1.966   5.566  0.1228  0.0156  1.8527
21725SOL     OW66307   2.533   3.938   0.895  0.1848 -0.3823 -0.0221
21725SOL    HW166308   2.602   3.982   0.945 -0.5055 -2.2568  2.8136
21725SOL    HW266309   2.459   3.998   0.898 -0.2379 -0.9442  2.4037
21726SOL     OW66310   0.269   1.820   3.421 -0.3199  0.1272  0.6341
21726SOL    HW166311   0.201   1.887   3.432 -0.3476  0.1497  0.3380
21726SOL    HW266312   0.339   1.864   3.373 -0.3206 -0.0432  0.4756
21727SOL     OW66313   4.558   5.709   0.348  0.0892 -0.0140  0.2382
21727SOL    HW166314   4.575   5.691   0.441 -0.8357  0.2078  0.4641
21727SOL    HW266315   4.641   5.690   0.304  0.6286  0.1660  1.1505
21728SOL     OW66316   4.903   6.511   8.885  0.4025 -0.0299  0.8832
21728SOL    HW166317   4.920   6.469   8.969 -0.4316 -0.7528  0.6985
21728SOL    HW266318   4.986   6.554   8.863  0.8169 -0.3418  1.7764
21729SOL     OW66319   3.557   6.578   0.414  0.0925 -0.1021 -0.1469
21729SOL    HW166320   3.557   6.525   0.494  0.3052  0.8179  0.4766
21729SOL    HW266321   3.591   6.520   0.346  0.4407 -0.7224  0.5485
21730SOL     OW66322   7.053   5.210   7.753 -0.4074  0.6742  0.4134
21730SOL    HW166323   7.009   5.202   7.837 -0.6625  0.9588  0.3114
21730SOL    HW266324   7.131   5.262   7.771 -0.1299  0.1954  0.5898
21731SOL     OW66325   0.035   3.903   0.786  0.5025 -0.2122 -0.2665
21731SOL    HW166326  -0.050   3.865   0.807  0.6221 -1.9035 -2.5498
21731SOL    HW266327   0.026   3.996   0.808 -1.7620 -0.4567  0.0070
21732SOL     OW66328   6.451   5.016   6.314  0.4186 -0.0113  0.3049
21732SOL    HW166329   6.406   4.936   6.290 -1.3906  0.0222  3.1194
21732SOL    HW266330   6.540   4.988   6.336  0.7219 -0.6917 -1.5709
21733SOL     OW66331   8.022   4.819   5.380 -0.1277  0.4996  0.5379
21733SOL    HW166332   7.944   4.872   5.397  0.8539  2.0009  0.4750
21733SOL    HW266333   8.033   4.767   5.460 -2.6961 -1.8058 -0.4274
21734SOL     OW66334   5.780   6.033   5.048  0.2549 -0.2925 -0.2977
21734SOL    HW166335   5.743   5.997   5.129 -1.4597 -0.4515 -1.0939
21734SOL    HW266336   5.855   6.085   5.076 -0.7794  0.3154  1.4843
21735SOL     OW66337   3.634   0.612   1.220  0.0346 -0.2083 -0.2183
21735SOL    HW166338   3.538   0.611   1.215  0.0316 -1.0660 -0.0673
21735SOL    HW266339   3.655   0.697   1.259 -0.7495 -0.7456  1.4610
21736SOL     OW66340   5.925   2.851   7.949  0.4103  0.5842  0.0526
21736SOL    HW166341   5.883   2.888   7.871 -1.8888 -1.3080  0.2881
21736SOL    HW266342   6.017   2.879   7.942  0.1570  1.0058 -2.9826
21737SOL     OW66343   4.428   0.438   7.606  0.1182  0.3213 -0.1718
21737SOL    HW166344   4.363   0.498   7.573  0.3502  1.0320  0.6271
21737SOL    HW266345   4.442   0.465   7.697  3.1515  1.6801 -0.9040
21738SOL     OW66346   3.317   6.801   1.937  0.3199  0.0996 -0.2835
21738SOL    HW166347   3.405   6.821   1.969 -0.4480  0.0508  2.0785
21738SOL    HW266348   3.292   6.721   1.983 -1.0293  0.1944 -0.7867
21739SOL     OW66349   2.806   8.234   1.126  0.2304  0.1894  0.5715
21739SOL    HW166350   2.782   8.141   1.132 -3.1767  1.0166  2.0926
21739SOL    HW266351   2.841   8.255   1.213 -1.6190  0.8647  1.2028
21740SOL     OW66352   6.938   0.787   5.131 -0.3197 -0.7823  0.0253
21740SOL    HW166353   6.887   0.781   5.212 -0.1859 -2.0979  0.0322
21740SOL    HW266354   6.901   0.863   5.085  0.7155  1.0520  2.0645
21741SOL     OW66355   5.672   6.116   1.696 -0.0599  0.7028 -0.2601
21741SOL    HW166356   5.758   6.140   1.660 -0.6869  0.8574 -1.7299
21741SOL    HW266357   5.627   6.200   1.706  0.4528  0.7593  1.9053
21742SOL     OW66358   7.291   2.249   6.403 -0.2148  0.2634 -0.2896
21742SOL    HW166359   7.296   2.304   6.481  1.6418  0.6940 -0.6655
21742SOL    HW266360   7.359   2.184   6.414  1.1815  1.2895 -2.2047
21743SOL     OW66361   3.322   8.373   5.718  0.1394  0.0092  0.0001
21743SOL    HW166362   3.267   8.451   5.709 -0.3725  0.1025  2.9037
21743SOL    HW266363   3.298   8.337   5.804  1.5038 -2.4641 -0.5652
21744SOL     OW66364   0.882   8.747   6.685  0.2353  0.5803 -0.0193
21744SOL    HW166365   0.798   8.747   6.640  1.6116 -0.1483 -2.8061
21744SOL    HW266366   0.940   8.797   6.627  2.4290 -1.4600  0.2683
21745SOL     OW66367   3.130   1.564   0.084 -0.1840 -0.2204 -0.5856
21745SOL    HW166368   3.080   1.576   0.003  2.3283 -1.5764 -2.5036
21745SOL    HW266369   3.165   1.475   0.077  0.9742  0.0062  1.4935
21746SOL     OW66370   4.500   0.151   6.461 -0.5786  0.3114  0.6006
21746SOL    HW166371   4.559   0.221   6.432  2.3012 -1.6384  1.2234
21746SOL    HW266372   4.472   0.178   6.549  3.3185 -0.6425  2.3653
21747SOL     OW66373   4.567   5.505   6.372 -0.0856 -0.5935  0.0578
21747SOL    HW166374   4.545   5.598   6.372 -0.5496 -0.7031 -0.1851
21747SOL    HW266375   4.641   5.499   6.433  1.7031  0.3453 -1.8934
21748SOL     OW66376   1.196   3.605   4.235  0.5247  0.4111  0.6458
21748SOL    HW166377   1.216   3.673   4.171  1.7457 -1.7616 -1.4406
21748SOL    HW266378   1.110   3.628   4.269 -0.6025  1.2578 -2.4603
21749SOL     OW66379   2.492   0.494   8.156  0.2332 -0.0194 -0.3189
21749SOL    HW166380   2.446   0.410   8.161 -0.3464  0.1340 -2.3302
21749SOL    HW266381   2.554   0.482   8.084  0.8049  0.9837 -0.0020
21750SOL     OW66382   4.131   6.963   1.763 -0.3699 -0.3652  0.1977
21750SOL    HW166383   4.085   6.927   1.839  1.1602  0.2586  1.4622
21750SOL    HW266384   4.176   6.887   1.724 -1.6003 -0.7899 -0.4652
21751SOL     OW66385   1.798   6.034   2.430  0.4264  0.0011  0.2761
21751SOL    HW166386   1.844   6.046   2.347 -0.0377 -1.1651 -0.1668
21751SOL    HW266387   1.706   6.051   2.409  0.1085 -1.6667  0.2060
21752SOL     OW66388   2.134   1.040   6.361  0.3932  0.0242  0.0287
21752SOL    HW166389   2.082   1.008   6.435 -1.1924 -0.1811 -1.1392
21752SOL    HW266390   2.178   1.118   6.395 -1.8799  1.1143  0.6606
21753SOL     OW66391   1.486   2.894   5.988 -0.3814  0.3486  0.4228
21753SOL    HW166392   1.520   2.948   5.917 -0.3989 -0.7588 -0.4411
21753SOL    HW266393   1.392   2.890   5.972 -0.9364  2.8545  2.4322
21754SOL     OW66394   4.345   3.800   8.977  0.2189 -0.6382  0.5183
21754SOL    HW166395   4.361   3.824   9.068  2.3585  0.7526 -0.1531
21754SOL    HW266396   4.430   3.773   8.943 -0.1000  0.6123 -1.5186
21755SOL     OW66397   2.865   7.232   2.823 -0.1641 -0.2941  0.5701
21755SOL    HW166398   2.817   7.156   2.855 -0.1517  0.4891  2.6102
21755SOL    HW266399   2.948   7.231   2.871  0.1870  0.5331  0.0171
21756SOL     OW66400   4.651   7.323   1.429 -0.3577  0.2688  0.3397
21756SOL    HW166401   4.685   7.316   1.339 -0.1174  1.9474  0.2657
21756SOL    HW266402   4.701   7.258   1.478  0.1128 -0.0793 -0.5656
21757SOL     OW66403   6.750   5.779   1.736  0.1549  0.2421  0.2558
21757SOL    HW166404   6.796   5.817   1.661  0.8931 -1.0371  0.0319
21757SOL    HW266405   6.815   5.779   1.806 -0.8696  2.5057  1.3028
21758SOL     OW66406   1.084   0.955   2.326  0.1024 -0.3271  0.3799
21758SOL    HW166407   1.067   1.041   2.287  1.2744 -0.0322  0.4811
21758SOL    HW266408   1.075   0.969   2.420 -0.5748 -0.5274  0.3475
21759SOL     OW66409   0.219   3.923   2.772 -0.2681 -0.2697  0.1794
21759SOL    HW166410   0.189   3.897   2.685  1.1114 -1.4992  0.0277
21759SOL    HW266411   0.294   3.980   2.755  0.3483 -0.9505  0.5492
21760SOL     OW66412   3.064   7.000   5.304 -0.2370 -0.6246  0.2176
21760SOL    HW166413   3.031   6.958   5.383 -1.2050 -1.4148 -0.5684
21760SOL    HW266414   3.044   6.937   5.234  0.2069  0.2385 -0.7046
21761SOL     OW66415   3.293   3.234   0.543 -0.4765 -0.0435 -0.0088
21761SOL    HW166416   3.219   3.292   0.561 -1.1591 -0.7264 -0.4972
21761SOL    HW266417   3.314   3.251   0.451 -0.4514 -0.3002 -0.0519
21762SOL     OW66418   7.251   0.618   1.794  0.4404 -0.4590  0.3936
21762SOL    HW166419   7.200   0.661   1.726 -0.2035 -0.9679  0.5453
21762SOL    HW266420   7.342   0.638   1.773  0.1823  0.4687  0.1245
21763SOL     OW66421   1.050   4.117   7.376  0.4860  0.2839  0.4451
21763SOL    HW166422   1.014   4.055   7.439  0.0256 -1.3830 -1.3490
21763SOL    HW266423   0.980   4.182   7.364 -0.6939 -1.0910 -0.5440
21764SOL     OW66424   8.690   6.803   8.037 -0.0811 -0.1344 -0.1158
21764SOL    HW166425   8.677   6.853   7.957 -0.5147  1.1254  0.7120
21764SOL    HW266426   8.783   6.784   8.039 -0.0435 -0.0462 -0.8409
21765SOL     OW66427   2.996   6.706   3.460 -0.6785 -0.3599  0.0408
21765SOL    HW166428   3.030   6.704   3.550 -1.8799 -2.1872  0.5094
21765SOL    HW266429   2.992   6.614   3.434  1.5676  0.1735 -2.6976
21766SOL     OW66430   3.011   8.467   5.889  0.1360  0.3792 -0.3097
21766SOL    HW166431   3.033   8.403   5.957 -1.0289 -0.6685 -0.8743
21766SOL    HW266432   2.940   8.518   5.927 -1.7655 -1.3732 -1.3207
21767SOL     OW66433   8.346   2.928   1.650  0.0341  0.4565  0.1705
21767SOL    HW166434   8.310   2.916   1.563 -3.9756 -0.5821  1.7432
21767SOL    HW266435   8.396   2.848   1.667 -0.5329 -0.0619 -0.5607
21768SOL     OW66436   7.679   4.318   7.529 -0.3780  0.3304 -0.3425
21768SOL    HW166437   7.660   4.233   7.569 -1.1800  1.0366  0.8284
21768SOL    HW266438   7.632   4.317   7.446 -1.3589  0.0662  0.2023
21769SOL     OW66439   6.334   4.188   5.809  0.7753 -0.2228  0.7942
21769SOL    HW166440   6.262   4.132   5.839  0.5002  1.0563  2.6848
21769SOL    HW266441   6.396   4.127   5.768 -1.9491 -1.1988 -2.2664
21770SOL     OW66442   1.850   7.241   5.709 -0.4148  0.0528  0.2083
21770SOL    HW166443   1.811   7.291   5.637  0.8820  0.4069 -0.2894
21770SOL    HW266444   1.846   7.300   5.784 -2.0216 -0.4171  0.5234
21771SOL     OW66445   4.696   3.604   5.173 -0.0308 -0.5998 -0.8254
21771SOL    HW166446   4.702   3.653   5.255  2.5707 -1.4360 -0.4207
21771SOL    HW266447   4.602   3.597   5.156 -0.8256 -2.1030  3.1120
21772SOL     OW66448   2.276   6.936   5.639 -0.2680 -0.1584  0.8312
21772SOL    HW166449   2.192   6.970   5.670 -0.7210  0.9266 -1.3983
21772SOL    HW266450   2.270   6.842   5.652 -0.8293  0.1038  2.9126
21773SOL     OW66451   3.071   2.164   7.630  0.1041 -0.4125 -0.7224
21773SOL    HW166452   3.016   2.090   7.604  0.2040 -1.5873  2.1188
21773SOL    HW266453   3.017   2.241   7.614 -2.3085 -1.4996  1.5314
21774SOL     OW66454   5.196   7.079   2.249 -0.7059  0.0601  0.1820
21774SOL    HW166455   5.277   7.089   2.199 -0.7509  1.1826  0.3064
21774SOL    HW266456   5.144   7.016   2.200 -0.4305  0.5637 -0.7733
21775SOL     OW66457   2.360   9.002   0.994  0.2241  0.2668 -0.4618
21775SOL    HW166458   2.379   9.026   0.903 -0.4283  1.0680 -0.3946
21775SOL    HW266459   2.272   9.035   1.009 -0.7262 -2.1648 -0.3375
21776SOL     OW66460   5.065   8.203   4.585  0.0575 -0.2707 -0.5528
21776SOL    HW166461   5.062   8.162   4.672  0.6993  1.2941  0.2430
21776SOL    HW266462   5.114   8.142   4.531 -0.7042 -1.4680  0.0614
21777SOL     OW66463   8.544   4.413   2.036  0.6166  0.5003  0.5994
21777SOL    HW166464   8.612   4.479   2.026 -0.6758  1.7416 -0.4364
21777SOL    HW266465   8.469   4.460   2.072 -0.4434 -0.3086 -0.4536
21778SOL     OW66466   3.972   0.774   6.665 -0.2701 -0.1859  0.1783
21778SOL    HW166467   3.938   0.809   6.747 -1.3615 -0.6226 -0.0602
21778SOL    HW266468   4.005   0.687   6.688  1.2102  0.4460  0.5135
21779SOL     OW66469   8.163   8.779   3.475 -0.1332  0.4596  0.2765
21779SOL    HW166470   8.141   8.801   3.385 -3.3102  2.7154  1.4396
21779SOL    HW266471   8.218   8.851   3.505  2.4290 -1.1493 -0.2269
21780SOL     OW66472   5.121   5.201   5.930 -0.4795  0.0773 -0.1888
21780SOL    HW166473   5.072   5.215   5.849 -0.2316 -0.2010 -0.3883
21780SOL    HW266474   5.210   5.230   5.910  0.2819 -2.4979 -0.9053
21781SOL     OW66475   4.352   1.754   0.024  0.7044 -0.0436  0.3742
21781SOL    HW166476   4.353   1.849   0.031  3.4640  0.0056  0.5930
21781SOL    HW266477   4.309   1.736  -0.059  0.9815  1.4624 -0.1200
21782SOL     OW66478   2.937   1.711   1.637 -0.2812 -0.0587  0.1285
21782SOL    HW166479   3.031   1.709   1.620 -0.3021 -0.3737  0.0481
21782SOL    HW266480   2.897   1.669   1.561 -0.3407 -1.9057  1.1242
21783SOL     OW66481   5.095   8.960   3.752  0.0977 -0.3008  0.3717
21783SOL    HW166482   5.102   9.049   3.787  0.1354  0.8221 -2.2474
21783SOL    HW266483   5.179   8.946   3.707  0.6772 -2.2737  1.9434
21784SOL     OW66484   7.566   0.295   3.216  0.0779 -0.4206 -0.2774
21784SOL    HW166485   7.529   0.212   3.247 -0.4152  0.6204  2.0922
21784SOL    HW266486   7.490   0.353   3.206  0.7084  0.9170  2.0124
21785SOL     OW66487   7.018   2.989   0.444  0.3798 -0.6033  0.0301
21785SOL    HW166488   7.061   2.914   0.483  1.0792  0.4664  1.4112
21785SOL    HW266489   6.985   3.040   0.519  0.0489  0.5262 -0.8510
21786SOL     OW66490   6.602   0.304   3.630 -0.5616  0.9592  0.2911
21786SOL    HW166491   6.655   0.286   3.552  0.7144  2.0388  0.8614
21786SOL    HW266492   6.514   0.278   3.606  0.4339 -2.3410 -0.1981
21787SOL     OW66493   6.267   4.019   8.063 -0.0370 -0.1610 -0.1137
21787SOL    HW166494   6.347   3.976   8.032 -0.0802 -0.2982 -0.0303
21787SOL    HW266495   6.241   3.970   8.141  0.3900  0.5338  0.4779
21788SOL     OW66496   2.705   2.299   3.309  0.1688  0.2873  0.3865
21788SOL    HW166497   2.668   2.225   3.261 -0.0740  1.2323 -0.9342
21788SOL    HW266498   2.780   2.326   3.256 -0.5629  1.8327  0.1096
21789SOL     OW66499   4.853   6.556   3.981  0.1464 -0.0216 -0.2470
21789SOL    HW166500   4.818   6.469   3.961 -0.5689  0.2222 -0.0894
21789SOL    HW266501   4.889   6.587   3.898  0.6605 -0.5711 -0.2426
21790SOL     OW66502   0.216   2.544   7.010  0.2985 -0.0303  0.4294
21790SOL    HW166503   0.205   2.492   7.090  1.2473 -0.4823  0.2693
21790SOL    HW266504   0.299   2.590   7.022  1.1973 -1.2281 -0.9024
21791SOL     OW66505   4.083   3.769   8.541  0.2642  0.1644 -0.7219
21791SOL    HW166506   4.174   3.762   8.568  0.3261 -1.0879 -1.2063
21791SOL    HW266507   4.079   3.722   8.458 -1.5584 -3.0898  1.0232
21792SOL     OW66508   8.147   2.509   0.284 -0.3251 -0.1817  0.3150
21792SOL    HW166509   8.233   2.471   0.303  0.6490  1.8882  0.3156
21792SOL    HW266510   8.140   2.505   0.189  0.4558  0.9975  0.1947
21793SOL     OW66511   5.126   7.766   8.370 -0.4237 -0.0481  0.0373
21793SOL    HW166512   5.214   7.770   8.407 -0.5538  0.8924  0.2635
21793SOL    HW266513   5.140   7.752   8.276 -0.0676 -1.1558  0.2452
21794SOL     OW66514   4.860   8.577   0.871  0.1105  0.0479  0.0402
21794SOL    HW166515   4.895   8.488   0.880 -0.3729 -0.2620 -1.0248
21794SOL    HW266516   4.934   8.633   0.890  1.0264 -0.5994 -1.4573
21795SOL     OW66517   5.295   2.562   5.181 -0.3609 -0.3419  0.1167
21795SOL    HW166518   5.247   2.545   5.263 -1.1711  0.1704 -0.2426
21795SOL    HW266519   5.363   2.625   5.206 -0.7569 -0.0021  0.3600
21796SOL     OW66520   5.939   2.225   8.872  0.4980  0.4383  0.3216
21796SOL    HW166521   5.964   2.161   8.806  1.6966  0.7585  0.4502
21796SOL    HW266522   5.895   2.295   8.823 -1.3858 -0.7128  0.2458
21797SOL     OW66523   3.926   5.206   4.622 -0.2054  0.0326 -0.4238
21797SOL    HW166524   3.888   5.266   4.558 -0.8214  0.5390  0.3847
21797SOL    HW266525   4.020   5.217   4.613 -0.2246 -0.9138 -2.1644
21798SOL     OW66526   1.531   5.618   6.763 -0.6653  0.0781 -0.2671
21798SOL    HW166527   1.516   5.635   6.856  1.3609 -0.6195  0.2295
21798SOL    HW266528   1.481   5.686   6.718  1.2334  2.8040  1.4375
21799SOL     OW66529   2.926   4.896   7.054 -0.5974 -0.1241 -0.2451
21799SOL    HW166530   2.930   4.989   7.031 -1.3511  0.0905  0.4144
21799SOL    HW266531   3.011   4.861   7.028 -1.2033  0.1683 -2.8687
21800SOL     OW66532   6.403   6.748   8.734  0.3307  0.3138  0.7080
21800SOL    HW166533   6.402   6.748   8.639  2.0861  1.0705  0.6602
21800SOL    HW266534   6.489   6.715   8.758 -0.6041 -1.2975  2.0869
21801SOL     OW66535   6.793   7.361   5.326  0.3792  0.5489  0.3508
21801SOL    HW166536   6.756   7.273   5.325  2.7874 -0.5381  0.2767
21801SOL    HW266537   6.773   7.397   5.239 -0.3479 -0.0365  0.2677
21802SOL     OW66538   6.527   3.868   1.047  0.2289  0.2656 -0.3837
21802SOL    HW166539   6.467   3.840   0.977  1.3702  0.6144 -1.5337
21802SOL    HW266540   6.588   3.928   1.004 -0.0301  1.8094  1.2635
21803SOL     OW66541   2.775   7.171   6.617  0.3160 -0.3293  0.5010
21803SOL    HW166542   2.709   7.166   6.686  0.8642  1.1506  1.1653
21803SOL    HW266543   2.775   7.083   6.578 -2.3458 -0.2534  0.1573
21804SOL     OW66544   2.751   8.202   5.788 -0.1288  0.4462 -0.2318
21804SOL    HW166545   2.708   8.282   5.760  0.3513 -0.1897 -3.1292
21804SOL    HW266546   2.824   8.191   5.726  2.4386 -0.0782  2.6296
21805SOL     OW66547   2.250   5.478   4.717  0.3008  0.7224 -0.2980
21805SOL    HW166548   2.155   5.473   4.705 -0.2485  3.4428  1.8118
21805SOL    HW266549   2.270   5.412   4.783 -0.2971  0.8226 -0.0105
21806SOL     OW66550   7.133   3.689   7.348  0.2603  0.1810 -0.0509
21806SOL    HW166551   7.205   3.645   7.395  1.4443  0.9923 -1.0288
21806SOL    HW266552   7.062   3.625   7.349  1.5093 -1.2848 -0.3848
21807SOL     OW66553   6.852   1.355   8.147  0.1328 -0.2113 -0.6535
21807SOL    HW166554   6.834   1.309   8.065 -2.9978  2.4131 -1.6631
21807SOL    HW266555   6.940   1.391   8.134  0.4908 -1.4609 -2.0069
21808SOL     OW66556   0.467   6.626   5.951 -0.0529 -0.0720 -0.4232
21808SOL    HW166557   0.409   6.663   6.017  1.2830  0.7919  0.3209
21808SOL    HW266558   0.539   6.587   6.002  0.7144  0.1030 -1.3450
21809SOL     OW66559   6.768   8.682   4.922 -0.4860  0.1467  0.4729
21809SOL    HW166560   6.780   8.609   4.861  0.3131 -0.5122  1.3853
21809SOL    HW266561   6.695   8.655   4.977 -0.2925  0.0987  0.7087
21810SOL     OW66562   4.586   3.676   8.921 -0.5689 -0.0676  0.0226
21810SOL    HW166563   4.651   3.606   8.920 -0.9349 -0.4567  1.2380
21810SOL    HW266564   4.628   3.747   8.972 -1.2908 -0.5566  1.3474
21811SOL     OW66565   1.131   1.200   6.066 -0.1805 -0.7521 -0.7223
21811SOL    HW166566   1.087   1.135   6.120 -0.6876  0.3597  0.2668
21811SOL    HW266567   1.214   1.216   6.110 -0.6195  0.1996 -0.2068
21812SOL     OW66568   5.705   6.593   1.349  0.1121 -0.3440  0.3639
21812SOL    HW166569   5.675   6.557   1.266  0.4400  0.6361 -0.1897
21812SOL    HW266570   5.773   6.656   1.325  0.8774 -0.7232  1.4334
21813SOL     OW66571   5.448   0.407   2.023 -0.0540  0.4390 -0.0104
21813SOL    HW166572   5.412   0.467   2.088  3.1329  0.3501  2.0975
21813SOL    HW266573   5.517   0.457   1.979  0.1838 -0.5705 -0.8301
21814SOL     OW66574   3.446   2.981   1.614  0.3333 -0.4090 -0.0435
21814SOL    HW166575   3.469   3.052   1.674  0.3949 -1.5608  1.3404
21814SOL    HW266576   3.371   2.939   1.655 -1.3437  0.3657 -2.1219
21815SOL     OW66577   8.560   8.854   2.070 -0.2323 -0.1673 -0.1483
21815SOL    HW166578   8.600   8.902   1.997  1.1909 -1.0108  0.0180
21815SOL    HW266579   8.517   8.779   2.028  0.3518 -0.5023 -0.1697
21816SOL     OW66580   3.744   7.695   5.878 -0.0216 -0.2809 -0.2784
21816SOL    HW166581   3.766   7.707   5.786  1.0975  3.3956  0.3000
21816SOL    HW266582   3.828   7.679   5.921 -0.2992 -0.1240  0.3408
21817SOL     OW66583   4.430   4.775   8.164  0.3425  0.3063 -0.4248
21817SOL    HW166584   4.519   4.765   8.131  0.3491 -0.6347 -0.1465
21817SOL    HW266585   4.431   4.730   8.249 -0.7736 -1.0535 -1.0885
21818SOL     OW66586   7.416   8.654   8.380 -0.1716  0.7869  0.0940
21818SOL    HW166587   7.367   8.718   8.328  1.0816  0.7474 -1.1711
21818SOL    HW266588   7.379   8.569   8.357  1.2310  0.6299 -1.8136
21819SOL     OW66589   3.286   6.771   2.705  0.3670 -0.3029 -0.3404
21819SOL    HW166590   3.305   6.777   2.611 -2.1243  1.0265 -0.8286
21819SOL    HW266591   3.222   6.700   2.712  1.2554 -1.0441  0.5178
21820SOL     OW66592   3.630   2.052   7.832 -0.6321 -0.0040 -0.7077
21820SOL    HW166593   3.573   2.039   7.908 -0.3443 -2.5572 -0.8401
21820SOL    HW266594   3.599   2.133   7.792 -0.4939  1.7118  2.3368
21821SOL     OW66595   3.654   3.056   7.045 -0.5719 -0.0841 -0.0195
21821SOL    HW166596   3.651   3.090   7.134 -0.4726 -0.1990  0.0286
21821SOL    HW266597   3.563   3.040   7.021 -0.5399 -0.9960  0.4281
21822SOL     OW66598   7.418   6.410   5.947  0.4742  0.6730 -0.4094
21822SOL    HW166599   7.437   6.334   5.892 -0.4469  0.9244 -1.1018
21822SOL    HW266600   7.465   6.482   5.905  0.7719  0.6342 -0.1527
21823SOL     OW66601   4.659   0.924   4.739 -0.1648  0.2037 -0.1455
21823SOL    HW166602   4.669   0.829   4.751 -0.5255  0.2330  0.4252
21823SOL    HW266603   4.679   0.961   4.824  1.0151  0.7411 -0.6366
21824SOL     OW66604   1.132   2.325   6.069  0.1888  0.1127  0.0557
21824SOL    HW166605   1.194   2.254   6.051  0.3043 -0.3979  2.2577
21824SOL    HW266606   1.167   2.369   6.146 -1.6468  0.4220  0.7763
21825SOL     OW66607   7.954   6.781   1.192  0.0702 -0.4824  0.2991
21825SOL    HW166608   7.897   6.730   1.250 -1.8652  0.0472 -1.0691
21825SOL    HW266609   7.905   6.861   1.174  1.0588 -0.1993 -1.2813
21826SOL     OW66610   2.122   3.094   0.128 -0.3275  0.0540  0.2865
21826SOL    HW166611   2.190   3.137   0.179 -0.8924  0.6063  0.5841
21826SOL    HW266612   2.117   3.144   0.046  1.2497 -1.4060 -0.7728
21827SOL     OW66613   7.344   1.486   9.079 -0.3217 -0.1400 -0.3429
21827SOL    HW166614   7.280   1.436   9.129  1.4484 -1.2299  0.9591
21827SOL    HW266615   7.315   1.478   8.988 -0.7432 -2.6767 -0.0757
21828SOL     OW66616   5.861   6.821   3.571  0.3718  0.5267  0.3563
21828SOL    HW166617   5.820   6.755   3.627 -1.7113  1.7947  0.3910
21828SOL    HW266618   5.830   6.800   3.483  2.6367 -0.6896 -0.2485
21829SOL     OW66619   6.820   3.105   2.693  0.5166 -0.3006  0.1235
21829SOL    HW166620   6.826   3.016   2.726  4.0787 -0.2407  0.0283
21829SOL    HW266621   6.793   3.157   2.769 -2.1524 -1.3981  0.0472
21830SOL     OW66622   2.109   7.465   5.729 -1.0063  0.1060 -0.1760
21830SOL    HW166623   2.122   7.538   5.788 -1.1993 -0.8376  1.0714
21830SOL    HW266624   2.196   7.427   5.718 -1.2536 -0.8823  1.0851
21831SOL     OW66625   3.394   6.868   7.227  0.4044  0.0933 -0.1616
21831SOL    HW166626   3.452   6.805   7.270  0.2813  0.7131  0.9348
21831SOL    HW266627   3.368   6.824   7.146  0.3433 -1.2601  0.5595
21832SOL     OW66628   0.700   1.306   7.464 -0.5642 -0.4971 -0.3297
21832SOL    HW166629   0.792   1.278   7.463 -0.7998 -1.2802 -0.9702
21832SOL    HW266630   0.655   1.239   7.515 -1.1002 -1.1874 -1.6784
21833SOL     OW66631   3.992   0.689   7.046  0.4472  0.4631  0.1318
21833SOL    HW166632   3.940   0.644   7.112  1.6917  0.9394  1.4962
21833SOL    HW266633   3.930   0.745   6.999 -0.5670 -0.3705  0.4567
21834SOL     OW66634   7.784   8.139   5.173  0.2706  0.2598 -0.1098
21834SOL    HW166635   7.725   8.069   5.200  0.3372  0.1004 -0.3755
21834SOL    HW266636   7.764   8.211   5.232  0.6622 -0.2008  0.5954
21835SOL     OW66637   3.163   0.826   1.948  0.7468  0.2831  0.3890
21835SOL    HW166638   3.093   0.762   1.964  0.6696 -0.0729 -1.2343
21835SOL    HW266639   3.118   0.901   1.909  0.9552  1.0633  1.5737
21836SOL     OW66640   1.351   6.071   0.716 -0.4492  0.3524  0.4890
21836SOL    HW166641   1.316   6.152   0.752  1.6367  0.0097  3.7004
21836SOL    HW266642   1.408   6.098   0.644  0.1148  1.7718  1.4361
21837SOL     OW66643   4.056   8.061   3.694 -0.1684  0.2596  0.1833
21837SOL    HW166644   4.140   8.098   3.668  1.0364 -2.2967  0.1021
21837SOL    HW266645   3.995   8.090   3.626  1.3799 -0.4666 -1.6021
21838SOL     OW66646   3.044   6.652   0.840  0.0864  0.0383  0.3602
21838SOL    HW166647   3.069   6.745   0.840 -0.5517  0.2193  0.6163
21838SOL    HW266648   3.058   6.624   0.750  1.7445 -0.0353  0.6234
21839SOL     OW66649   0.471   6.838   7.377 -0.3701 -0.7827 -0.3380
21839SOL    HW166650   0.386   6.837   7.422  0.3645  0.7205  1.1772
21839SOL    HW266651   0.532   6.798   7.439  0.5422  0.6840 -0.2364
21840SOL     OW66652   4.044   5.214   6.771  0.6927 -0.3793 -0.6523
21840SOL    HW166653   3.999   5.139   6.808 -2.2297  1.1106 -0.8565
21840SOL    HW266654   4.045   5.279   6.841  1.0806  0.1871 -1.1636
21841SOL     OW66655   4.449   8.268   8.706 -0.0355  0.0582 -0.6030
21841SOL    HW166656   4.399   8.197   8.666 -0.2591 -1.2208  1.7900
21841SOL    HW266657   4.525   8.279   8.649 -2.0648  0.8998 -3.3869
21842SOL     OW66658   8.661   6.943   2.071  0.4449  0.1207 -0.6060
21842SOL    HW166659   8.626   7.020   2.026  0.1466 -0.7168 -1.8618
21842SOL    HW266660   8.584   6.890   2.091  0.4697  0.8041  1.6667
21843SOL     OW66661   5.024   6.328   3.701 -0.6772 -0.3172 -0.0004
21843SOL    HW166662   5.079   6.331   3.779  0.2992  1.4875 -0.6893
21843SOL    HW266663   5.081   6.292   3.633 -1.4989 -1.8060  0.0554
21844SOL     OW66664   7.447   0.579   1.585  0.2970 -0.5782 -0.1935
21844SOL    HW166665   7.526   0.540   1.624  0.7676  0.2893 -0.2327
21844SOL    HW266666   7.480   0.656   1.538 -0.4686 -0.7249 -0.9861
21845SOL     OW66667   5.285   5.587   0.017  0.1496 -0.0316  0.0270
21845SOL    HW166668   5.317   5.509  -0.029  0.7436 -0.0900  0.5235
21845SOL    HW266669   5.272   5.652  -0.052 -2.0956 -1.0958 -0.6499
21846SOL     OW66670   8.320   7.394   5.512 -0.1168  0.3493 -0.4629
21846SOL    HW166671   8.280   7.478   5.489 -2.6032 -0.2623  1.3045
21846SOL    HW266672   8.349   7.406   5.603  1.4519 -0.0867 -0.8730
21847SOL     OW66673   2.883   2.677   2.012 -0.4034 -0.2118  0.3690
21847SOL    HW166674   2.957   2.638   1.966 -1.4733 -0.6159 -1.0902
21847SOL    HW266675   2.912   2.765   2.036 -0.1480  0.4412 -2.1168
21848SOL     OW66676   1.912   2.330   8.233 -0.5406  0.0946 -0.2008
21848SOL    HW166677   1.864   2.268   8.179 -1.4708  1.3242 -0.8436
21848SOL    HW266678   1.990   2.282   8.262 -1.8918 -1.8299  0.4887
21849SOL     OW66679   0.629   8.681   7.828 -0.2259 -0.3409  0.8131
21849SOL    HW166680   0.676   8.698   7.909  0.5684  0.4871  0.2013
21849SOL    HW266681   0.638   8.762   7.777  1.0016 -1.5010 -0.9185
21850SOL     OW66682   1.504   5.666   8.538 -0.4709  0.0487 -0.1709
21850SOL    HW166683   1.499   5.760   8.551 -1.7064  0.4323 -2.7930
21850SOL    HW266684   1.485   5.629   8.625  2.4231  2.1081  1.5196
21851SOL     OW66685   6.112   7.518   2.832  0.0759 -0.4496  0.4634
21851SOL    HW166686   6.075   7.430   2.830 -0.1646 -0.3578 -1.6902
21851SOL    HW266687   6.157   7.528   2.748  0.0269  1.5125  0.6080
21852SOL     OW66688   5.952   1.010   4.963  0.4703  0.3342 -0.2267
21852SOL    HW166689   5.980   1.060   4.886  0.7802 -1.1383 -1.1165
21852SOL    HW266690   5.982   0.921   4.946 -1.6234 -0.5736  0.4558
21853SOL     OW66691   6.638   1.220   7.891 -0.7420  0.4367  0.1217
21853SOL    HW166692   6.591   1.300   7.915 -2.6418 -1.0870  1.8394
21853SOL    HW266693   6.574   1.150   7.902  0.9582 -1.4069 -0.9338
21854SOL     OW66694   6.301   2.554   8.639  0.5135 -0.2779  0.1949
21854SOL    HW166695   6.275   2.599   8.558  1.9171 -2.1031 -1.3827
21854SOL    HW266696   6.388   2.518   8.619  0.9014 -0.7903  2.5511
21855SOL     OW66697   3.524   2.324   8.008  0.4187 -0.4109  0.0502
21855SOL    HW166698   3.489   2.242   8.042 -0.9325  0.3560  0.5944
21855SOL    HW266699   3.542   2.306   7.916  2.3204 -1.9597  0.6375
21856SOL     OW66700   5.880   5.904   0.180  0.0852 -0.3577 -0.8057
21856SOL    HW166701   5.928   5.972   0.228 -1.3542 -1.1685  2.0247
21856SOL    HW266702   5.847   5.846   0.248 -1.4046 -2.1510 -2.9204
21857SOL     OW66703   1.514   1.848   5.862 -0.1891 -0.5174 -0.5872
21857SOL    HW166704   1.470   1.870   5.780  1.3067  0.5372 -1.1494
21857SOL    HW266705   1.548   1.760   5.848  0.5367 -0.1374 -1.3494
21858SOL     OW66706   5.266   3.448   8.769 -0.4892  0.3556 -0.2768
21858SOL    HW166707   5.220   3.404   8.697 -0.3838  0.6931 -0.5508
21858SOL    HW266708   5.198   3.494   8.817 -0.6406 -0.3129  0.1690
21859SOL     OW66709   1.992   3.540   6.766  0.0788  0.0915  0.2003
21859SOL    HW166710   2.004   3.618   6.821 -1.2422 -0.5286  1.4295
21859SOL    HW266711   2.072   3.489   6.779  0.1056  0.3128  0.9658
21860SOL     OW66712   5.423   7.642   2.994  0.1986  0.0549 -0.4307
21860SOL    HW166713   5.359   7.572   2.984  1.7172 -1.2857 -1.3045
21860SOL    HW266714   5.455   7.632   3.084  0.5873 -0.5584 -0.6301
21861SOL     OW66715   8.700   0.362   8.788  0.2569 -0.2890 -0.5140
21861SOL    HW166716   8.699   0.271   8.759  0.3685 -0.1654 -0.9197
21861SOL    HW266717   8.793   0.382   8.801  0.1551 -1.4592  3.6102
21862SOL     OW66718   4.240   4.278   3.472 -0.0770 -0.2571  0.4234
21862SOL    HW166719   4.145   4.278   3.476 -0.0824  0.2799  0.3801
21862SOL    HW266720   4.265   4.186   3.481 -0.6107 -0.4339  0.0874
21863SOL     OW66721   1.223   8.074   8.796 -0.3778 -0.2103  0.0693
21863SOL    HW166722   1.176   8.043   8.873  2.3229  2.4000  3.1025
21863SOL    HW266723   1.309   8.031   8.802  1.0125  2.4110  0.5379
21864SOL     OW66724   5.110   9.033   1.110 -0.5543 -0.3021 -0.1622
21864SOL    HW166725   5.131   8.957   1.164 -0.9512 -0.1624  0.1900
21864SOL    HW266726   5.192   9.053   1.064 -0.0980 -0.1908  0.6745
21865SOL     OW66727   7.485   5.661   3.556  0.4339 -0.1146  0.3542
21865SOL    HW166728   7.423   5.696   3.619 -1.0214 -1.6812 -0.1457
21865SOL    HW266729   7.561   5.635   3.608  0.7798  1.9415  0.9550
21866SOL     OW66730   6.921   3.211   0.620  0.3419  0.8646  0.0186
21866SOL    HW166731   6.974   3.245   0.693  1.1923 -1.3623  0.5265
21866SOL    HW266732   6.856   3.154   0.662 -0.1698  0.7973 -0.8572
21867SOL     OW66733   0.105   1.261   5.843 -0.3926  0.6976  0.0596
21867SOL    HW166734   0.036   1.269   5.909 -3.9430  2.2277 -3.4278
21867SOL    HW266735   0.134   1.352   5.829 -1.3830  0.7321 -1.9969
21868SOL     OW66736   2.114   6.661   7.415  0.3692 -0.4981  0.4934
21868SOL    HW166737   2.094   6.677   7.507  2.0347 -1.9307  1.1537
21868SOL    HW266738   2.028   6.658   7.372 -0.4091  0.6214  1.9000
21869SOL     OW66739   8.348   1.597   1.636 -0.3823  0.6140  0.4494
21869SOL    HW166740   8.394   1.559   1.711  1.3561  1.7690  0.0125
21869SOL    HW266741   8.319   1.683   1.667 -1.6762  0.1922  0.4850
21870SOL     OW66742   7.322   1.443   0.733  0.1903  1.0766 -0.0497
21870SOL    HW166743   7.319   1.352   0.703 -1.1159  1.3308 -0.7543
21870SOL    HW266744   7.231   1.464   0.756  0.5998  1.9772  0.8079
21871SOL     OW66745   8.030   0.951   0.876  0.6497 -0.7472  0.0443
21871SOL    HW166746   8.093   0.900   0.825 -0.2266 -1.8255 -0.0169
21871SOL    HW266747   7.994   0.887   0.938 -0.6181 -0.2490 -0.1542
21872SOL     OW66748   5.648   7.181   5.520  0.6053  0.2169 -0.1881
21872SOL    HW166749   5.674   7.150   5.433  1.5334 -0.6468  0.3611
21872SOL    HW266750   5.730   7.182   5.570 -0.2918 -2.2456  1.5265
21873SOL     OW66751   7.308   2.323   4.754 -0.1366 -0.2506  0.1692
21873SOL    HW166752   7.346   2.411   4.752 -1.1970  0.2171 -0.1140
21873SOL    HW266753   7.292   2.302   4.662  2.0082 -1.6290  0.0210
21874SOL     OW66754   7.172   1.000   2.327  0.1009 -0.4632 -0.4701
21874SOL    HW166755   7.189   0.978   2.419 -0.6992 -0.1788 -0.2503
21874SOL    HW266756   7.232   1.071   2.308 -2.0854  1.9133  0.8962
21875SOL     OW66757   7.761   6.412   8.334  0.2405  0.5851 -0.7162
21875SOL    HW166758   7.756   6.459   8.251 -2.3233  0.5805 -0.6359
21875SOL    HW266759   7.716   6.468   8.397  0.5590 -0.2229  0.2728
21876SOL     OW66760   2.312   6.762   0.955 -0.3018 -1.2738  0.2251
21876SOL    HW166761   2.248   6.811   0.903  1.3696  1.0673  0.1840
21876SOL    HW266762   2.284   6.773   1.045  0.8342  1.2165  0.3621
21877SOL     OW66763   8.123   6.226   3.423 -0.1619 -0.0618 -0.0056
21877SOL    HW166764   8.049   6.166   3.416 -0.1156 -0.1879  0.5847
21877SOL    HW266765   8.084   6.313   3.429 -0.3263 -0.2297  1.7694
21878SOL     OW66766   5.636   2.526   2.423 -0.4000 -0.7308  0.1787
21878SOL    HW166767   5.585   2.479   2.488 -0.6395 -0.6713  0.0342
21878SOL    HW266768   5.571   2.566   2.365 -0.1912 -0.8808 -0.1651
21879SOL     OW66769   1.361   2.896   1.425 -0.4878  0.1900 -0.4094
21879SOL    HW166770   1.305   2.841   1.370 -1.1626 -0.3004  0.7133
21879SOL    HW266771   1.336   2.986   1.403 -1.8304 -0.0203  0.1373
21880SOL     OW66772   5.595   1.039   3.877  0.3165 -0.0975  0.5493
21880SOL    HW166773   5.657   1.047   3.805 -0.0126 -0.0300  0.2743
21880SOL    HW266774   5.648   1.008   3.951  0.7006  0.0840  0.3510
21881SOL     OW66775   4.069   8.249   8.899  0.0493 -0.3723 -0.3735
21881SOL    HW166776   4.068   8.155   8.886  1.1699 -0.2837 -1.3263
21881SOL    HW266777   4.126   8.282   8.829  1.0942  0.8312  0.9856
21882SOL     OW66778   2.787   4.797   6.444 -0.6642 -0.0468 -0.2258
21882SOL    HW166779   2.721   4.840   6.390 -2.4351 -2.0443  0.2308
21882SOL    HW266780   2.741   4.771   6.524  1.0677 -0.1620  0.8090
21883SOL     OW66781   8.948   2.518   7.931 -0.1631 -0.0870 -1.0074
21883SOL    HW166782   9.007   2.471   7.990 -0.0062  0.8700 -0.3907
21883SOL    HW266783   8.936   2.604   7.971 -1.9447 -0.2262 -1.1416
21884SOL     OW66784   7.008   5.240   5.966 -0.2136  0.2082 -0.2385
21884SOL    HW166785   7.035   5.216   6.054  0.8930 -0.9376 -0.8585
21884SOL    HW266786   7.087   5.233   5.913 -1.0207  0.0555 -1.4812
21885SOL     OW66787   6.678   2.639   6.955 -0.2333  0.8648 -0.3640
21885SOL    HW166788   6.593   2.613   6.991  0.7122 -1.0843  0.6215
21885SOL    HW266789   6.697   2.573   6.888  0.8268  0.8205 -0.0337
21886SOL     OW66790   5.529   8.533   0.002 -0.3592 -0.0984  0.3228
21886SOL    HW166791   5.455   8.585   0.035 -0.2950 -1.6539  3.2829
21886SOL    HW266792   5.602   8.595  -0.001 -1.1171  0.8138  0.1582
21887SOL     OW66793   2.871   7.857   8.967 -0.2145 -0.2597 -0.4226
21887SOL    HW166794   2.793   7.912   8.981 -0.1580  0.1838 -1.6801
21887SOL    HW266795   2.924   7.869   9.046 -0.1234  1.6479 -0.7317
21888SOL     OW66796   3.561   1.231   1.168 -0.0118  0.1726  0.3243
21888SOL    HW166797   3.494   1.292   1.196 -0.1258  0.2944 -0.1992
21888SOL    HW266798   3.621   1.225   1.242 -1.7997 -1.7266  1.7444
21889SOL     OW66799   5.601   9.050   2.795  0.1452 -0.0400  0.2017
21889SOL    HW166800   5.635   9.090   2.715  1.6775 -1.0144  0.3194
21889SOL    HW266801   5.518   9.095   2.812  0.5544  1.2448 -1.0692
21890SOL     OW66802   8.705   2.422   1.638 -0.6320  0.0833 -0.3981
21890SOL    HW166803   8.789   2.436   1.593 -0.3736  0.5590  0.2089
21890SOL    HW266804   8.664   2.351   1.590  0.2480 -0.3499 -0.5421
21891SOL     OW66805   1.407   1.560   6.617  0.0001 -0.1913 -0.4069
21891SOL    HW166806   1.405   1.548   6.711  0.5012 -3.1090 -0.6863
21891SOL    HW266807   1.323   1.527   6.586  0.6067 -1.1183 -1.1187
21892SOL     OW66808   6.766   3.080   6.418  0.1761  0.4216 -0.0195
21892SOL    HW166809   6.842   3.134   6.392  0.5515 -0.3979 -0.6463
21892SOL    HW266810   6.690   3.133   6.393  0.5395  0.5699 -0.8574
21893SOL     OW66811   1.573   4.494   0.467  0.3518 -0.4984  0.5939
21893SOL    HW166812   1.524   4.439   0.529 -0.4348  0.4137  0.7976
21893SOL    HW266813   1.634   4.543   0.522 -0.3168  0.2791  0.6575
21894SOL     OW66814   4.591   6.413   1.674  0.0569 -0.2055 -0.4555
21894SOL    HW166815   4.675   6.382   1.639  0.6234 -2.0509  2.2809
21894SOL    HW266816   4.529   6.342   1.654 -0.1744 -0.1673  0.1110
21895SOL     OW66817   7.164   1.813   6.236 -0.1145 -0.0310  0.2228
21895SOL    HW166818   7.093   1.760   6.199 -0.8613  0.7889  0.4591
21895SOL    HW266819   7.121   1.892   6.267  0.9148  0.4864  0.3560
21896SOL     OW66820   5.865   6.015   9.030  0.3627 -0.5867  0.1318
21896SOL    HW166821   5.955   5.985   9.023  1.6529  2.4464  1.9618
21896SOL    HW266822   5.835   5.982   9.115  0.9119  1.0026  0.9810
21897SOL     OW66823   0.964   5.095   2.352 -0.7907  0.0307  0.2412
21897SOL    HW166824   0.915   5.177   2.340  2.0599  1.8336  0.1500
21897SOL    HW266825   0.962   5.052   2.267 -4.0125 -1.1721  0.7527
21898SOL     OW66826   5.487   4.296   5.622  0.0835 -0.1242 -0.4197
21898SOL    HW166827   5.410   4.352   5.633  0.8594  1.4236 -2.3276
21898SOL    HW266828   5.453   4.207   5.630 -1.2028  0.5195  2.6296
21899SOL     OW66829   2.819   6.386   9.023 -0.3184 -0.5379 -0.4172
21899SOL    HW166830   2.844   6.394   8.931 -0.6257  1.1550 -0.3864
21899SOL    HW266831   2.726   6.364   9.021 -0.6041  0.5901 -0.5435
21900SOL     OW66832   2.776   6.499   7.991 -0.0390  0.2389 -0.6845
21900SOL    HW166833   2.822   6.547   8.060  1.9200 -0.3457 -1.5173
21900SOL    HW266834   2.846   6.467   7.934 -1.3890 -2.1442 -1.1093
21901SOL     OW66835   6.871   4.361   7.885 -0.5983  0.3369 -0.1718
21901SOL    HW166836   6.790   4.366   7.937  0.2811  0.8591  1.2037
21901SOL    HW266837   6.905   4.451   7.887 -0.3313  0.2647 -1.3158
21902SOL     OW66838   4.775   2.029   0.521  0.3664  0.0586  0.2541
21902SOL    HW166839   4.835   2.089   0.476  0.5193 -0.5923 -0.4170
21902SOL    HW266840   4.823   1.947   0.527 -0.8614 -0.8123 -1.2837
21903SOL     OW66841   4.742   4.923   6.619 -0.1258  0.3516  0.6928
21903SOL    HW166842   4.784   4.918   6.705  2.8141  0.7376 -0.6295
21903SOL    HW266843   4.747   5.015   6.595  0.2745  0.0420 -0.4567
21904SOL     OW66844   5.338   2.769   8.015 -0.0243 -0.0178 -0.1312
21904SOL    HW166845   5.317   2.730   7.930  0.3641  2.0175 -1.2245
21904SOL    HW266846   5.258   2.761   8.065 -0.6669 -0.1273 -1.1404
21905SOL     OW66847   5.971   5.665   6.466 -0.5424  0.0708  0.2720
21905SOL    HW166848   5.916   5.727   6.514  0.2773  1.7253 -0.8305
21905SOL    HW266849   5.911   5.625   6.403 -1.1905 -0.6663  1.3288
21906SOL     OW66850   0.800   0.324   7.321  0.8154 -0.2108  0.4354
21906SOL    HW166851   0.773   0.395   7.379  0.9881  0.1584  0.0720
21906SOL    HW266852   0.816   0.250   7.379 -2.4245 -0.9477  0.5919
21907SOL     OW66853   2.451   6.748   5.844 -0.0401 -0.1090 -0.0517
21907SOL    HW166854   2.504   6.702   5.778  1.0373  0.7088  0.2065
21907SOL    HW266855   2.374   6.778   5.796  1.0148  0.9964 -1.1311
21908SOL     OW66856   3.120   4.467   1.682 -0.2989 -0.3531  0.1370
21908SOL    HW166857   3.179   4.454   1.756 -0.7734  1.6356  0.9330
21908SOL    HW266858   3.176   4.498   1.611 -0.1347 -0.2107  0.3286
21909SOL     OW66859   2.050   8.280   2.694 -0.1667  0.7574  0.3973
21909SOL    HW166860   2.096   8.269   2.777  0.1812  1.1360  0.2590
21909SOL    HW266861   2.107   8.240   2.629 -1.2308 -1.1061  0.5371
21910SOL     OW66862   6.744   5.877   6.645  0.3950  0.3777 -0.2307
21910SOL    HW166863   6.834   5.847   6.629  1.1982  0.4766  3.2516
21910SOL    HW266864   6.693   5.796   6.650  0.7298  0.1744 -0.0567
21911SOL     OW66865   8.293   8.720   5.641 -0.2737  0.4146  0.3855
21911SOL    HW166866   8.299   8.743   5.733  0.0320 -0.6062  0.6347
21911SOL    HW266867   8.384   8.715   5.611 -0.3579  0.3407  0.1365
21912SOL     OW66868   9.106   9.101   8.653 -0.1250 -1.0175 -0.2319
21912SOL    HW166869   9.052   9.108   8.575  0.2416  0.1275 -0.3978
21912SOL    HW266870   9.062   9.155   8.718  0.2315 -0.9725 -0.0246
21913SOL     OW66871   1.864   1.614   2.507 -0.1981  0.1038  0.2726
21913SOL    HW166872   1.798   1.657   2.453 -0.6637 -0.6083  0.2632
21913SOL    HW266873   1.910   1.686   2.551  0.4004  0.7262 -1.2965
21914SOL     OW66874   8.907   0.341   9.023  0.0524 -0.4194 -0.5231
21914SOL    HW166875   8.874   0.393   9.096 -0.3445 -0.3048 -0.7798
21914SOL    HW266876   9.000   0.362   9.017 -0.2101  0.6483 -0.9520
21915SOL     OW66877   0.122   6.932   9.069 -0.1787  0.1785  0.0996
21915SOL    HW166878   0.102   6.869   9.139 -0.7078 -0.4467 -0.6001
21915SOL    HW266879   0.135   7.015   9.115  1.0746 -0.5313  1.0984
21916SOL     OW66880   6.825   8.577   8.967 -0.0580 -0.1125 -0.0280
21916SOL    HW166881   6.901   8.531   8.933  0.0684  1.1677 -1.5678
21916SOL    HW266882   6.826   8.557   9.061  1.5186 -1.0288 -0.1955
21917SOL     OW66883   6.126   6.247   0.021 -0.5921  0.1052  0.4204
21917SOL    HW166884   6.110   6.250   0.115  1.3163  0.8484  0.7657
21917SOL    HW266885   6.157   6.158   0.004 -3.6800 -1.0027 -0.0791
21918SOL     OW66886   5.787   3.146   2.270  0.5836 -0.7475  0.9680
21918SOL    HW166887   5.854   3.079   2.282  2.6148  1.1501  0.8864
21918SOL    HW266888   5.823   3.204   2.203 -0.4080  1.2017  2.0199
21919SOL     OW66889   0.747   9.114   1.876 -0.6071  0.2636 -0.0521
21919SOL    HW166890   0.675   9.061   1.842 -0.6321 -0.1303  0.5959
21919SOL    HW266891   0.809   9.050   1.911  0.6826  0.5123 -1.7346
21920SOL     OW66892   3.223   0.378   0.651  0.3377 -0.1244  0.4791
21920SOL    HW166893   3.303   0.360   0.602  0.7996  1.5862  0.5559
21920SOL    HW266894   3.253   0.399   0.739 -0.1371  1.0259  0.3810
21921SOL     OW66895   4.607   6.531   7.308  0.2055  0.8767 -0.1054
21921SOL    HW166896   4.520   6.497   7.287  0.3862  0.0807  0.3715
21921SOL    HW266897   4.619   6.510   7.401  1.2405  0.1850 -0.3726
21922SOL     OW66898   4.716   4.511   3.298  1.1279  0.1660 -0.3064
21922SOL    HW166899   4.657   4.553   3.236  1.7336  0.6080 -0.5995
21922SOL    HW266900   4.670   4.513   3.381  1.6923  2.6880  0.0172
21923SOL     OW66901   2.791   3.112   3.022 -0.2364 -0.0757  0.2805
21923SOL    HW166902   2.766   3.089   3.112 -0.0380 -0.0322  0.3475
21923SOL    HW266903   2.870   3.165   3.032  0.8150 -1.5256 -0.0090
21924SOL     OW66904   5.971   4.747   6.381 -0.1648 -0.4816 -0.0602
21924SOL    HW166905   6.056   4.704   6.395  0.0396 -0.1076 -0.1211
21924SOL    HW266906   5.912   4.706   6.444  0.1652 -0.4649  0.2617
21925SOL     OW66907   3.492   6.392   1.243  0.3027 -0.2145  0.7653
21925SOL    HW166908   3.547   6.325   1.203  1.4378  0.5201  1.0575
21925SOL    HW266909   3.406   6.351   1.250  0.4330 -0.8981 -1.0220
21926SOL     OW66910   6.335   2.312   2.680  0.0540  0.2304  0.0025
21926SOL    HW166911   6.349   2.218   2.693 -1.0775  0.0422 -0.0969
21926SOL    HW266912   6.417   2.352   2.710  0.7291 -0.8135 -0.4015
21927SOL     OW66913   7.418   4.354   1.273 -0.3438 -0.2679 -0.2030
21927SOL    HW166914   7.375   4.294   1.212  0.8696 -1.0019 -0.3714
21927SOL    HW266915   7.363   4.433   1.272 -1.8454 -1.2627 -0.1515
21928SOL     OW66916   3.126   6.175   1.624  0.1765 -0.1322 -0.6478
21928SOL    HW166917   3.110   6.094   1.671  2.2309 -0.7179 -0.8554
21928SOL    HW266918   3.039   6.208   1.602 -0.7186 -1.7625  0.2782
21929SOL     OW66919   0.299   8.625   7.540 -0.4694  0.5659  0.4535
21929SOL    HW166920   0.352   8.550   7.513 -2.2713 -0.3120 -0.8134
21929SOL    HW266921   0.353   8.701   7.518  0.2448 -0.2902 -0.9127
21930SOL     OW66922   0.700   7.688   1.381 -0.1011  0.0105  0.6005
21930SOL    HW166923   0.715   7.765   1.326 -1.0088 -0.5537 -0.4838
21930SOL    HW266924   0.788   7.654   1.398  0.2512  0.6701  0.1855
21931SOL     OW66925   2.199   1.003   2.732  0.1321  0.7909  0.5313
21931SOL    HW166926   2.128   0.982   2.670  0.3615  0.9849  0.2043
21931SOL    HW266927   2.223   0.918   2.769  0.4678  0.5811 -0.1576
21932SOL     OW66928   7.047   0.733   3.374 -0.1567  0.4432 -0.1419
21932SOL    HW166929   7.092   0.764   3.295 -0.3810 -0.9012 -0.8143
21932SOL    HW266930   6.958   0.768   3.365  0.4663  2.4532  0.8128
21933SOL     OW66931   3.623   6.997   0.652  0.1564  0.2027  0.1960
21933SOL    HW166932   3.678   7.049   0.711  0.9724 -0.2030 -0.1936
21933SOL    HW266933   3.606   6.916   0.701 -0.9186  0.7004  0.7056
21934SOL     OW66934   4.795   8.006   8.866 -0.0142 -0.2762 -0.1108
21934SOL    HW166935   4.779   7.975   8.956  0.2620 -0.8494 -0.2545
21934SOL    HW266936   4.778   7.930   8.811 -0.3237  0.1150 -0.5621
21935SOL     OW66937   3.844   6.621   1.668  0.1494 -0.0120 -0.1934
21935SOL    HW166938   3.912   6.660   1.723  0.0325  1.8282 -1.2681
21935SOL    HW266939   3.880   6.626   1.579 -0.8748 -0.1485 -0.6232
21936SOL     OW66940   8.059   3.146   4.882  0.1943  0.5436  0.1087
21936SOL    HW166941   7.976   3.190   4.901  0.9995  1.6377  1.3139
21936SOL    HW266942   8.077   3.167   4.791 -0.0716  1.6618  0.3033
21937SOL     OW66943   2.569   8.665   4.573 -0.0455  0.3513 -0.1428
21937SOL    HW166944   2.491   8.711   4.604 -0.2170 -0.0827  0.0833
21937SOL    HW266945   2.621   8.649   4.652  0.0555  0.2380 -0.2311
21938SOL     OW66946   7.621   2.109   1.256 -0.2639 -0.0036  0.2880
21938SOL    HW166947   7.587   2.020   1.262 -0.6655  0.2535  2.1968
21938SOL    HW266948   7.716   2.098   1.260 -0.3340 -0.3070  1.7680
21939SOL     OW66949   4.383   3.690   6.189 -0.5910  0.6426  0.0109
21939SOL    HW166950   4.310   3.749   6.173 -0.5701  0.4833 -0.7069
21939SOL    HW266951   4.349   3.627   6.252 -0.8081  1.0566  0.3108
21940SOL     OW66952   1.779   8.679   7.316  0.2066 -0.3682  0.5954
21940SOL    HW166953   1.866   8.640   7.328  0.4688  0.0661  0.1228
21940SOL    HW266954   1.793   8.773   7.326  0.1900 -0.0922 -1.6576
21941SOL     OW66955   0.947   3.636   6.336 -0.2872  0.4035  0.3611
21941SOL    HW166956   1.005   3.639   6.412 -1.0462  0.6100  0.9394
21941SOL    HW266957   0.971   3.713   6.284 -0.0078  0.4533  0.5628
21942SOL     OW66958   0.399   5.524   4.053 -0.8566 -0.4929  0.2630
21942SOL    HW166959   0.422   5.480   4.135  2.5630 -0.6081 -0.5836
21942SOL    HW266960   0.371   5.454   3.995  2.9796 -1.6222 -0.5513
21943SOL     OW66961   6.050   4.832   7.373 -0.2382  0.1108 -0.5125
21943SOL    HW166962   5.982   4.896   7.352 -0.5446 -0.0450 -0.0091
21943SOL    HW266963   6.123   4.856   7.316 -1.1623 -0.5346 -2.0451
21944SOL     OW66964   4.911   2.696   3.759 -0.2405  0.2168 -0.1228
21944SOL    HW166965   4.875   2.763   3.701 -0.2291 -0.4220 -0.8732
21944SOL    HW266966   5.003   2.721   3.770 -0.7340  1.5923  1.4310
21945SOL     OW66967   6.677   1.589   7.365  0.0005 -0.2196 -0.4185
21945SOL    HW166968   6.706   1.507   7.404 -1.7215 -1.2722 -1.2303
21945SOL    HW266969   6.666   1.648   7.440  1.3981 -0.6504  0.1592
21946SOL     OW66970   7.237   5.768   4.253 -0.2242  0.0030  0.0500
21946SOL    HW166971   7.223   5.678   4.283  0.6727 -0.0113  0.4613
21946SOL    HW266972   7.272   5.814   4.330 -0.2620  0.5933 -0.2781
21947SOL     OW66973   3.268   6.417   7.857 -0.0399  0.2393  0.0073
21947SOL    HW166974   3.224   6.472   7.921  0.4336  2.7712 -1.6769
21947SOL    HW266975   3.340   6.377   7.905 -0.3381  1.1796  1.3002
21948SOL     OW66976   8.563   8.641   4.826  0.0570 -0.2751 -0.1965
21948SOL    HW166977   8.647   8.654   4.782  0.2055 -0.4422  0.0376
21948SOL    HW266978   8.499   8.684   4.768  0.4441  0.8980  0.2133
21949SOL     OW66979   5.743   0.091   4.806 -0.7940  0.3885  0.3846
21949SOL    HW166980   5.751   0.055   4.894 -1.2520  1.6850  0.9968
21949SOL    HW266981   5.683   0.165   4.816  1.0289  2.1030 -0.5167
21950SOL     OW66982   2.785   5.268   8.509  0.3548  0.4707 -0.2068
21950SOL    HW166983   2.772   5.173   8.509  2.3097  0.1557 -1.0228
21950SOL    HW266984   2.844   5.285   8.435 -3.1971  2.8777 -2.8018
21951SOL     OW66985   2.584   2.998   8.083  0.1867 -0.2163  0.6375
21951SOL    HW166986   2.601   3.087   8.115  1.2330 -0.3402  0.4454
21951SOL    HW266987   2.493   2.981   8.108 -0.0144  0.8896  0.7158
21952SOL     OW66988   4.593   7.276   8.501  0.4697  0.2268  0.5190
21952SOL    HW166989   4.634   7.272   8.588  1.7616 -2.1579 -0.0926
21952SOL    HW266990   4.667   7.281   8.441 -0.3004 -0.3102 -0.5040
21953SOL     OW66991   3.577   6.663   4.070  0.3133 -0.4404 -0.1629
21953SOL    HW166992   3.528   6.705   3.998  0.6751 -0.0910 -0.2083
21953SOL    HW266993   3.665   6.698   4.062  0.6277 -1.2265 -0.2021
21954SOL     OW66994   2.104   4.905   6.567 -0.3788  0.2642 -0.4001
21954SOL    HW166995   2.096   4.998   6.544 -0.8396  0.2661 -0.2469
21954SOL    HW266996   2.038   4.892   6.636 -1.0386 -0.4157 -1.1436
21955SOL     OW66997   3.776   6.487   2.524  0.1266 -0.2236 -0.1298
21955SOL    HW166998   3.854   6.498   2.577 -0.4065 -0.8836  0.8211
21955SOL    HW266999   3.776   6.394   2.499  0.7747  0.2307 -1.9592
21956SOL     OW67000   4.177   5.323   9.093 -0.1518  0.0234 -0.0618
21956SOL    HW167001   4.099   5.359   9.134 -0.5532  0.5686 -1.2732
21956SOL    HW267002   4.177   5.359   9.004  1.3360 -0.1719 -0.1705
21957SOL     OW67003   3.885   2.520   0.698 -0.4850  0.5619  0.0314
21957SOL    HW167004   3.868   2.451   0.634  0.0061 -0.5889  1.0845
21957SOL    HW267005   3.972   2.500   0.732  0.1241  2.3432 -0.3862
21958SOL     OW67006   5.530   8.919   3.518  0.1361 -0.3126  0.1328
21958SOL    HW167007   5.538   9.010   3.546  1.8977 -0.5590  0.5934
21958SOL    HW267008   5.600   8.908   3.453 -1.3795 -0.8064 -1.4797
21959SOL     OW67009   1.817   1.624   8.080  0.1338 -0.0064 -0.1937
21959SOL    HW167010   1.781   1.667   8.003 -0.9428 -2.7151 -1.3477
21959SOL    HW267011   1.866   1.550   8.046 -0.6491 -1.4974  1.6847
21960SOL     OW67012   2.167   4.894   2.386  0.3720  0.0490 -0.0659
21960SOL    HW167013   2.097   4.874   2.448 -0.5537 -1.4288 -1.5086
21960SOL    HW267014   2.130   4.960   2.328  1.0848  1.1031  0.6280
21961SOL     OW67015   2.236   7.232   6.313  0.9176  0.1786 -0.4467
21961SOL    HW167016   2.272   7.150   6.348 -0.0261  0.4519  1.2334
21961SOL    HW267017   2.246   7.223   6.218  1.7619 -1.4435 -0.2405
21962SOL     OW67018   3.972   8.274   6.863 -0.2030 -0.5461  0.3657
21962SOL    HW167019   3.995   8.204   6.925  0.9634  0.9480  1.7063
21962SOL    HW267020   3.883   8.252   6.834 -1.6407 -0.3490  4.0519
21963SOL     OW67021   5.707   2.497   2.113  0.8588 -0.1458  0.0120
21963SOL    HW167022   5.764   2.437   2.065 -0.6633 -2.4131  0.8526
21963SOL    HW267023   5.718   2.470   2.205  0.2743  1.0156  0.4340
21964SOL     OW67024   2.320   2.886   2.706 -0.0064 -0.2150  0.3123
21964SOL    HW167025   2.292   2.821   2.642 -0.3285 -1.2039  1.4152
21964SOL    HW267026   2.242   2.939   2.722  0.3092  0.5859 -0.7327
21965SOL     OW67027   3.248   6.420   3.773  0.8253 -0.3218  0.3520
21965SOL    HW167028   3.340   6.448   3.777  0.8587 -0.4200  0.2722
21965SOL    HW267029   3.226   6.424   3.680  0.7937 -0.4412  0.3541
21966SOL     OW67030   8.914   0.601   2.966 -0.0393 -0.3127  0.6115
21966SOL    HW167031   8.934   0.576   2.876 -0.1838 -0.3246  0.5817
21966SOL    HW267032   8.901   0.695   2.963 -0.9236 -0.4351  0.4513
21967SOL     OW67033   8.851   4.784   4.387 -0.6040 -0.3363  0.1135
21967SOL    HW167034   8.919   4.741   4.440  0.5553  1.7046  0.3844
21967SOL    HW267035   8.832   4.721   4.317  1.9270 -0.8217 -0.2398
21968SOL     OW67036   7.570   4.760   8.437 -0.2642 -0.0499 -0.4509
21968SOL    HW167037   7.509   4.690   8.411  0.1357 -1.3545  1.8417
21968SOL    HW267038   7.656   4.719   8.435 -0.0256  0.3257  0.9920
21969SOL     OW67039   1.808   0.974   7.417 -0.4194  0.8319 -0.1892
21969SOL    HW167040   1.764   0.923   7.485  1.7612  0.4373  1.0238
21969SOL    HW267041   1.767   1.060   7.420 -0.5670  0.7323  1.4636
21970SOL     OW67042   3.438   1.918   4.052  0.3809 -0.0617  0.1112
21970SOL    HW167043   3.374   1.896   3.985 -0.1338 -0.5430  0.7401
21970SOL    HW267044   3.438   2.014   4.054 -2.1999  0.0192  1.7800
21971SOL     OW67045   4.616   2.239   4.901 -0.0187  0.2228 -0.0146
21971SOL    HW167046   4.592   2.146   4.900 -0.8052  0.3871  1.2068
21971SOL    HW267047   4.707   2.240   4.929 -0.2618 -0.1492  0.8183
21972SOL     OW67048   8.574   2.791   3.239  0.1815 -0.2333  0.1734
21972SOL    HW167049   8.479   2.802   3.226  0.3482 -0.0577 -1.0481
21972SOL    HW267050   8.608   2.880   3.244  0.6796 -0.1413 -2.9048
21973SOL     OW67051   2.051   6.999   6.536  0.1431  0.0607  0.5182
21973SOL    HW167052   1.976   7.031   6.486  1.4712  0.9519 -0.9904
21973SOL    HW267053   2.073   7.071   6.595  0.3613  0.1519  0.3256
21974SOL     OW67054   0.065   8.692   5.168  0.0147  0.0726  0.1627
21974SOL    HW167055   0.095   8.778   5.137 -2.2129  2.1931  3.2259
21974SOL    HW267056  -0.028   8.705   5.187  0.1001 -2.3175  2.8112
21975SOL     OW67057   0.422   6.622   4.638  0.2137  0.2757  0.5712
21975SOL    HW167058   0.331   6.600   4.661  0.4982 -0.9077  0.6500
21975SOL    HW267059   0.420   6.631   4.543  0.1534 -0.5769  0.4779
21976SOL     OW67060   1.911   4.604   4.125  0.2937  0.3100  0.7293
21976SOL    HW167061   1.828   4.572   4.159 -0.1178  1.0259  0.4211
21976SOL    HW267062   1.967   4.615   4.202 -0.3179  1.0222  1.0869
21977SOL     OW67063   5.092   3.346   5.827 -0.1100  0.3927  0.1332
21977SOL    HW167064   5.051   3.370   5.910  0.2653 -2.9031  1.4042
21977SOL    HW267065   5.170   3.401   5.822 -0.2364  0.7745  1.8969
21978SOL     OW67066   3.791   4.550   7.940  0.2773  0.0093  0.3499
21978SOL    HW167067   3.718   4.608   7.963  0.9883  0.8852  0.4253
21978SOL    HW267068   3.820   4.581   7.854  0.9970  0.0928  0.6251
21979SOL     OW67069   0.507   0.928   0.107  0.0861 -0.2212  0.2148
21979SOL    HW167070   0.583   0.898   0.058 -0.2854  2.7725 -2.5074
21979SOL    HW267071   0.432   0.888   0.062 -0.2530  2.4890 -1.8404
21980SOL     OW67072   7.992   7.381   7.734 -0.2202  0.3356  0.1857
21980SOL    HW167073   8.052   7.445   7.696 -0.6566  0.0974 -0.9428
21980SOL    HW267074   7.905   7.412   7.708 -0.3722 -1.9552 -2.5575
21981SOL     OW67075   1.034   5.573   4.854  0.3225  0.0183  0.4172
21981SOL    HW167076   1.011   5.511   4.784 -0.5376 -0.4433  1.0882
21981SOL    HW267077   1.060   5.653   4.808 -0.2151 -0.2835 -0.4310
21982SOL     OW67078   8.289   5.645   3.121  0.0687  0.0265 -0.4668
21982SOL    HW167079   8.375   5.607   3.138  0.2480  0.1129 -1.1729
21982SOL    HW267080   8.236   5.616   3.196  0.6799 -0.0965 -0.0682
21983SOL     OW67081   1.928   8.423   5.564 -0.3920  0.1450 -0.1231
21983SOL    HW167082   1.904   8.514   5.580 -0.0167  0.1044  0.7480
21983SOL    HW267083   2.015   8.414   5.603 -1.0134 -0.9470  1.1368
21984SOL     OW67084   2.340   8.361   5.128 -0.2462  0.1195 -0.0806
21984SOL    HW167085   2.319   8.270   5.106  3.0758 -0.7918 -0.0176
21984SOL    HW267086   2.311   8.370   5.219 -0.4361 -0.9688 -0.0090
21985SOL     OW67087   7.065   3.290   0.847  0.2288  0.3763  0.3338
21985SOL    HW167088   7.093   3.374   0.883  1.1375 -0.2896  1.2363
21985SOL    HW267089   7.145   3.237   0.846 -0.5395 -0.8345  0.8112
21986SOL     OW67090   8.882   0.986   6.170  0.7246 -0.2013 -0.1343
21986SOL    HW167091   8.810   1.043   6.144  1.7742  1.3425  0.1616
21986SOL    HW267092   8.918   1.027   6.249  3.8319  0.9043 -1.9456
21987SOL     OW67093   3.385   7.596   5.186  0.4787  0.2034 -0.0880
21987SOL    HW167094   3.441   7.659   5.141 -0.6957  1.9344  0.7783
21987SOL    HW267095   3.444   7.550   5.245  1.3473  0.5196 -0.6841
21988SOL     OW67096   3.615   7.747   6.963  0.2873 -0.2751  0.3684
21988SOL    HW167097   3.581   7.833   6.989  0.9089  0.6330 -1.6296
21988SOL    HW267098   3.549   7.712   6.903  1.4293  0.2176 -1.2472
21989SOL     OW67099   6.712   0.930   7.708 -0.4014  0.3116 -0.1230
21989SOL    HW167100   6.620   0.914   7.687 -0.0178 -1.7944 -0.4515
21989SOL    HW267101   6.747   0.843   7.726  1.8292  0.9295 -1.2437
21990SOL     OW67102   8.528   5.269   3.609 -0.5574  0.0392 -0.3649
21990SOL    HW167103   8.505   5.182   3.577 -0.7335 -0.8570  2.0362
21990SOL    HW267104   8.447   5.304   3.644 -0.4030  1.0364 -0.9688
21991SOL     OW67105   6.967   3.858   4.239  0.1498  0.5113  0.2327
21991SOL    HW167106   6.962   3.766   4.264  0.9058  0.4993  0.3716
21991SOL    HW267107   6.904   3.902   4.295 -0.5939  0.0092 -0.1912
21992SOL     OW67108   5.902   6.268   2.667  0.1738 -0.1349 -0.1467
21992SOL    HW167109   5.918   6.210   2.741 -2.1189 -0.7834 -0.0626
21992SOL    HW267110   5.903   6.211   2.590 -1.2517 -0.1764 -0.1587
21993SOL     OW67111   4.818   3.528   2.459 -0.1157  0.3724  0.0944
21993SOL    HW167112   4.834   3.604   2.516  0.6654  0.4969 -0.2671
21993SOL    HW267113   4.906   3.496   2.437 -0.4406 -0.5823  0.1630
21994SOL     OW67114   6.305   0.450   8.225 -0.2113  0.5170 -0.5952
21994SOL    HW167115   6.277   0.530   8.270  0.6353  0.1587  0.6319
21994SOL    HW267116   6.225   0.397   8.219 -0.5615  1.0247 -0.4968
21995SOL     OW67117   8.171   8.495   0.877  0.0186 -0.1252 -1.0497
21995SOL    HW167118   8.247   8.463   0.925 -0.0414  1.6037  0.2650
21995SOL    HW267119   8.160   8.432   0.806  0.5180 -2.3957  0.7738
21996SOL     OW67120   4.915   3.231   8.214 -0.2437  0.4269 -0.2013
21996SOL    HW167121   4.990   3.290   8.220 -0.2447  0.3673  0.4936
21996SOL    HW267122   4.848   3.271   8.269 -0.6592  0.3863 -0.6740
21997SOL     OW67123   3.481   7.039   6.084  0.3054 -0.4794 -0.2330
21997SOL    HW167124   3.495   7.118   6.032 -0.8569 -0.2004 -0.1393
21997SOL    HW267125   3.566   7.021   6.124  0.5042  0.8997 -0.0085
21998SOL     OW67126   1.344   3.058   6.778  0.1927 -0.3727  0.3592
21998SOL    HW167127   1.387   3.096   6.701 -0.1297 -1.4780 -0.3771
21998SOL    HW267128   1.279   3.124   6.803  0.5135  0.1367 -0.1145
21999SOL     OW67129   8.940   2.370   4.528 -0.2155 -0.4227  0.4919
21999SOL    HW167130   9.000   2.363   4.454 -0.7942  2.7132 -0.4261
21999SOL    HW267131   8.954   2.458   4.563 -3.1150 -0.1438  1.2301
22000SOL     OW67132   4.626   5.582   1.942 -0.0082 -0.1435  0.4275
22000SOL    HW167133   4.582   5.507   1.902 -0.6062 -0.2441  1.2571
22000SOL    HW267134   4.612   5.572   2.036  0.8118  0.4441  0.6305
22001SOL     OW67135   4.326   1.165   8.207 -0.0954 -0.1338  0.1371
22001SOL    HW167136   4.413   1.130   8.188 -0.3845 -0.4080 -0.7438
22001SOL    HW267137   4.287   1.178   8.121  0.8158  4.6197  0.1734
22002SOL     OW67138   2.631   7.167   0.380  0.2094 -0.1109 -0.4847
22002SOL    HW167139   2.707   7.114   0.357  0.8817  0.6108  0.0243
22002SOL    HW267140   2.565   7.103   0.408  0.4028 -0.7866 -1.5261
22003SOL     OW67141   3.356   3.170   1.952  0.1953  0.1865  0.0872
22003SOL    HW167142   3.423   3.228   1.988  0.0661  0.6558 -0.4245
22003SOL    HW267143   3.405   3.095   1.918  0.3959  0.1802  0.3863
22004SOL     OW67144   2.643   4.303   7.637 -0.2770  0.1358  0.5517
22004SOL    HW167145   2.694   4.243   7.583  0.7777  0.7625  0.8271
22004SOL    HW267146   2.578   4.248   7.680  0.4838 -0.7590  0.5763
22005SOL     OW67147   6.720   5.394   3.264  0.6674  0.3157 -0.2648
22005SOL    HW167148   6.731   5.314   3.316  0.5148  1.3927  1.5375
22005SOL    HW267149   6.783   5.386   3.194  1.2542 -1.0067  0.3697
22006SOL     OW67150   4.440   1.689   2.467 -0.1364 -0.0493  0.1040
22006SOL    HW167151   4.525   1.653   2.490  0.2918  1.3558  0.8270
22006SOL    HW267152   4.389   1.613   2.438  0.9393 -1.1065  0.8810
22007SOL     OW67153   6.067   0.929   5.203  0.3459  0.2261 -0.8165
22007SOL    HW167154   6.054   0.995   5.271  0.5170 -0.6715  0.1146
22007SOL    HW267155   6.022   0.964   5.127  0.2279  1.3041 -0.2702
22008SOL     OW67156   4.418   4.692   0.659 -0.8406  0.1052  0.1030
22008SOL    HW167157   4.383   4.702   0.748  0.7187  2.1468  0.5566
22008SOL    HW267158   4.511   4.712   0.667 -0.3753 -0.9706 -1.8020
22009SOL     OW67159   4.230   5.771   5.559 -0.8865  0.0614  0.5360
22009SOL    HW167160   4.214   5.682   5.527 -0.5153 -0.1665  0.9879
22009SOL    HW267161   4.143   5.802   5.585 -0.8253 -0.6633  1.6502
22010SOL     OW67162   7.018   6.553   3.925  0.0572  0.3230 -0.5326
22010SOL    HW167163   7.029   6.647   3.912  0.4506  0.3304 -0.1785
22010SOL    HW267164   7.014   6.542   4.020  2.8096 -0.2865 -0.3967
22011SOL     OW67165   8.107   0.503   6.075  0.5036 -0.0541  0.3392
22011SOL    HW167166   8.103   0.417   6.031 -0.9140  0.5863 -0.8876
22011SOL    HW267167   8.120   0.482   6.167  3.6608 -1.4740 -0.2714
22012SOL     OW67168   1.732   2.221   8.976 -0.1466  0.1382  0.2586
22012SOL    HW167169   1.637   2.212   8.973 -0.1011 -0.9476  1.2267
22012SOL    HW267170   1.765   2.132   8.966  0.8372  0.6357 -1.3752
22013SOL     OW67171   4.079   0.593   3.621  0.0437  0.4124  0.2720
22013SOL    HW167172   4.170   0.598   3.592  0.0039  1.2858  0.2707
22013SOL    HW267173   4.081   0.536   3.697  0.5480  0.1885  0.0949
22014SOL     OW67174   5.203   7.508   3.037 -0.5837 -0.0499 -0.5838
22014SOL    HW167175   5.155   7.579   3.080  0.8892  0.0122  1.0656
22014SOL    HW267176   5.152   7.429   3.059 -0.5253  0.1330  0.2623
22015SOL     OW67177   3.615   4.512   1.979  0.1274 -0.1046 -0.1316
22015SOL    HW167178   3.598   4.524   1.886  0.7030 -0.9070 -0.3558
22015SOL    HW267179   3.707   4.486   1.983 -0.1345 -0.9918  0.5695
22016SOL     OW67180   0.948   2.351   7.208  0.8508  0.1246 -0.1114
22016SOL    HW167181   1.020   2.297   7.175 -0.1354 -0.5250 -1.2906
22016SOL    HW267182   0.982   2.391   7.287  2.5208 -0.1379 -0.6660
22017SOL     OW67183   9.048   3.523   8.220  0.1211  0.2590  0.3777
22017SOL    HW167184   9.105   3.589   8.180  0.0416 -0.6055 -1.2852
22017SOL    HW267185   8.960   3.547   8.191 -0.2611  0.9135  1.9698
22018SOL     OW67186   7.637   6.671   4.959 -0.3878  0.4455  0.2392
22018SOL    HW167187   7.564   6.722   4.923  0.4481  0.6523 -1.2598
22018SOL    HW267188   7.595   6.601   5.009 -1.7064 -0.5735 -2.1331
22019SOL     OW67189   5.669   7.968   5.130  0.1268 -0.2320 -0.1199
22019SOL    HW167190   5.755   7.926   5.141  0.4171  0.8806  2.7684
22019SOL    HW267191   5.683   8.035   5.064  1.7851  0.5353  0.9350
22020SOL     OW67192   3.042   3.775   4.756  0.5390 -0.0008  0.4672
22020SOL    HW167193   3.017   3.731   4.674  1.0073  0.1583  0.2351
22020SOL    HW267194   3.116   3.830   4.731  0.8201 -0.1165  1.0532
22021SOL     OW67195   8.902   4.803   7.332  0.5223 -0.5302  0.1453
22021SOL    HW167196   8.840   4.839   7.269  0.0352 -0.6845  0.5343
22021SOL    HW267197   8.936   4.724   7.290  0.0334 -0.7544  0.1669
22022SOL     OW67198   5.619   6.652   0.459 -0.7801 -0.3364  0.0569
22022SOL    HW167199   5.683   6.634   0.389 -0.0924  0.5150  0.4341
22022SOL    HW267200   5.555   6.710   0.418  0.1701  0.9856  0.3577
22023SOL     OW67201   5.000   0.306   3.238  0.3229  0.4429  0.4843
22023SOL    HW167202   5.066   0.357   3.190  1.0519 -0.7916  0.1486
22023SOL    HW267203   4.917   0.330   3.195  0.6624  1.2096  0.2188
22024SOL     OW67204   3.131   8.903   3.144  0.2275  0.5775  0.1278
22024SOL    HW167205   3.200   8.943   3.091 -0.1943  0.6095 -0.4085
22024SOL    HW267206   3.127   8.812   3.113 -0.1668  0.6525 -0.0528
22025SOL     OW67207   6.443   4.038   8.394  0.6006 -0.0611 -0.1903
22025SOL    HW167208   6.427   4.131   8.383 -1.7708 -0.3010  0.7901
22025SOL    HW267209   6.370   3.994   8.350  0.3733 -1.3646  1.3649
22026SOL     OW67210   6.058   0.210   2.794  0.1339 -0.3597 -0.8077
22026SOL    HW167211   6.060   0.126   2.749 -1.7184 -0.7345 -0.2680
22026SOL    HW267212   6.020   0.270   2.730 -1.3141 -0.6149 -0.2213
22027SOL     OW67213   0.450   0.962   5.536 -0.1403  0.1826 -0.7655
22027SOL    HW167214   0.479   0.903   5.606 -0.6482 -1.4471 -1.8746
22027SOL    HW267215   0.414   1.037   5.582  1.3069  0.0499  0.6951
22028SOL     OW67216   2.934   1.797   3.208  0.4833  0.9747 -0.7585
22028SOL    HW167217   2.910   1.707   3.231  0.8309  1.7243  3.2437
22028SOL    HW267218   2.854   1.835   3.172 -0.2070 -0.4131 -0.7525
22029SOL     OW67219   8.738   1.294   6.653 -0.4346 -0.9994 -0.1936
22029SOL    HW167220   8.672   1.307   6.585 -0.7353  0.8214  0.3911
22029SOL    HW267221   8.727   1.369   6.712  1.1831 -1.4334  0.7195
22030SOL     OW67222   2.943   4.735   6.016 -0.2787 -0.0625 -0.1982
22030SOL    HW167223   2.944   4.652   5.969  3.5564 -0.4764  0.3271
22030SOL    HW267224   2.997   4.721   6.093  1.3570  3.1039 -0.5794
22031SOL     OW67225   5.727   8.842   6.030  0.8195 -0.2364  0.0239
22031SOL    HW167226   5.716   8.837   6.125  0.2883 -1.8980 -0.0907
22031SOL    HW267227   5.787   8.770   6.009 -0.3000 -0.8982 -1.0479
22032SOL     OW67228   3.628   4.441   0.853 -0.5792 -0.0843  0.3768
22032SOL    HW167229   3.674   4.418   0.934  3.2311 -1.7654 -1.9904
22032SOL    HW267230   3.651   4.532   0.838 -1.6153  0.3525  1.2986
22033SOL     OW67231   0.578   0.242   5.869  0.0732 -0.0368 -0.2798
22033SOL    HW167232   0.669   0.271   5.872  0.7838 -1.5140 -3.3023
22033SOL    HW267233   0.528   0.320   5.847  1.2050  0.0695 -2.7214
22034SOL     OW67234   0.879   5.052   0.472  0.0803 -0.1039 -0.4016
22034SOL    HW167235   0.919   5.006   0.546  0.2756  0.4434 -0.1620
22034SOL    HW267236   0.945   5.115   0.445 -0.2336  0.1166 -0.6533
22035SOL     OW67237   7.642   3.805   7.420  0.4284  0.3005 -0.4615
22035SOL    HW167238   7.720   3.861   7.425  0.9389 -0.2672 -1.7048
22035SOL    HW267239   7.675   3.717   7.436 -0.0097  0.0919 -0.7002
22036SOL     OW67240   7.400   3.880   7.483 -0.5237 -0.5076 -0.3937
22036SOL    HW167241   7.365   3.954   7.434 -2.0965 -0.0735  1.2780
22036SOL    HW267242   7.491   3.873   7.455 -0.3463  2.0201 -0.6410
22037SOL     OW67243   4.375   8.325   5.541  0.4928 -0.5325  0.3890
22037SOL    HW167244   4.350   8.337   5.450  0.1921 -1.4437  0.3433
22037SOL    HW267245   4.459   8.279   5.537  0.1770 -1.1390  0.5666
22038SOL     OW67246   8.776   2.757   2.780 -0.0873 -0.0274 -0.7296
22038SOL    HW167247   8.695   2.721   2.743 -0.7666  0.1534  0.5392
22038SOL    HW267248   8.814   2.684   2.829 -0.4534  0.3967  0.2116
22039SOL     OW67249   0.239   2.243   8.076  0.4687 -1.1710  0.6687
22039SOL    HW167250   0.319   2.293   8.089  0.4037 -0.7300 -0.4840
22039SOL    HW267251   0.205   2.227   8.164  2.0762 -1.8116  1.1999
22040SOL     OW67252   6.977   7.109   5.176 -0.3076  0.3246  0.1922
22040SOL    HW167253   6.916   7.154   5.117 -0.7886 -0.4426  0.0954
22040SOL    HW267254   7.041   7.068   5.118  0.6593  1.5781  0.3076
22041SOL     OW67255   3.628   5.929   8.057  0.1149  0.5117  0.0675
22041SOL    HW167256   3.632   6.008   8.003 -0.9998  0.1794 -0.5350
22041SOL    HW267257   3.563   5.949   8.124  0.6631  0.5099  0.6071
22042SOL     OW67258   2.604   8.660   1.051 -0.4166  0.7402 -0.4745
22042SOL    HW167259   2.564   8.718   1.116 -2.0922 -0.8384 -0.0293
22042SOL    HW267260   2.659   8.718   0.998 -0.0845  2.3086  1.4508
22043SOL     OW67261   7.308   5.027   5.565  0.2822 -0.5321 -0.5589
22043SOL    HW167262   7.256   4.974   5.505 -0.5200  1.1355 -1.4255
22043SOL    HW267263   7.264   5.112   5.567  2.3072  0.6003 -0.4239
22044SOL     OW67264   3.800   9.065   1.825 -0.0802 -0.3555  0.1484
22044SOL    HW167265   3.764   9.039   1.910  1.9560 -0.6218  1.0006
22044SOL    HW267266   3.888   9.098   1.846  0.1094  0.4832 -1.7652
22045SOL     OW67267   8.221   5.657   6.540 -0.1391 -0.0904 -0.2152
22045SOL    HW167268   8.197   5.643   6.632 -1.1620 -1.4261 -0.6689
22045SOL    HW267269   8.281   5.585   6.520  1.4844  1.1749 -0.1388
22046SOL     OW67270   2.571   8.865   0.299 -0.1679  0.1196  0.3792
22046SOL    HW167271   2.517   8.928   0.250  0.4251  0.0715 -0.3527
22046SOL    HW267272   2.648   8.916   0.326  1.4891 -0.7752 -2.2370
22047SOL     OW67273   5.064   2.364   6.262  0.0271 -0.2759  0.2369
22047SOL    HW167274   5.048   2.309   6.185 -0.1182 -0.5369  0.4497
22047SOL    HW267275   5.129   2.315   6.313 -2.4555 -1.9461  2.0758
22048SOL     OW67276   6.923   0.606   8.315 -0.4087 -0.1604 -0.2655
22048SOL    HW167277   6.862   0.664   8.268 -0.6267  0.1172  0.3493
22048SOL    HW267278   6.898   0.518   8.287 -1.4343 -0.0816  0.3566
22049SOL     OW67279   3.652   7.782   3.729 -0.3905 -0.1694  0.5756
22049SOL    HW167280   3.646   7.741   3.816 -1.3822  1.8057  1.5223
22049SOL    HW267281   3.630   7.874   3.745  0.5682  0.4957 -1.6129
22050SOL     OW67282   5.483   8.902   0.464 -0.0467 -0.1120 -0.8323
22050SOL    HW167283   5.554   8.942   0.415  0.2172 -0.1985 -0.5258
22050SOL    HW267284   5.500   8.807   0.458 -0.9728 -0.2292 -2.0210
22051SOL     OW67285   5.405   3.087   0.486  0.1036  0.5852 -0.0725
22051SOL    HW167286   5.411   3.113   0.578 -0.5428  0.5468 -0.0107
22051SOL    HW267287   5.408   3.170   0.437  0.8381  0.5795 -0.0440
22052SOL     OW67288   3.753   5.447   7.179  0.2440 -0.0906  0.2763
22052SOL    HW167289   3.802   5.381   7.129 -1.4017 -1.0424 -0.1614
22052SOL    HW267290   3.697   5.489   7.114 -2.8952 -2.2384  1.3407
22053SOL     OW67291   1.244   0.751   7.110 -0.7312 -0.3959 -0.3640
22053SOL    HW167292   1.203   0.813   7.170  1.5710 -0.7455  1.7117
22053SOL    HW267293   1.289   0.806   7.046  1.0867  0.1962  1.3180
22054SOL     OW67294   8.997   1.146   6.363  0.3962 -0.0923  0.6384
22054SOL    HW167295   8.946   1.223   6.389  0.2117  0.4104 -1.0733
22054SOL    HW267296   9.087   1.167   6.389  0.0536 -0.1553  1.9419
22055SOL     OW67297   0.558   3.194   3.949 -0.1803 -0.0343  0.2655
22055SOL    HW167298   0.649   3.216   3.970 -1.0006  2.4407  1.5573
22055SOL    HW267299   0.519   3.276   3.919 -1.8962 -1.1535 -0.7443
22056SOL     OW67300   0.702   2.880   1.005 -0.0601  0.1055 -0.7042
22056SOL    HW167301   0.788   2.888   1.045  1.1839 -0.5131 -3.0277
22056SOL    HW267302   0.705   2.939   0.929 -2.3095  1.3006  0.0303
22057SOL     OW67303   7.988   2.712   5.051 -0.0394  0.1064 -0.7811
22057SOL    HW167304   7.909   2.668   5.081 -1.8007  0.6690 -4.1601
22057SOL    HW267305   8.050   2.703   5.124 -3.0040 -0.7527  1.8349
22058SOL     OW67306   6.876   5.110   3.956  0.5801 -0.5330 -0.4367
22058SOL    HW167307   6.894   5.079   4.045 -1.6125  0.0753  0.2680
22058SOL    HW267308   6.919   5.195   3.950 -0.8877  0.3432  0.7857
22059SOL     OW67309   4.575   3.390   8.719  0.3664 -0.1254 -0.8273
22059SOL    HW167310   4.621   3.435   8.789 -1.9905 -0.0076  0.7312
22059SOL    HW267311   4.626   3.310   8.705  1.3089  0.2221  0.4639
22060SOL     OW67312   4.120   6.304   3.624  0.1424 -0.2850  0.2223
22060SOL    HW167313   4.190   6.331   3.684 -1.8644  0.3582  2.4280
22060SOL    HW267314   4.039   6.318   3.674 -1.5079 -2.3211 -1.6886
22061SOL     OW67315   3.209   4.727   4.350  0.1234 -0.1160  0.3902
22061SOL    HW167316   3.184   4.818   4.365  2.0882  0.3497  1.1258
22061SOL    HW267317   3.126   4.680   4.342 -0.9327  1.5154  1.3236
22062SOL     OW67318   7.162   2.013   5.034 -0.2135  0.6034  0.6501
22062SOL    HW167319   7.189   2.033   5.124  2.7086  1.2979 -0.2517
22062SOL    HW267320   7.097   1.944   5.043 -2.0816  2.5205  3.3723
22063SOL     OW67321   6.785   3.310   0.911  0.3920 -0.1934  1.0376
22063SOL    HW167322   6.864   3.255   0.907  0.6539  0.2152  0.5718
22063SOL    HW267323   6.718   3.252   0.947  0.7349 -0.7407  0.8141
22064SOL     OW67324   0.351   3.747   3.935  0.0895 -0.0234 -0.1529
22064SOL    HW167325   0.270   3.792   3.911 -0.2535  0.8651  2.4268
22064SOL    HW267326   0.336   3.715   4.024  1.4796 -2.5927 -0.7349
22065SOL     OW67327   8.424   3.928   6.191  0.2233  0.0939 -0.0850
22065SOL    HW167328   8.363   3.867   6.233  2.0633 -0.8723  1.3422
22065SOL    HW267329   8.483   3.955   6.261  1.2127  1.2996 -1.3185
22066SOL     OW67330   7.315   5.221   1.999 -0.0633  0.1934 -0.7219
22066SOL    HW167331   7.391   5.187   1.952 -0.2584  0.0671 -0.9554
22066SOL    HW267332   7.260   5.144   2.014  0.5203  0.0397  0.7399
22067SOL     OW67333   8.869   1.331   1.835 -0.5390  0.2805  0.0908
22067SOL    HW167334   8.858   1.425   1.845  0.6077  0.4162  0.2773
22067SOL    HW267335   8.823   1.293   1.909  1.0864  0.8543  1.4544
22068SOL     OW67336   5.242   8.384   4.920 -0.5779  0.5206 -0.1145
22068SOL    HW167337   5.326   8.352   4.888 -0.1144  1.5413  0.0450
22068SOL    HW267338   5.193   8.406   4.841 -0.3588  0.7568 -0.1843
22069SOL     OW67339   1.784   6.428   5.947 -0.1446 -0.3397  0.1822
22069SOL    HW167340   1.818   6.339   5.956 -0.2049 -0.2999  0.9371
22069SOL    HW267341   1.793   6.465   6.035 -2.8087 -0.5703  0.6199
22070SOL     OW67342   8.740   6.408   3.876  0.6917 -0.9030  0.4923
22070SOL    HW167343   8.713   6.395   3.967  1.7057 -0.7180  0.8284
22070SOL    HW267344   8.767   6.321   3.847  2.2810 -0.6161  1.0201
22071SOL     OW67345   8.757   7.258   8.885 -0.2975 -0.2551  0.0946
22071SOL    HW167346   8.837   7.230   8.842  0.0826 -0.8938  1.1779
22071SOL    HW267347   8.776   7.249   8.979 -1.8851 -1.1557  0.3667
22072SOL     OW67348   1.317   3.466   0.810  0.1860  0.1098  0.6218
22072SOL    HW167349   1.403   3.500   0.837  0.2055 -0.6089  1.4880
22072SOL    HW267350   1.255   3.530   0.845  0.3667  0.8711 -0.3833
22073SOL     OW67351   7.584   8.760   4.076 -0.7619  0.8387  0.0834
22073SOL    HW167352   7.497   8.720   4.069 -0.7662  0.9437 -0.4935
22073SOL    HW267353   7.574   8.845   4.033 -0.1561  0.5030 -0.7350
22074SOL     OW67354   6.537   3.896   2.888  0.6640 -0.0630  0.3534
22074SOL    HW167355   6.584   3.977   2.870  0.1059  0.1579 -0.1380
22074SOL    HW267356   6.445   3.917   2.872  0.5180 -0.8077  0.1505
22075SOL     OW67357   7.280   5.630   4.733 -0.0595  0.2347  0.6422
22075SOL    HW167358   7.286   5.698   4.666  0.6262 -2.3566 -2.1917
22075SOL    HW267359   7.187   5.606   4.735 -0.5268  1.9173  2.5288
22076SOL     OW67360   5.178   8.892   4.588  0.3742 -0.6098 -0.0789
22076SOL    HW167361   5.233   8.828   4.633 -0.4318 -0.5337  1.0440
22076SOL    HW267362   5.089   8.874   4.619 -0.0890  0.0270 -0.9738
22077SOL     OW67363   5.070   4.849   0.807 -0.1393 -0.3552 -0.4210
22077SOL    HW167364   5.131   4.886   0.743 -0.5563  0.8482 -0.1379
22077SOL    HW267365   5.011   4.921   0.829  0.5735 -0.4060  2.0326
22078SOL     OW67366   8.814   3.685   4.414  0.7182  0.2612 -0.0569
22078SOL    HW167367   8.806   3.696   4.319  0.2843  1.7508  0.1349
22078SOL    HW267368   8.788   3.594   4.429  0.3185  0.1451 -1.3131
22079SOL     OW67369   2.593   7.317   9.014  0.2242 -0.1292  0.0385
22079SOL    HW167370   2.623   7.360   8.934 -0.9233 -1.1206 -0.9607
22079SOL    HW267371   2.657   7.248   9.029  0.6275  0.2679  0.1795
22080SOL     OW67372   8.650   1.805   4.787  0.5025 -0.3059 -0.3422
22080SOL    HW167373   8.665   1.833   4.697  1.9742 -1.1132 -0.3879
22080SOL    HW267374   8.608   1.719   4.779 -2.5151  1.0389 -0.2052
22081SOL     OW67375   1.432   3.923   5.132 -0.3892 -0.2054  0.0945
22081SOL    HW167376   1.437   3.847   5.190  1.4118  0.3335  0.7026
22081SOL    HW267377   1.339   3.930   5.110 -1.1412 -0.5288  2.7892
22082SOL     OW67378   5.044   4.310   5.831  0.9763 -0.4176  0.8166
22082SOL    HW167379   4.951   4.323   5.846  0.8198  0.0977 -0.4937
22082SOL    HW267380   5.052   4.216   5.812  1.0608 -0.9119  2.9891
22083SOL     OW67381   2.680   0.270   7.449 -0.1675 -0.3465 -0.1056
22083SOL    HW167382   2.771   0.250   7.428  0.0192 -2.4511  2.2556
22083SOL    HW267383   2.686   0.338   7.516 -0.3803  0.0619 -0.4978
22084SOL     OW67384   4.912   8.803   2.009  0.3062 -0.4760  0.8383
22084SOL    HW167385   4.954   8.760   2.084  1.2218  1.4214  1.4805
22084SOL    HW267386   4.963   8.883   1.996  1.4420 -1.6319 -3.0907
22085SOL     OW67387   2.865   0.263   2.776 -0.4888 -0.3206  0.0310
22085SOL    HW167388   2.862   0.251   2.681  4.6476 -0.6743 -0.3833
22085SOL    HW267389   2.795   0.207   2.809 -1.3157 -1.6183 -3.4703
22086SOL     OW67390   6.779   1.357   6.856 -0.4709 -0.0428 -0.4872
22086SOL    HW167391   6.784   1.387   6.947  0.5308 -0.4577 -0.3942
22086SOL    HW267392   6.800   1.435   6.804  0.4205 -0.1466 -0.3008
22087SOL     OW67393   4.358   3.217   8.360  0.0532 -0.0877 -0.1384
22087SOL    HW167394   4.454   3.215   8.364  0.0556 -1.2082 -0.2858
22087SOL    HW267395   4.330   3.224   8.451  0.2782  0.1925 -0.0911
22088SOL     OW67396   8.665   8.989   6.921 -0.4516 -0.0655  0.5593
22088SOL    HW167397   8.720   9.023   6.850 -1.1160 -0.3995 -0.1317
22088SOL    HW267398   8.683   9.046   6.995  0.2978  0.2607  0.1376
22089SOL     OW67399   2.312   1.632   8.706 -0.0140  0.4395 -0.1495
22089SOL    HW167400   2.229   1.590   8.731 -0.3480  0.4693 -1.1272
22089SOL    HW267401   2.374   1.559   8.699 -0.1971  0.2957 -0.3153
22090SOL     OW67402   8.947   2.319   7.771 -0.2992 -0.5006  0.7290
22090SOL    HW167403   8.951   2.395   7.829  1.6393  0.0754 -0.0941
22090SOL    HW267404   9.021   2.265   7.796 -0.0057 -0.7255 -0.5222
22091SOL     OW67405   0.707   8.931   0.345 -0.0130 -0.2685 -0.1660
22091SOL    HW167406   0.766   9.005   0.345 -0.2461 -0.0684 -1.0766
22091SOL    HW267407   0.628   8.962   0.390  0.6091 -0.5856  1.1837
22092SOL     OW67408   7.554   1.841   1.263 -0.4947  0.5647 -0.3269
22092SOL    HW167409   7.464   1.812   1.271 -1.0095  2.4537  1.6709
22092SOL    HW267410   7.593   1.824   1.349  0.6194  1.1028 -0.6984
22093SOL     OW67411   2.600   7.548   7.429  0.7246 -0.1928  0.2254
22093SOL    HW167412   2.537   7.482   7.401 -0.9632  1.5714 -0.3568
22093SOL    HW267413   2.571   7.575   7.516  2.1730 -1.0943  1.0229
22094SOL     OW67414   7.121   7.066   2.209 -0.2257  0.1514 -0.6050
22094SOL    HW167415   7.084   6.983   2.178  0.7216 -0.0561 -1.2654
22094SOL    HW267416   7.177   7.041   2.282 -0.5043  0.3035 -0.3422
22095SOL     OW67417   7.466   5.701   7.905 -0.5200 -0.3976 -0.1149
22095SOL    HW167418   7.499   5.760   7.972  2.4651 -1.2228 -0.7253
22095SOL    HW267419   7.387   5.663   7.944  0.1369  0.4449  2.2148
22096SOL     OW67420   7.224   7.632   3.447  0.1499 -0.0722  0.1165
22096SOL    HW167421   7.241   7.717   3.488 -0.6747 -0.2039  0.7495
22096SOL    HW267422   7.196   7.655   3.358  1.3827  0.2387 -0.2096
22097SOL     OW67423   3.638   4.892   0.875 -0.6734  0.3429  0.3228
22097SOL    HW167424   3.692   4.971   0.881  0.8595 -0.7165  1.4860
22097SOL    HW267425   3.549   4.924   0.861  0.1898  2.1686 -1.4025
22098SOL     OW67426   0.911   5.685   6.795 -0.6421 -0.0473  0.4294
22098SOL    HW167427   0.833   5.631   6.799  0.4044 -1.7092 -0.6180
22098SOL    HW267428   0.913   5.719   6.706 -0.9742  1.3084  0.9050
22099SOL     OW67429   8.059   0.117   8.776  0.6760 -0.1856  0.3310
22099SOL    HW167430   8.008   0.039   8.753 -1.8786  1.0845  1.2828
22099SOL    HW267431   8.093   0.098   8.864  1.6863 -0.9456 -0.2100
22100SOL     OW67432   4.915   4.351   0.434  0.2687 -0.1824  0.3560
22100SOL    HW167433   4.899   4.304   0.352  0.3716  1.0441 -0.3927
22100SOL    HW267434   4.955   4.434   0.407  2.6019 -0.7472  1.8084
22101SOL     OW67435   1.748   5.394   2.484 -0.0796 -0.0684 -0.1579
22101SOL    HW167436   1.679   5.358   2.428 -0.3952 -2.3793  1.5438
22101SOL    HW267437   1.701   5.434   2.557  0.3323 -1.1277  0.7118
22102SOL     OW67438   7.037   3.866   0.551  0.0852  0.2996  0.7975
22102SOL    HW167439   7.108   3.882   0.613 -0.3515 -0.5687  1.5573
22102SOL    HW267440   7.019   3.772   0.560  0.7220 -0.0936 -1.4389
22103SOL     OW67441   6.091   7.660   7.554 -0.1689 -0.1881 -0.0269
22103SOL    HW167442   6.082   7.629   7.644 -0.0446 -0.0546  0.0319
22103SOL    HW267443   6.156   7.602   7.515  0.4068  0.2861  0.2176
22104SOL     OW67444   0.279   0.435   6.740 -0.1805  0.0576 -0.7923
22104SOL    HW167445   0.187   0.407   6.748 -0.4407  0.6999 -1.4560
22104SOL    HW267446   0.308   0.396   6.658 -0.2650  0.9600 -1.2553
22105SOL     OW67447   1.014   2.216   5.799 -0.0225 -0.0632 -0.0917
22105SOL    HW167448   1.030   2.248   5.888 -1.0171  0.3166 -0.0338
22105SOL    HW267449   0.968   2.288   5.755 -0.2765 -0.5583 -0.6623
22106SOL     OW67450   2.033   6.339   8.933 -0.1969  0.1774 -0.3581
22106SOL    HW167451   2.063   6.290   9.009 -0.1396  0.5850 -0.1177
22106SOL    HW267452   2.103   6.403   8.916 -0.0063 -0.1893 -1.0111
22107SOL     OW67453   5.838   0.994   4.035 -0.5619  0.5110  0.0148
22107SOL    HW167454   5.827   1.087   4.053 -2.3352  0.3147  0.0814
22107SOL    HW267455   5.933   0.982   4.028 -0.1767  1.9178  2.0663
22108SOL     OW67456   3.514   7.452   7.610 -0.0646 -0.1674  0.3049
22108SOL    HW167457   3.454   7.489   7.674  1.0697  0.1502  1.2240
22108SOL    HW267458   3.601   7.470   7.645  0.6095  0.0263 -1.3329
22109SOL     OW67459   0.103   1.642   8.350  0.2152 -0.5926 -0.0085
22109SOL    HW167460   0.186   1.657   8.304  0.5937 -0.7224  0.6295
22109SOL    HW267461   0.113   1.557   8.391 -0.4375 -0.8451 -0.3519
22110SOL     OW67462   6.510   0.268   1.366  0.2025  0.4081 -0.5507
22110SOL    HW167463   6.600   0.237   1.365 -0.5364 -2.5242  2.8755
22110SOL    HW267464   6.493   0.291   1.457 -2.6955  0.0451 -0.8949
22111SOL     OW67465   6.686   5.628   0.340 -0.2889 -0.2775  0.0904
22111SOL    HW167466   6.594   5.632   0.364  0.0567  0.2305  1.3624
22111SOL    HW267467   6.696   5.695   0.272 -1.0849 -1.1563 -0.9469
22112SOL     OW67468   3.506   8.857   8.043  0.2914 -0.4785  0.5478
22112SOL    HW167469   3.485   8.841   8.135 -0.7732 -3.0472 -0.0449
22112SOL    HW267470   3.422   8.874   8.001  0.6224 -0.4968 -0.1348
22113SOL     OW67471   8.218   2.148   8.579 -0.2225  0.2722 -0.1550
22113SOL    HW167472   8.213   2.060   8.544 -0.3982 -0.1072  0.7931
22113SOL    HW267473   8.285   2.192   8.526  0.5058 -0.7017 -0.0571
22114SOL     OW67474   4.205   6.698   5.399  0.4548  0.4242  0.0095
22114SOL    HW167475   4.160   6.663   5.477  2.9914 -0.7922  1.0296
22114SOL    HW267476   4.268   6.761   5.434  2.0783 -0.6065 -0.9424
22115SOL     OW67477   6.305   3.609   6.785  0.0769 -0.1887  0.3759
22115SOL    HW167478   6.214   3.578   6.796  0.5343 -1.5901  0.4629
22115SOL    HW267479   6.346   3.543   6.729  0.7435  1.0685 -0.6666
22116SOL     OW67480   4.278   2.836   8.786 -0.0545 -0.4543 -0.1763
22116SOL    HW167481   4.221   2.765   8.755 -0.4661  0.6279 -2.0250
22116SOL    HW267482   4.364   2.815   8.749  0.4388 -1.2512  1.3241
22117SOL     OW67483   8.250   1.612   8.892  0.5729 -0.1199  0.2676
22117SOL    HW167484   8.235   1.676   8.961 -2.0078 -1.5572  1.1780
22117SOL    HW267485   8.200   1.645   8.817 -1.3450 -1.3073  0.9581
22118SOL     OW67486   7.814   6.019   8.290 -0.5093  0.0691 -0.1384
22118SOL    HW167487   7.807   6.047   8.381 -0.1958  0.4407 -0.2264
22118SOL    HW267488   7.857   5.934   8.294  1.3596  0.9864 -0.0656
22119SOL     OW67489   8.327   1.014   1.706 -0.4597 -0.3862  0.4544
22119SOL    HW167490   8.364   1.081   1.648 -2.2955  0.3995  0.1396
22119SOL    HW267491   8.293   1.062   1.781  0.0519 -1.1998  1.2337
22120SOL     OW67492   1.714   3.175   4.330  0.2754 -0.4107 -0.3332
22120SOL    HW167493   1.639   3.220   4.369  1.3418  1.4353 -0.3085
22120SOL    HW267494   1.675   3.104   4.279 -1.6054  1.1919 -1.2938
22121SOL     OW67495   4.153   6.348   4.287  0.1697 -0.1172  1.0795
22121SOL    HW167496   4.169   6.443   4.282  0.6336 -0.2644 -1.7476
22121SOL    HW267497   4.240   6.309   4.280 -0.2129 -0.7306 -3.8829
22122SOL     OW67498   5.715   4.130   8.943  0.0670  0.1058  0.1276
22122SOL    HW167499   5.668   4.047   8.945  1.3179 -0.6234  0.4030
22122SOL    HW267500   5.773   4.123   8.867  0.7790  0.3766  0.6352
22123SOL     OW67501   4.801   2.593   3.498  0.2893 -0.1275  0.2461
22123SOL    HW167502   4.840   2.669   3.457 -1.1201  0.7023  0.3557
22123SOL    HW267503   4.842   2.588   3.585 -0.4403  1.2469  0.7016
22124SOL     OW67504   1.205   3.764   0.624  0.1406  0.0732 -0.0835
22124SOL    HW167505   1.244   3.721   0.548 -0.5865 -1.9686  0.6140
22124SOL    HW267506   1.277   3.776   0.685  0.2862 -0.6911 -0.0899
22125SOL     OW67507   7.268   3.602   4.761  0.4161 -0.2371 -0.2485
22125SOL    HW167508   7.247   3.658   4.686  1.0217 -0.0787 -0.3063
22125SOL    HW267509   7.184   3.564   4.787  0.1967 -0.2633 -0.9840
22126SOL     OW67510   6.864   7.798   0.187  0.2063  0.6970 -0.0978
22126SOL    HW167511   6.908   7.759   0.263 -1.6548  1.4530  1.4504
22126SOL    HW267512   6.803   7.731   0.158 -1.3693  1.5349  1.1392
22127SOL     OW67513   7.211   0.340   1.370 -0.1331 -0.4013 -0.1434
22127SOL    HW167514   7.129   0.384   1.392 -0.3305 -0.7993 -0.0810
22127SOL    HW267515   7.207   0.331   1.274 -0.0017 -0.0995 -0.1755
22128SOL     OW67516   6.559   7.906   7.373 -0.6063 -0.0985 -1.0253
22128SOL    HW167517   6.501   7.896   7.449 -0.7013  0.7766 -0.9769
22128SOL    HW267518   6.509   7.869   7.300 -0.0670 -1.9878 -0.4895
22129SOL     OW67519   0.914   5.293   4.724  0.2809 -0.1770 -0.6540
22129SOL    HW167520   0.843   5.266   4.781  1.8732 -0.6330  1.2357
22129SOL    HW267521   0.895   5.384   4.703  0.3084  0.4676  1.7855
22130SOL     OW67522   8.365   2.102   6.444  0.0358  0.0649 -0.1199
22130SOL    HW167523   8.441   2.139   6.401  1.3841 -2.2032  0.1381
22130SOL    HW267524   8.290   2.136   6.396  1.1826  2.2893 -0.4333
22131SOL     OW67525   3.959   5.987   6.534 -0.2727 -0.0249 -1.0748
22131SOL    HW167526   3.882   5.935   6.554  0.7854 -1.4951 -0.6483
22131SOL    HW267527   3.996   6.010   6.619  0.6021 -0.6776 -1.2556
22132SOL     OW67528   1.979   0.605   7.057  0.4860  0.3325  0.5943
22132SOL    HW167529   1.912   0.651   7.109 -0.1976  0.3573 -0.2847
22132SOL    HW267530   1.999   0.527   7.108 -1.3405 -0.4538  0.1850
22133SOL     OW67531   2.109   6.474   3.324  0.1080 -0.3604  0.1978
22133SOL    HW167532   2.045   6.448   3.257  1.0060 -1.7554 -0.1621
22133SOL    HW267533   2.125   6.394   3.373 -0.4192  0.6102  2.0325
22134SOL     OW67534   1.678   4.575   8.527  0.0175 -0.1543 -0.7012
22134SOL    HW167535   1.684   4.658   8.576 -2.2109 -0.5099  0.3035
22134SOL    HW267536   1.675   4.602   8.435  2.2213  0.6580 -0.6056
22135SOL     OW67537   1.953   6.329   3.146 -0.6426  0.4381 -0.0149
22135SOL    HW167538   1.941   6.365   3.059 -1.8594 -0.0432 -0.0635
22135SOL    HW267539   1.974   6.237   3.131 -2.3534 -0.0130  0.2173
22136SOL     OW67540   3.024   3.372   5.817 -0.2748 -0.5913 -0.6129
22136SOL    HW167541   3.090   3.438   5.835 -0.7315 -0.2671 -0.0925
22136SOL    HW267542   3.040   3.346   5.726 -0.8910  1.1605 -1.2594
22137SOL     OW67543   5.719   4.378   2.071  0.2467 -0.0185 -0.1032
22137SOL    HW167544   5.698   4.293   2.033 -0.3743  0.5994 -1.1499
22137SOL    HW267545   5.759   4.427   2.000  0.5177  0.6090  0.4738
22138SOL     OW67546   5.324   8.243   2.400 -0.0717  0.1194  0.4859
22138SOL    HW167547   5.355   8.253   2.310 -0.3472  1.7933  0.5361
22138SOL    HW267548   5.230   8.264   2.394 -0.1686 -0.1338  1.1074
22139SOL     OW67549   0.917   3.579   2.217  0.0783  0.4254 -0.3281
22139SOL    HW167550   0.824   3.578   2.238  0.0815  0.8316 -0.2919
22139SOL    HW267551   0.920   3.576   2.121  0.0263  0.4051 -0.3289
22140SOL     OW67552   7.496   3.216   3.454  0.3997 -0.1152  0.9354
22140SOL    HW167553   7.425   3.152   3.456  0.5773 -0.3374  0.4077
22140SOL    HW267554   7.560   3.179   3.393  0.2309  0.8499  0.1383
22141SOL     OW67555   6.565   8.893   0.862 -0.1369 -0.1361  0.4461
22141SOL    HW167556   6.586   8.800   0.863 -0.1094 -0.2151 -1.6595
22141SOL    HW267557   6.643   8.936   0.895  0.2812 -0.8178  0.3648
22142SOL     OW67558   1.233   2.207   0.690  0.2457  0.4765 -0.6737
22142SOL    HW167559   1.254   2.197   0.597 -0.4103  1.7546 -0.9952
22142SOL    HW267560   1.138   2.213   0.692  0.2271 -0.0638  0.1475
22143SOL     OW67561   8.182   3.842   6.290  0.2258  0.4729 -0.5016
22143SOL    HW167562   8.108   3.901   6.276  0.4671  0.7877 -0.4547
22143SOL    HW267563   8.147   3.772   6.345 -0.4232 -0.1391 -1.6506
22144SOL     OW67564   0.379   4.083   1.251 -0.2077 -0.1992  0.0149
22144SOL    HW167565   0.313   4.014   1.264 -0.9703  0.6936  1.0238
22144SOL    HW267566   0.425   4.056   1.172 -1.3432 -1.1982 -0.3472
22145SOL     OW67567   0.196   8.881   8.865  0.3213 -0.0011  0.4214
22145SOL    HW167568   0.219   8.804   8.813  0.8526  1.6582 -1.9289
22145SOL    HW267569   0.263   8.946   8.843 -0.4676  1.3679  1.8548
22146SOL     OW67570   6.518   2.335   4.488  0.9467  0.1952  0.3095
22146SOL    HW167571   6.508   2.400   4.558  1.8421 -0.5624  1.1866
22146SOL    HW267572   6.513   2.385   4.407  0.0103  1.1244  0.9150
22147SOL     OW67573   1.408   5.412   3.180 -0.0394  0.9749  0.1387
22147SOL    HW167574   1.406   5.380   3.270  0.9243 -1.1333 -0.5085
22147SOL    HW267575   1.501   5.428   3.162 -0.2507  1.6174 -0.3877
22148SOL     OW67576   1.506   7.080   5.584  0.5249 -0.2147 -0.2875
22148SOL    HW167577   1.536   7.125   5.663  0.1383  1.5502 -1.0960
22148SOL    HW267578   1.461   7.148   5.534 -0.8416 -1.7316 -1.1921
22149SOL     OW67579   3.436   4.380   7.905  0.4634  0.2968 -0.0561
22149SOL    HW167580   3.436   4.446   7.974 -1.1369  1.0529 -0.7238
22149SOL    HW267581   3.432   4.431   7.823  0.7169 -0.6034 -0.6435
22150SOL     OW67582   3.705   0.423   4.023 -0.0393 -0.4047  0.2990
22150SOL    HW167583   3.775   0.375   4.066 -0.7371 -0.2233  1.7157
22150SOL    HW267584   3.640   0.356   3.999  0.2099 -0.4698 -0.2038
22151SOL     OW67585   6.698   5.622   5.871  0.2060 -0.2714 -0.1432
22151SOL    HW167586   6.702   5.681   5.946 -0.4170  0.5759 -0.7486
22151SOL    HW267587   6.669   5.539   5.907 -1.3857  0.4705  0.3936
22152SOL     OW67588   0.169   7.308   5.205 -0.2060 -0.4683  0.3315
22152SOL    HW167589   0.175   7.377   5.139 -1.9746  0.7598  1.3869
22152SOL    HW267590   0.112   7.243   5.167 -2.0171  0.6890  0.9502
22153SOL     OW67591   4.881   8.411   4.830  0.1287 -0.0708 -0.2696
22153SOL    HW167592   4.926   8.340   4.875  1.4352  0.2995 -0.9351
22153SOL    HW267593   4.819   8.446   4.895 -1.1592 -2.3161 -0.2042
22154SOL     OW67594   4.300   3.200   5.981 -0.0616 -0.1122 -0.2281
22154SOL    HW167595   4.329   3.134   5.919 -0.4127 -0.2763 -0.2185
22154SOL    HW267596   4.283   3.152   6.062 -2.3512 -0.3766 -0.8006
22155SOL     OW67597   1.792   8.782   1.064 -0.5135 -0.1062  0.3148
22155SOL    HW167598   1.737   8.713   1.101  0.3918 -0.4476  1.0553
22155SOL    HW267599   1.843   8.738   0.996 -0.6490  0.0583  0.1037
22156SOL     OW67600   9.080   2.063   2.431 -0.4161  0.3112 -0.9509
22156SOL    HW167601   9.006   2.031   2.483  1.0571 -1.8770 -0.0391
22156SOL    HW267602   9.047   2.064   2.341 -1.9917  0.9092 -0.4018
22157SOL     OW67603   8.195   4.404   1.228 -0.9715 -0.2534 -0.6935
22157SOL    HW167604   8.130   4.347   1.186 -0.7740 -0.7545 -0.3347
22157SOL    HW267605   8.223   4.354   1.305 -1.1525  0.5478 -0.1044
22158SOL     OW67606   5.615   8.222   6.202 -0.3260  0.0396 -0.6236
22158SOL    HW167607   5.695   8.190   6.160 -1.2897  0.5190 -3.0307
22158SOL    HW267608   5.602   8.310   6.165 -1.5151  0.3130  0.3586
22159SOL     OW67609   1.735   2.277   4.509 -0.4475  0.3679 -0.2843
22159SOL    HW167610   1.654   2.249   4.465  0.0994 -0.8000 -0.5649
22159SOL    HW267611   1.723   2.372   4.522 -1.3381  0.4355 -1.4371
22160SOL     OW67612   1.550   2.703   0.756 -0.2246  0.2023 -0.1801
22160SOL    HW167613   1.640   2.671   0.759  0.1943  1.0305 -2.0505
22160SOL    HW267614   1.555   2.792   0.792 -0.5385 -0.1663  0.8061
22161SOL     OW67615   6.176   1.732   3.977  0.2515  0.0468  0.1995
22161SOL    HW167616   6.266   1.748   4.006 -0.1440 -0.1538  1.5944
22161SOL    HW267617   6.148   1.815   3.939  0.8372  0.2763  0.2524
22162SOL     OW67618   0.210   4.861   6.237  0.2050  0.1234 -0.2269
22162SOL    HW167619   0.243   4.787   6.185 -0.0369  1.1453 -1.9153
22162SOL    HW267620   0.268   4.934   6.215  0.6598  0.3896  1.6903
22163SOL     OW67621   4.479   3.870   4.995 -0.2172 -0.3512  0.0707
22163SOL    HW167622   4.407   3.933   5.002 -0.8405 -1.2096  2.2485
22163SOL    HW267623   4.524   3.894   4.914 -2.2575  0.9316 -0.7662
22164SOL     OW67624   2.834   6.938   0.650 -0.0757 -0.4462 -0.1455
22164SOL    HW167625   2.829   7.033   0.658  0.9305 -0.5196  2.2359
22164SOL    HW267626   2.837   6.921   0.556  1.1093  1.9559 -0.5980
22165SOL     OW67627   7.806   0.873   3.302 -0.0795 -0.0044  0.7599
22165SOL    HW167628   7.878   0.934   3.289  1.5507 -1.5416  2.1159
22165SOL    HW267629   7.762   0.904   3.381 -0.5887  0.5950  0.2576
22166SOL     OW67630   2.336   8.064   0.791  0.0124 -0.2175  0.5387
22166SOL    HW167631   2.406   8.003   0.812 -0.1545 -0.4322  0.4803
22166SOL    HW267632   2.317   8.108   0.873  0.1958 -0.1789  0.5605
22167SOL     OW67633   3.185   4.421   4.602 -0.1161  0.1103 -0.1981
22167SOL    HW167634   3.233   4.451   4.525  0.2425  1.3043  0.4683
22167SOL    HW267635   3.161   4.331   4.581  2.5078 -0.6044 -0.5461
22168SOL     OW67636   1.333   6.785   6.867  0.3978  0.1693  0.2897
22168SOL    HW167637   1.364   6.841   6.796 -0.8206 -0.4458 -0.7501
22168SOL    HW267638   1.305   6.704   6.824  1.4906 -1.0182  1.6895
22169SOL     OW67639   8.631   3.236   3.545 -0.2836  0.2020 -0.2276
22169SOL    HW167640   8.690   3.275   3.609 -0.4162 -0.3889  0.2650
22169SOL    HW267641   8.673   3.252   3.460  1.2370 -1.2781  0.1863
22170SOL     OW67642   0.648   8.316   9.060  0.4723 -0.2293 -0.2316
22170SOL    HW167643   0.647   8.405   9.025 -0.9464  0.8095  2.2128
22170SOL    HW267644   0.739   8.301   9.086  0.6275  0.6996 -0.2039
22171SOL     OW67645   5.436   3.684   4.832 -1.1604  0.5444 -0.0868
22171SOL    HW167646   5.377   3.738   4.884 -0.4642  0.3092  0.9817
22171SOL    HW267647   5.414   3.594   4.856  1.1915  0.4698  2.2159
22172SOL     OW67648   5.341   5.988   4.472 -0.0342 -0.3418  0.3630
22172SOL    HW167649   5.429   6.018   4.495  0.1909 -0.5785 -0.1820
22172SOL    HW267650   5.351   5.893   4.461 -0.5994 -0.5449  1.4241
22173SOL     OW67651   2.384   8.239   6.069  0.4427  0.0420 -0.1738
22173SOL    HW167652   2.432   8.299   6.126 -0.4857  0.4119  0.2409
22173SOL    HW267653   2.397   8.153   6.109  0.7530  0.1386 -0.0639
22174SOL     OW67654   0.196   0.073   1.112 -0.1392  0.6690 -0.6799
22174SOL    HW167655   0.212   0.168   1.111 -1.6453  1.0561  2.1168
22174SOL    HW267656   0.134   0.060   1.183  0.3956 -2.5139 -0.6576
22175SOL     OW67657   2.934   3.076   2.601  0.3725  0.4130 -0.0924
22175SOL    HW167658   2.968   2.992   2.569 -0.7099 -0.3342  0.6222
22175SOL    HW267659   2.859   3.094   2.546 -2.6718 -1.8256  2.8977
22176SOL     OW67660   0.733   1.421   6.383 -0.1098  0.3730 -0.5331
22176SOL    HW167661   0.756   1.481   6.311 -0.9416  0.9551 -0.3317
22176SOL    HW267662   0.658   1.463   6.426  1.0194  0.5916  1.3534
22177SOL     OW67663   6.752   1.015   0.125  0.5825  0.5877  0.4104
22177SOL    HW167664   6.826   1.021   0.186  1.2214  0.3286 -0.3309
22177SOL    HW267665   6.704   0.937   0.153  2.6209 -1.3952 -1.2774
22178SOL     OW67666   3.619   0.544   1.665  0.2343 -0.0852 -0.4796
22178SOL    HW167667   3.686   0.601   1.628 -0.9527  1.4566 -0.3544
22178SOL    HW267668   3.664   0.496   1.735  0.3311  4.3926  2.9761
22179SOL     OW67669   1.314   0.691   7.677 -0.6011 -0.2610  0.3485
22179SOL    HW167670   1.352   0.604   7.683 -0.0696 -0.0782 -0.2587
22179SOL    HW267671   1.370   0.738   7.615 -2.3928 -0.2941 -1.3885
22180SOL     OW67672   6.506   4.798   4.643  0.1472 -0.3778  0.3604
22180SOL    HW167673   6.587   4.772   4.598  0.5830  0.1369  0.8415
22180SOL    HW267674   6.456   4.845   4.576  0.5279 -0.1443  0.2373
22181SOL     OW67675   6.620   8.666   7.685  0.5153 -0.2200 -0.1136
22181SOL    HW167676   6.656   8.583   7.652  0.0619  0.3697 -2.2319
22181SOL    HW267677   6.550   8.639   7.745  0.8970 -1.3745 -0.1579
22182SOL     OW67678   6.252   7.081   0.363 -0.6749 -0.4067 -0.8052
22182SOL    HW167679   6.188   7.039   0.421  1.2911  0.5580  2.3229
22182SOL    HW267680   6.276   7.162   0.408  2.0486 -0.2952 -2.2551
22183SOL     OW67681   7.059   1.152   4.207 -0.4704 -0.1072  0.5216
22183SOL    HW167682   7.029   1.144   4.297 -0.0809 -0.0682  0.6564
22183SOL    HW267683   7.004   1.221   4.169 -1.4248 -0.9268  0.3859
22184SOL     OW67684   8.343   1.298   8.576  0.2505  0.0818 -0.0571
22184SOL    HW167685   8.345   1.308   8.671 -0.2244 -3.1763  0.4248
22184SOL    HW267686   8.393   1.372   8.543  1.4511  0.6770  2.7821
22185SOL     OW67687   8.665   3.840   8.681 -0.1703 -0.2117 -0.0893
22185SOL    HW167688   8.704   3.919   8.718  0.5196  0.9594 -3.0288
22185SOL    HW267689   8.733   3.773   8.688 -0.2896 -0.2134  1.2492
22186SOL     OW67690   1.958   2.960   8.619  0.1385  0.1102 -0.1497
22186SOL    HW167691   1.918   2.874   8.617 -0.0363  0.1920 -0.1912
22186SOL    HW267692   2.049   2.945   8.594  0.3360 -0.1793  0.7071
22187SOL     OW67693   0.651   1.833   0.873  0.1860  0.3355 -0.5075
22187SOL    HW167694   0.636   1.921   0.839  0.9843  0.6411 -0.0733
22187SOL    HW267695   0.733   1.838   0.921 -0.5738 -0.2442  0.9377
22188SOL     OW67696   4.798   2.388   8.255 -0.2890 -0.4932  0.2692
22188SOL    HW167697   4.841   2.444   8.319  2.1215 -0.6156 -1.1264
22188SOL    HW267698   4.869   2.336   8.217 -2.0867 -2.7701 -0.2168
22189SOL     OW67699   1.758   3.282   0.270 -0.7478 -0.3180  0.1154
22189SOL    HW167700   1.675   3.326   0.289 -0.9765 -0.2136 -1.0375
22189SOL    HW267701   1.820   3.321   0.331 -1.0640  1.2364 -0.5121
22190SOL     OW67702   8.211   8.445   8.606  0.0163 -0.2359 -0.1246
22190SOL    HW167703   8.256   8.483   8.682  0.6293  1.5268 -1.2960
22190SOL    HW267704   8.150   8.382   8.643 -1.7830  2.5613  2.1291
22191SOL     OW67705   1.909   2.386   3.087  0.3743  0.1816 -0.4561
22191SOL    HW167706   1.989   2.395   3.138  0.8926  0.5781 -1.3178
22191SOL    HW267707   1.847   2.446   3.129  0.5373 -0.0895  0.1826
22192SOL     OW67708   0.452   7.702   7.162 -0.1842  0.1794  0.1195
22192SOL    HW167709   0.499   7.701   7.078 -0.0282 -0.7703  0.2067
22192SOL    HW267710   0.360   7.691   7.138 -0.0478 -1.1345  0.1053
22193SOL     OW67711   0.732   2.310   2.730 -0.3258  0.0097 -0.3677
22193SOL    HW167712   0.729   2.392   2.681  0.1514  1.4041  1.7906
22193SOL    HW267713   0.641   2.280   2.733 -0.4570  0.2763 -1.4695
22194SOL     OW67714   6.585   7.329   9.057 -0.3117 -0.0947  0.2372
22194SOL    HW167715   6.572   7.300   8.967 -0.8236  2.3958 -0.5722
22194SOL    HW267716   6.678   7.314   9.074  0.2225  1.0898 -1.3925
22195SOL     OW67717   4.941   1.506   6.342 -0.2456  0.4064  0.0296
22195SOL    HW167718   5.024   1.518   6.389 -0.7084  0.6375  0.8076
22195SOL    HW267719   4.942   1.414   6.316  0.3147  0.4400 -0.0917
22196SOL     OW67720   3.991   2.151   7.051 -0.2809  0.2241  0.3225
22196SOL    HW167721   4.026   2.149   6.962 -1.3326  1.3351 -0.1457
22196SOL    HW267722   4.042   2.086   7.098  0.4838 -0.1947 -1.0254
22197SOL     OW67723   3.698   7.924   0.594 -0.3080 -0.4622 -0.1353
22197SOL    HW167724   3.782   7.952   0.557 -0.5089  0.4418  0.0672
22197SOL    HW267725   3.633   7.948   0.528 -0.3590 -1.7048 -0.5555
22198SOL     OW67726   3.452   6.820   8.572 -0.1183 -0.0081 -0.4585
22198SOL    HW167727   3.374   6.835   8.518 -0.4298  0.2692  0.0545
22198SOL    HW267728   3.470   6.906   8.611  0.0086 -0.2388 -0.0025
22199SOL     OW67729   7.728   8.323   6.304 -0.2421 -0.3884 -0.5575
22199SOL    HW167730   7.664   8.308   6.373 -0.4629  0.0449 -0.6609
22199SOL    HW267731   7.813   8.310   6.346 -0.3959 -1.0945 -0.4524
22200SOL     OW67732   2.289   6.002   0.184 -0.6468 -0.4256  0.0405
22200SOL    HW167733   2.198   6.030   0.195 -0.3422  0.9951 -0.7223
22200SOL    HW267734   2.308   5.949   0.261 -1.6026  0.7124  1.1006
22201SOL     OW67735   8.941   3.284   3.116  0.1356  1.0072  0.6506
22201SOL    HW167736   8.947   3.292   3.021  0.2599  3.1151  0.8066
22201SOL    HW267737   9.026   3.316   3.148  0.6387 -0.9666  1.4494
22202SOL     OW67738   1.261   3.596   2.568  0.4337 -0.2660  0.0573
22202SOL    HW167739   1.174   3.603   2.605 -0.2842  0.6166 -1.6646
22202SOL    HW267740   1.288   3.687   2.553  1.8039 -0.5091  0.8661
22203SOL     OW67741   1.449   0.190   6.128 -0.0325 -0.1777  0.5481
22203SOL    HW167742   1.478   0.186   6.037 -1.8143 -1.9689 -0.0261
22203SOL    HW267743   1.486   0.111   6.168  0.9982  0.7538  1.5032
22204SOL     OW67744   3.420   8.458   4.097  0.1129  0.1609  0.4100
22204SOL    HW167745   3.435   8.444   4.190 -1.6674  2.6311  1.1696
22204SOL    HW267746   3.503   8.435   4.056  1.4560  0.4532  2.7648
22205SOL     OW67747   6.898   7.503   1.926 -0.4831  0.6908 -0.1348
22205SOL    HW167748   6.853   7.424   1.957 -0.3002  0.1882 -1.1101
22205SOL    HW267749   6.831   7.553   1.880 -0.8118  1.5537  1.2163
22206SOL     OW67750   1.966   2.115   2.706  0.1169  0.3905 -0.1966
22206SOL    HW167751   1.928   2.115   2.794  0.1013 -2.1364 -0.1366
22206SOL    HW267752   1.934   2.196   2.667  0.2150  1.6514  2.1277
22207SOL     OW67753   1.186   8.022   5.730 -0.1536 -0.2213 -0.3055
22207SOL    HW167754   1.172   7.928   5.718  0.8675 -0.3357 -0.6948
22207SOL    HW267755   1.264   8.028   5.785 -0.6433  0.4058  0.3598
22208SOL     OW67756   1.078   7.987   7.235 -0.2252 -0.1214  0.5414
22208SOL    HW167757   1.079   7.896   7.267  0.7699 -0.8991 -1.4883
22208SOL    HW267758   1.166   8.000   7.199 -0.3207  1.7121  0.9062
22209SOL     OW67759   2.741   2.067   5.332 -0.0209  0.0514 -0.0049
22209SOL    HW167760   2.829   2.106   5.339  1.1262 -2.6006  2.2280
22209SOL    HW267761   2.682   2.139   5.352  1.5818  1.9344 -1.5569
22210SOL     OW67762   8.237   5.070   0.371  0.3655 -0.2859 -0.6883
22210SOL    HW167763   8.145   5.049   0.358 -0.1772  2.7267 -2.7353
22210SOL    HW267764   8.242   5.104   0.460 -0.4263 -0.7724 -0.4510
22211SOL     OW67765   0.884   1.801   6.743 -0.3485  0.0437  0.2875
22211SOL    HW167766   0.927   1.867   6.796 -2.0295  0.1882  1.5542
22211SOL    HW267767   0.956   1.753   6.701  1.0082  0.5960  1.8717
22212SOL     OW67768   7.906   6.087   3.942  0.0362 -0.6580  0.3772
22212SOL    HW167769   7.890   6.037   4.022 -0.5633 -0.8638  0.1309
22212SOL    HW267770   7.886   6.178   3.966 -2.8465 -1.0367 -0.2457
22213SOL     OW67771   2.523   4.920   6.109 -0.4490  0.0715 -0.1567
22213SOL    HW167772   2.504   4.828   6.091 -0.2908  0.0735 -0.3392
22213SOL    HW267773   2.458   4.969   6.059  0.5218  0.1002 -1.4204
22214SOL     OW67774   5.494   2.908   5.921  0.2822 -0.0005  0.0490
22214SOL    HW167775   5.581   2.946   5.933  0.9411 -1.7982  1.3101
22214SOL    HW267776   5.435   2.983   5.918  1.4665  1.1753  2.8210
22215SOL     OW67777   7.091   3.682   1.305 -0.6345  0.0576  0.1988
22215SOL    HW167778   7.133   3.747   1.248 -0.9742 -0.6316 -0.8721
22215SOL    HW267779   7.011   3.725   1.334  0.1507  0.9032  1.2397
22216SOL     OW67780   7.375   5.975   5.199  0.0490 -0.1661 -0.0609
22216SOL    HW167781   7.407   5.908   5.259  0.3683 -0.2629 -0.3390
22216SOL    HW267782   7.281   5.979   5.217  0.3292  0.7469  1.3747
22217SOL     OW67783   0.581   0.725   6.392 -0.3207  0.2064  0.7093
22217SOL    HW167784   0.632   0.767   6.461  0.6312  0.3798 -0.0742
22217SOL    HW267785   0.611   0.634   6.391 -0.4644  0.1587  0.6475
22218SOL     OW67786   1.521   5.973   5.589  0.2038  0.4667  0.5877
22218SOL    HW167787   1.493   5.881   5.589  0.8024  0.2798  0.5021
22218SOL    HW267788   1.443   6.022   5.565  0.5559 -0.2292 -2.2702
22219SOL     OW67789   5.858   4.020   8.365 -0.0931 -0.3050 -0.4292
22219SOL    HW167790   5.949   4.041   8.384 -0.6572  0.4788  1.6609
22219SOL    HW267791   5.861   3.933   8.325  1.5220 -0.5622  0.1741
22220SOL     OW67792   5.466   5.041   0.911 -0.2109  0.1539  0.1034
22220SOL    HW167793   5.419   4.958   0.900  1.9477 -0.9554 -1.5020
22220SOL    HW267794   5.429   5.098   0.844 -1.3258  0.3364  0.8528
22221SOL     OW67795   0.618   0.328   8.596  0.2032  0.5182  0.0181
22221SOL    HW167796   0.614   0.319   8.501 -0.2604 -1.4775  0.1783
22221SOL    HW267797   0.698   0.378   8.612 -0.0308  1.4090 -1.4259
22222SOL     OW67798   4.031   0.780   8.088 -0.8214 -0.2279 -0.3309
22222SOL    HW167799   3.936   0.774   8.097 -1.1450 -1.5582 -3.4568
22222SOL    HW267800   4.058   0.693   8.059  0.6981  1.1667 -3.5775
22223SOL     OW67801   4.036   4.587   1.765  0.4340  0.0904  0.3601
22223SOL    HW167802   4.020   4.681   1.758  1.2704  0.1325 -1.5322
22223SOL    HW267803   3.985   4.549   1.693  2.5297 -0.5558 -0.8586
22224SOL     OW67804   4.318   6.338   3.824 -0.0884 -0.1038 -0.3740
22224SOL    HW167805   4.392   6.301   3.872 -0.7319  0.1845  0.8758
22224SOL    HW267806   4.262   6.377   3.891 -2.2969 -1.8601 -1.0393
22225SOL     OW67807   9.019   6.588   5.319 -0.1627  0.0831  0.0078
22225SOL    HW167808   9.050   6.553   5.236  1.7317  2.2273 -0.2722
22225SOL    HW267809   9.018   6.512   5.378 -1.3139 -1.4236 -1.8440
22226SOL     OW67810   3.631   2.523   2.096  0.4984 -0.2416  0.3081
22226SOL    HW167811   3.566   2.593   2.088  0.1118 -0.7460 -1.4082
22226SOL    HW267812   3.582   2.449   2.134  1.0030  0.4806  2.5035
22227SOL     OW67813   2.114   4.501   5.583  0.7272  0.8186 -0.0662
22227SOL    HW167814   2.205   4.475   5.571  0.0395 -1.7563 -0.3348
22227SOL    HW267815   2.087   4.456   5.663 -0.9462 -0.5339 -1.3153
22228SOL     OW67816   2.176   6.573   8.820  0.1308 -0.1855 -0.1367
22228SOL    HW167817   2.249   6.621   8.860  2.3203 -1.2429 -2.5126
22228SOL    HW267818   2.102   6.633   8.823  0.8632  0.7041  2.9981
22229SOL     OW67819   4.419   7.350   2.769 -0.1623  0.1369  0.3466
22229SOL    HW167820   4.429   7.372   2.677  0.4139  0.4681  0.4820
22229SOL    HW267821   4.404   7.255   2.769 -1.0893  0.2779 -0.1376
22230SOL     OW67822   3.190   7.725   0.922  1.0026 -0.3431  0.1278
22230SOL    HW167823   3.184   7.816   0.894 -0.9509  0.4214  2.6061
22230SOL    HW267824   3.260   7.725   0.987 -0.7926  0.1589  2.2201
22231SOL     OW67825   4.453   8.805   3.454 -0.3312 -0.1924  0.4601
22231SOL    HW167826   4.405   8.878   3.415  0.6579 -0.7660 -1.9922
22231SOL    HW267827   4.545   8.831   3.447  0.1500 -2.2319 -1.8159
22232SOL     OW67828   2.500   0.163   4.454  0.1255  0.0243  0.2402
22232SOL    HW167829   2.548   0.121   4.524 -1.3173 -2.1607  0.0403
22232SOL    HW267830   2.566   0.184   4.388  1.1044 -0.5782  1.0053
22233SOL     OW67831   0.990   1.724   7.933 -0.1348  0.3792 -0.5445
22233SOL    HW167832   0.935   1.682   8.000  0.3413  0.5272 -0.0527
22233SOL    HW267833   1.000   1.814   7.965  2.1446 -0.1743  0.5151
22234SOL     OW67834   8.232   6.940   7.730 -0.0009 -0.8020  0.0298
22234SOL    HW167835   8.240   6.848   7.703 -0.6510 -1.5159  2.1185
22234SOL    HW267836   8.155   6.942   7.787 -0.8818  1.3573 -1.1414
22235SOL     OW67837   1.571   6.486   4.134  0.4437 -0.0273 -0.2048
22235SOL    HW167838   1.624   6.415   4.098 -0.0616 -0.2231 -0.5703
22235SOL    HW267839   1.481   6.464   4.111  0.3117  0.9542 -0.7188
22236SOL     OW67840   7.403   3.517   2.158 -0.9710  0.0513  0.3411
22236SOL    HW167841   7.312   3.492   2.145 -0.9308  0.0380  0.0888
22236SOL    HW267842   7.446   3.435   2.185 -0.5430 -0.5355 -1.8894
22237SOL     OW67843   3.383   2.508   6.368 -0.1781 -0.0386 -0.0578
22237SOL    HW167844   3.374   2.415   6.390 -1.8509 -0.1766 -1.1354
22237SOL    HW267845   3.405   2.551   6.451 -3.6063 -0.8508  1.4380
22238SOL     OW67846   2.036   4.272   0.207  0.3285  0.1529  0.0713
22238SOL    HW167847   1.973   4.293   0.276  0.8706 -0.3918  0.7410
22238SOL    HW267848   2.033   4.176   0.201 -1.3828  0.2433 -2.2425
22239SOL     OW67849   3.785   5.210   1.849 -0.5515 -0.5641  0.0326
22239SOL    HW167850   3.763   5.197   1.941  2.1001 -0.5159  0.7678
22239SOL    HW267851   3.868   5.165   1.837 -2.2776 -3.3517 -3.2417
22240SOL     OW67852   4.515   5.638   8.969 -0.3065 -0.0267  0.1492
22240SOL    HW167853   4.443   5.685   8.928  2.0459  3.3613 -0.5255
22240SOL    HW267854   4.553   5.586   8.899 -1.0161 -0.4592  0.0760
22241SOL     OW67855   6.361   3.121   5.698 -0.1092  0.1178  0.7904
22241SOL    HW167856   6.444   3.097   5.739  0.2608  1.5921  0.9908
22241SOL    HW267857   6.327   3.040   5.661  0.7050 -0.7964  1.9734
22242SOL     OW67858   1.155   1.893   6.563 -0.0437 -0.2891  0.0369
22242SOL    HW167859   1.078   1.940   6.533 -0.4292 -1.5373 -1.0190
22242SOL    HW267860   1.228   1.952   6.544 -0.4689 -0.2859 -1.6989
22243SOL     OW67861   1.638   3.836   3.825 -0.1461 -0.5612 -0.5130
22243SOL    HW167862   1.546   3.856   3.810  0.0927 -0.1894 -1.6209
22243SOL    HW267863   1.647   3.743   3.803 -0.2618 -0.6037 -0.3784
22244SOL     OW67864   8.196   6.683   9.074  0.1757 -0.0735  0.0277
22244SOL    HW167865   8.101   6.675   9.062 -0.0803  1.3690  0.8920
22244SOL    HW267866   8.233   6.644   8.995 -1.1210 -0.8546 -0.2300
22245SOL     OW67867   7.380   7.814   3.861  0.0129  0.1514 -0.2127
22245SOL    HW167868   7.340   7.838   3.945 -1.6594  0.7045 -1.1380
22245SOL    HW267869   7.445   7.748   3.885  0.7107  1.4254  1.7036
22246SOL     OW67870   1.862   1.903   5.991  0.0391  0.4879  0.3450
22246SOL    HW167871   1.793   1.903   5.925  0.8136  0.4989 -0.4900
22246SOL    HW267872   1.851   1.819   6.037  0.5984 -0.3652 -1.0169
22247SOL     OW67873   7.993   9.004   4.901  0.1322 -0.0481 -0.1518
22247SOL    HW167874   7.989   9.100   4.911 -0.6593 -0.2254  1.5494
22247SOL    HW267875   7.991   8.990   4.807  0.1504  1.6155 -0.4355
22248SOL     OW67876   6.221   4.245   1.800 -0.3567 -0.4016 -0.5327
22248SOL    HW167877   6.166   4.321   1.817 -1.5215 -0.5977 -2.9757
22248SOL    HW267878   6.293   4.252   1.864 -2.7255  0.2949  2.2692
22249SOL     OW67879   3.729   8.678   1.099  0.4356 -0.2772 -0.4756
22249SOL    HW167880   3.806   8.638   1.138 -0.1817 -1.3758 -0.3461
22249SOL    HW267881   3.696   8.737   1.166  1.6542  0.9064 -0.8662
22250SOL     OW67882   2.230   8.210   7.825  0.2579 -0.3368  0.3333
22250SOL    HW167883   2.264   8.177   7.909  0.4162 -2.0452 -0.3630
22250SOL    HW267884   2.210   8.302   7.842 -0.1708 -0.7606  2.3837
22251SOL     OW67885   4.751   8.850   1.294 -0.7544 -0.2274  0.7398
22251SOL    HW167886   4.806   8.915   1.251 -1.4060 -2.3670 -3.9247
22251SOL    HW267887   4.661   8.881   1.280 -0.9769 -0.1752  2.1284
22252SOL     OW67888   8.409   6.511   5.104 -0.5911 -0.1737 -0.4239
22252SOL    HW167889   8.448   6.431   5.070  0.3998  0.5716 -1.0757
22252SOL    HW267890   8.315   6.500   5.089 -0.6201 -1.7317  0.6166
22253SOL     OW67891   7.542   7.104   2.318  0.4008 -0.4884  0.4159
22253SOL    HW167892   7.538   7.095   2.222  1.6955  2.1682  0.0214
22253SOL    HW267893   7.617   7.050   2.343  0.6964 -0.3860 -0.2106
22254SOL     OW67894   5.325   1.642   3.532  0.0525 -0.1791  0.7003
22254SOL    HW167895   5.405   1.606   3.571  0.0507 -0.2812  0.6104
22254SOL    HW267896   5.354   1.678   3.448  0.2205  0.8428  1.1889
22255SOL     OW67897   3.511   3.342   0.686 -0.8781 -0.2233  0.1233
22255SOL    HW167898   3.493   3.367   0.595 -0.1838 -0.1141  0.0108
22255SOL    HW267899   3.457   3.264   0.700  0.0548 -1.0828 -0.8342
22256SOL     OW67900   2.604   6.733   1.160  0.3356 -0.0391  0.0284
22256SOL    HW167901   2.529   6.703   1.212 -0.0703  0.2011 -0.4170
22256SOL    HW267902   2.674   6.745   1.225 -0.5512  1.5774  0.7495
22257SOL     OW67903   8.534   8.359   2.951 -0.3682  0.5393 -0.3018
22257SOL    HW167904   8.589   8.402   2.885  0.4358 -0.9396 -0.6443
22257SOL    HW267905   8.471   8.308   2.900 -0.7658  0.6328  0.0901
22258SOL     OW67906   5.893   1.471   2.504 -0.2678  0.1661 -0.5237
22258SOL    HW167907   5.917   1.379   2.511 -2.3731 -0.3487  1.0194
22258SOL    HW267908   5.825   1.473   2.436 -1.4089  0.2607  0.5781
22259SOL     OW67909   8.459   4.950   0.643  0.3704 -0.2718  0.2954
22259SOL    HW167910   8.516   5.015   0.602  0.8294 -0.9950 -0.2303
22259SOL    HW267911   8.427   4.897   0.570  0.0798 -0.7040  0.7295
22260SOL     OW67912   1.037   0.269   6.410  0.3396  0.3231  0.3696
22260SOL    HW167913   1.061   0.285   6.501 -0.9672  2.8077  0.3322
22260SOL    HW267914   0.949   0.230   6.414  0.9022 -1.0527  0.1719
22261SOL     OW67915   2.141   5.588   5.465  0.0347 -0.3041  0.0904
22261SOL    HW167916   2.227   5.579   5.504  0.5714 -0.9226 -1.1953
22261SOL    HW267917   2.104   5.500   5.465 -0.0089 -0.2917 -0.6717
22262SOL     OW67918   7.139   7.008   4.334  0.1185  0.6361  0.0797
22262SOL    HW167919   7.178   7.012   4.421  0.7422  2.8603 -0.2423
22262SOL    HW267920   7.065   7.070   4.338  0.6214  1.3529 -1.1555
22263SOL     OW67921   5.372   4.096   8.995 -0.0129  0.4691 -0.2684
22263SOL    HW167922   5.312   4.170   9.008  0.4845  1.0573 -1.2543
22263SOL    HW267923   5.415   4.114   8.911  0.6941 -0.5408 -0.1371
22264SOL     OW67924   0.229   6.292   3.669  0.0780 -0.4248 -0.0025
22264SOL    HW167925   0.299   6.227   3.661 -2.3901 -3.2666 -0.0995
22264SOL    HW267926   0.225   6.311   3.763  1.2808  0.1917 -0.0566
22265SOL     OW67927   5.593   5.373   6.013 -0.3373 -0.8307 -0.1337
22265SOL    HW167928   5.650   5.428   5.960 -0.9592 -2.5325 -2.7743
22265SOL    HW267929   5.651   5.332   6.077  0.2473  2.1701  1.4017
22266SOL     OW67930   7.589   0.575   2.105 -0.8025 -0.2394 -0.0553
22266SOL    HW167931   7.662   0.551   2.161 -0.1411 -0.1969 -0.8875
22266SOL    HW267932   7.523   0.507   2.119 -0.1757 -0.8549 -0.0939
22267SOL     OW67933   1.343   4.552   3.770  0.3491 -0.2796 -0.1238
22267SOL    HW167934   1.326   4.491   3.842 -0.3231 -0.4369 -0.4014
22267SOL    HW267935   1.279   4.622   3.784  0.9425  0.2287  0.0449
22268SOL     OW67936   6.134   7.223   4.735 -0.5051 -0.1441 -0.4943
22268SOL    HW167937   6.213   7.174   4.715 -1.6461 -2.7694  0.8870
22268SOL    HW267938   6.164   7.295   4.791  1.0094 -0.3983 -0.9306
22269SOL     OW67939   6.023   0.466   8.273 -0.1162  0.0692  0.7707
22269SOL    HW167940   6.007   0.500   8.361  0.8099 -0.4593  1.1540
22269SOL    HW267941   5.982   0.530   8.215 -1.5881 -0.0572  1.6052
22270SOL     OW67942   0.882   4.256   0.044 -0.4454  0.3112 -0.3534
22270SOL    HW167943   0.912   4.347   0.046 -0.0805  0.2883 -2.1967
22270SOL    HW267944   0.949   4.208   0.091 -1.0464  1.0582  1.3531
22271SOL     OW67945   2.975   2.268   1.345 -0.3388  0.3688 -0.6016
22271SOL    HW167946   3.017   2.208   1.283  1.0314  0.7298 -0.0663
22271SOL    HW267947   2.985   2.225   1.430  1.1736  1.5669 -0.1258
22272SOL     OW67948   1.269   7.319   3.795 -0.3718 -0.9456  0.2247
22272SOL    HW167949   1.230   7.394   3.750 -0.4464 -0.2213  1.4708
22272SOL    HW267950   1.361   7.344   3.806 -0.2403 -1.3403  0.0241
22273SOL     OW67951   1.878   1.801   5.345  0.1096  0.0582 -0.1136
22273SOL    HW167952   1.785   1.812   5.367 -0.0890 -0.0288 -0.9027
22273SOL    HW267953   1.913   1.890   5.341  0.3346  0.0585  1.2981
22274SOL     OW67954   2.728   3.877   3.412  0.7134  0.6100 -0.4112
22274SOL    HW167955   2.752   3.967   3.392  0.1847  0.6275 -1.0055
22274SOL    HW267956   2.677   3.848   3.336  0.0976  0.1141  0.1705
22275SOL     OW67957   4.333   0.310   0.042 -0.0803  0.4268  0.8512
22275SOL    HW167958   4.388   0.233   0.028  0.9246  1.1180  0.8673
22275SOL    HW267959   4.244   0.277   0.036  0.3281 -0.6413  0.3322
22276SOL     OW67960   6.997   1.277   8.566  0.1133 -0.3967  0.0947
22276SOL    HW167961   7.036   1.321   8.641  0.5482 -0.0500 -0.3255
22276SOL    HW267962   6.923   1.332   8.541  0.6227  0.0791 -0.3950
22277SOL     OW67963   1.910   8.598   8.512  0.2621 -0.1768  0.5501
22277SOL    HW167964   1.880   8.519   8.557  0.6816 -0.3644  0.5053
22277SOL    HW267965   1.848   8.609   8.440  0.0168 -0.2850  0.7390
22278SOL     OW67966   8.722   4.533   6.474 -0.0056  0.0587  0.2614
22278SOL    HW167967   8.656   4.597   6.445  0.5288  0.8941  0.8225
22278SOL    HW267968   8.680   4.488   6.547  0.3168  1.1863  1.1841
22279SOL     OW67969   8.702   1.213   4.138  0.0869 -0.6898 -0.2024
22279SOL    HW167970   8.679   1.143   4.199  0.7894 -0.3189  0.4973
22279SOL    HW267971   8.666   1.292   4.178  1.4810 -0.2830  0.3040
22280SOL     OW67972   6.967   2.297   6.811 -0.0581  0.1598 -1.1592
22280SOL    HW167973   6.941   2.378   6.854  0.8567 -0.1683  0.0810
22280SOL    HW267974   6.886   2.246   6.806  0.1861 -1.0306  3.0176
22281SOL     OW67975   0.142   5.830   1.935 -0.2355 -0.2590  0.1577
22281SOL    HW167976   0.095   5.782   2.003  4.0813 -1.1731  2.8941
22281SOL    HW267977   0.162   5.764   1.869 -0.3286 -0.5627  0.4260
22282SOL     OW67978   1.241   5.797   1.760 -0.6004  0.6729  0.1360
22282SOL    HW167979   1.240   5.701   1.760 -0.2328  0.6654  0.9272
22282SOL    HW267980   1.204   5.822   1.844  1.8284  1.1724  1.1334
22283SOL     OW67981   1.097   3.831   8.591  0.5403  0.4084 -0.4528
22283SOL    HW167982   1.038   3.755   8.593  1.7026 -0.5368 -1.0947
22283SOL    HW267983   1.052   3.895   8.537 -0.3469  0.0939 -0.1040
22284SOL     OW67984   1.882   3.898   3.660  0.0717  0.4445 -0.2652
22284SOL    HW167985   1.939   3.939   3.725  0.4820 -2.7740  1.6157
22284SOL    HW267986   1.803   3.875   3.709  0.3309 -1.9516 -0.8532
22285SOL     OW67987   1.312   8.862   1.050  0.0320 -0.4801 -0.9809
22285SOL    HW167988   1.368   8.886   0.977  1.4214 -1.3635 -0.2402
22285SOL    HW267989   1.278   8.776   1.027  1.6196 -1.4201 -0.0028
22286SOL     OW67990   5.887   4.225   1.606 -0.2369 -0.3854 -0.7375
22286SOL    HW167991   5.867   4.178   1.524  2.2636  0.0408 -1.6688
22286SOL    HW267992   5.945   4.166   1.653  1.0278  0.7662 -0.8240
22287SOL     OW67993   8.115   4.782   6.539 -0.3267  0.3719  0.0424
22287SOL    HW167994   8.131   4.734   6.457  0.1945 -1.7817  1.3252
22287SOL    HW267995   8.181   4.852   6.539 -0.0537  0.1360 -1.1687
22288SOL     OW67996   2.304   7.767   1.019 -0.1456  0.1818 -0.0926
22288SOL    HW167997   2.247   7.722   0.957 -1.0977  0.9263  0.2180
22288SOL    HW267998   2.362   7.698   1.052 -0.4108 -0.4565 -0.9159
22289SOL     OW67999   4.929   1.142   2.515 -0.1729 -0.1312 -0.1659
22289SOL    HW168000   4.880   1.075   2.562  0.4667  0.8138  1.9498
22289SOL    HW268001   4.980   1.093   2.450  1.1883 -1.9015  2.0937
22290SOL     OW68002   4.369   0.225   1.819  0.6072 -0.2587  0.4656
22290SOL    HW168003   4.366   0.226   1.915  0.8100 -0.3482  0.4727
22290SOL    HW268004   4.451   0.269   1.797  0.5724 -0.2596  0.3334
22291SOL     OW68005   4.616   1.970   6.622  0.5309  0.0121 -0.0859
22291SOL    HW168006   4.677   2.005   6.686 -0.1105 -0.5251  0.8341
22291SOL    HW268007   4.646   2.006   6.538  3.0679 -1.4188  0.0873
22292SOL     OW68008   4.086   8.414   7.295 -0.4651  0.0795 -0.1914
22292SOL    HW168009   4.029   8.443   7.224  1.1704 -0.9483 -2.0248
22292SOL    HW268010   4.085   8.318   7.289  0.4978  0.0130  0.4891
22293SOL     OW68011   8.911   5.054   8.959  0.5005 -0.1603  0.3800
22293SOL    HW168012   8.984   4.997   8.934 -0.4607 -0.8766 -0.9067
22293SOL    HW268013   8.843   4.993   8.988 -0.5672  0.3079 -1.0618
22294SOL     OW68014   5.249   4.247   6.542  0.0046 -0.3837  0.1177
22294SOL    HW168015   5.253   4.322   6.601  0.6258  0.4716 -0.9684
22294SOL    HW268016   5.337   4.240   6.506 -0.3468 -0.9093 -0.6736
22295SOL     OW68017   9.080   0.618   8.913 -0.5449 -0.0277  0.1582
22295SOL    HW168018   8.986   0.610   8.900 -0.5501  1.8470 -1.2606
22295SOL    HW268019   9.099   0.711   8.901  1.1796  0.0832  2.7822
22296SOL     OW68020   5.951   5.311   5.994 -0.2203  0.5705 -0.7695
22296SOL    HW168021   5.896   5.236   5.972 -2.0792  1.5138  0.4171
22296SOL    HW268022   6.032   5.297   5.945 -0.5085 -2.1838 -0.5851
22297SOL     OW68023   4.685   6.612   1.838  0.1403  0.1202 -0.2622
22297SOL    HW168024   4.662   6.534   1.788  2.1995  0.8820 -2.6047
22297SOL    HW268025   4.673   6.587   1.929 -0.2553 -2.5679 -0.9733
22298SOL     OW68026   2.406   6.761   8.071  0.0124 -0.1547  0.2055
22298SOL    HW168027   2.454   6.715   8.139  0.4316 -0.1042 -0.0529
22298SOL    HW268028   2.456   6.745   7.991 -0.7888 -0.7068 -0.2057
22299SOL     OW68029   0.008   8.866   8.413 -0.3937  0.2915 -0.4851
22299SOL    HW168030  -0.022   8.866   8.504 -1.7321  2.4865 -0.8669
22299SOL    HW268031  -0.072   8.871   8.361  0.4172  1.2119 -1.7003
22300SOL     OW68032   5.749   1.433   2.275 -0.5943 -0.1080 -0.2495
22300SOL    HW168033   5.724   1.509   2.222  0.6994 -0.4640 -1.4254
22300SOL    HW268034   5.701   1.360   2.236  0.2823 -0.3529 -0.9048
22301SOL     OW68035   1.012   2.314   7.492 -0.6669 -0.2529 -0.0013
22301SOL    HW168036   1.086   2.270   7.535  1.3925  0.5482 -2.4270
22301SOL    HW268037   1.027   2.407   7.508 -0.4089 -0.0061 -1.4776
22302SOL     OW68038   3.532   0.073   0.007  0.3446 -0.2608 -0.0461
22302SOL    HW168039   3.503   0.111  -0.076 -1.9686 -1.7002  0.0058
22302SOL    HW268040   3.592   0.002  -0.018  0.9092  0.3317 -0.3875
22303SOL     OW68041   5.668   1.738   6.916 -0.1059  0.2455 -0.3770
22303SOL    HW168042   5.755   1.701   6.906 -1.1737 -3.1810  1.6686
22303SOL    HW268043   5.670   1.782   7.001 -0.9409 -2.0051  0.8854
22304SOL     OW68044   3.493   0.854   0.346 -0.4442  0.6301 -0.1417
22304SOL    HW168045   3.510   0.889   0.259  1.5041 -2.8462 -1.3580
22304SOL    HW268046   3.580   0.849   0.387 -0.9858 -0.2611  0.9517
22305SOL     OW68047   2.162   0.384   4.823 -0.1652 -0.3603  0.0901
22305SOL    HW168048   2.207   0.406   4.742  0.8200  1.3749  1.0400
22305SOL    HW268049   2.070   0.375   4.798 -0.0845  1.4224 -1.0428
22306SOL     OW68050   5.318   0.007   1.301  0.5425 -0.5815  0.6948
22306SOL    HW168051   5.347   0.004   1.392 -0.5366 -1.6089  1.0334
22306SOL    HW268052   5.364  -0.065   1.259  1.0421 -0.1049  0.4161
22307SOL     OW68053   4.674   3.190   3.507  0.0535 -0.6690 -0.2020
22307SOL    HW168054   4.621   3.114   3.480 -1.7420  0.5682 -0.3614
22307SOL    HW268055   4.610   3.261   3.514  1.6510  0.7659  0.2078
22308SOL     OW68056   4.893   4.361   8.755 -0.1246 -0.1049  0.2039
22308SOL    HW168057   4.898   4.267   8.769  0.6804 -0.1602 -0.3888
22308SOL    HW268058   4.834   4.371   8.679  0.5223 -0.1936 -0.3162
22309SOL     OW68059   2.748   3.741   3.788  0.0439  0.3977  0.3181
22309SOL    HW168060   2.682   3.719   3.722  1.1485 -1.0618 -0.3730
22309SOL    HW268061   2.723   3.692   3.866 -0.3682  0.8356  0.4632
22310SOL     OW68062   7.327   4.049   3.384  0.1948  0.0910  0.2421
22310SOL    HW168063   7.392   3.999   3.335  1.2238  0.9235  0.7231
22310SOL    HW268064   7.378   4.101   3.445 -0.8379  1.6747 -0.1810
22311SOL     OW68065   1.126   1.711   7.698 -0.6807  0.9044  0.3921
22311SOL    HW168066   1.050   1.681   7.648  0.1425  0.4082 -0.6002
22311SOL    HW268067   1.092   1.727   7.786 -1.6870 -0.4790  0.2850
22312SOL     OW68068   1.455   8.435   2.279  0.3779  0.4392  0.7193
22312SOL    HW168069   1.525   8.396   2.332 -0.3378  0.5305  1.7698
22312SOL    HW268070   1.498   8.505   2.230  1.5974 -1.3286 -0.8534
22313SOL     OW68071   0.826   5.534   6.494  0.4662  0.2398  0.0075
22313SOL    HW168072   0.849   5.475   6.565 -1.8415 -2.9326 -1.6449
22313SOL    HW268073   0.900   5.529   6.433 -0.0275 -1.7175 -0.4914
22314SOL     OW68074   3.817   0.171   0.104 -0.1903 -0.0737  0.0437
22314SOL    HW168075   3.754   0.106   0.073  0.8581 -0.5909 -1.1136
22314SOL    HW268076   3.850   0.134   0.187  0.6107 -1.2067 -0.7494
22315SOL     OW68077   4.456   7.018   3.766  0.0596 -0.0537  0.3304
22315SOL    HW168078   4.406   7.087   3.811  0.8947 -0.4602  1.9525
22315SOL    HW268079   4.544   7.053   3.758  0.1524 -0.3820 -0.1225
22316SOL     OW68080   7.209   3.487   5.067 -0.6448  0.1441  0.3174
22316SOL    HW168081   7.169   3.435   4.998  1.5318 -0.3524 -0.6304
22316SOL    HW268082   7.206   3.430   5.145  0.9945 -1.1498 -0.5115
22317SOL     OW68083   2.006   5.076   2.235 -0.0633  0.2534  0.7377
22317SOL    HW168084   1.998   5.138   2.163 -1.4598 -0.9717 -0.2156
22317SOL    HW268085   2.009   5.130   2.314 -0.6614  1.5436 -0.1043
22318SOL     OW68086   5.809   3.868   9.095 -0.2250  0.2488  0.2560
22318SOL    HW168087   5.857   3.923   9.156  0.8523  2.8417 -2.6470
22318SOL    HW268088   5.717   3.887   9.111 -0.1640 -1.2040  2.7517
22319SOL     OW68089   4.963   5.019   6.845  0.6989  0.0642  0.2919
22319SOL    HW168090   4.977   5.078   6.920 -1.6107  2.5455 -1.0577
22319SOL    HW268091   5.004   5.064   6.771 -1.6656  0.3911 -0.9054
22320SOL     OW68092   1.726   5.877   8.705  0.8801  0.0489 -0.6997
22320SOL    HW168093   1.819   5.858   8.689  1.1148  0.5651  0.0125
22320SOL    HW268094   1.712   5.963   8.665  1.0612  0.5911  0.3565
22321SOL     OW68095   7.060   7.221   5.541  0.2587  0.5632  0.4259
22321SOL    HW168096   7.032   7.162   5.471 -0.9932  2.0643 -0.4088
22321SOL    HW268097   6.980   7.240   5.590  0.3922  2.2943  0.0678
22322SOL     OW68098   7.577   2.431   8.835  0.6968  0.2149 -0.4829
22322SOL    HW168099   7.672   2.427   8.822  0.4350 -1.6495 -2.2946
22322SOL    HW268100   7.543   2.458   8.749 -0.3609  3.0637  0.7023
22323SOL     OW68101   5.474   0.469   0.529 -0.0331 -0.2706  0.0294
22323SOL    HW168102   5.545   0.492   0.589 -0.4873 -1.4915  1.0500
22323SOL    HW268103   5.435   0.391   0.566  0.1383 -1.5172 -2.2371
22324SOL     OW68104   3.281   5.834   1.311 -0.1189 -0.7820 -0.6394
22324SOL    HW168105   3.232   5.761   1.349 -0.2209 -0.1617  0.4669
22324SOL    HW268106   3.290   5.812   1.218 -0.8682 -1.7928 -0.4826
22325SOL     OW68107   4.475   4.884   2.096 -0.3678  0.1233  0.3751
22325SOL    HW168108   4.415   4.945   2.138  1.6157  1.0340  2.0452
22325SOL    HW268109   4.472   4.805   2.151  0.3325  0.3725  0.7860
22326SOL     OW68110   3.016   6.287   0.079  0.0766 -0.4807 -0.3186
22326SOL    HW168111   3.083   6.353   0.098 -0.3512  0.1504 -0.9343
22326SOL    HW268112   2.942   6.337   0.046 -2.2751 -0.7092  3.9294
22327SOL     OW68113   1.506   7.397   3.497 -0.2471  0.1170 -0.0877
22327SOL    HW168114   1.568   7.446   3.442  1.3906 -0.2546  1.3393
22327SOL    HW268115   1.447   7.464   3.530  0.5865  0.8170  0.0382
22328SOL     OW68116   0.674   8.530   8.274 -0.4739  0.1355  0.0646
22328SOL    HW168117   0.579   8.544   8.279 -0.6846 -1.1053 -0.3511
22328SOL    HW268118   0.692   8.519   8.181  0.1252  0.5689  0.1203
22329SOL     OW68119   1.226   3.311   4.729  0.3827 -0.6873 -0.0491
22329SOL    HW168120   1.321   3.295   4.733  0.3784 -0.5497  0.7675
22329SOL    HW268121   1.192   3.242   4.673  1.0396 -0.4237 -0.7899
22330SOL     OW68122   7.582   5.709   4.776  0.3483 -0.3896  0.4681
22330SOL    HW168123   7.494   5.680   4.752  0.5027  0.2521 -0.9921
22330SOL    HW268124   7.596   5.788   4.723  1.0153  0.7220  2.2217
22331SOL     OW68125   7.313   6.986   2.382 -0.6237  0.1567  0.0442
22331SOL    HW168126   7.314   6.989   2.477  0.7408  0.7440  0.0396
22331SOL    HW268127   7.402   7.011   2.356 -0.6498 -1.0342 -1.3588
22332SOL     OW68128   3.933   0.089   0.931  0.3791 -0.1562  0.1045
22332SOL    HW168129   3.947  -0.004   0.951  0.1348  0.1311  1.7827
22332SOL    HW268130   4.016   0.130   0.952  0.7379 -0.0866 -1.3960
22333SOL     OW68131   6.844   1.876   3.601  0.2492 -0.3287  0.1707
22333SOL    HW168132   6.786   1.927   3.657 -0.3524  1.4184 -1.8905
22333SOL    HW268133   6.837   1.786   3.633 -1.7626  0.2362  1.4590
22334SOL     OW68134   3.765   7.978   3.346  0.4399 -0.1795  0.1181
22334SOL    HW168135   3.748   8.022   3.263  1.4436 -1.3463 -0.7478
22334SOL    HW268136   3.678   7.962   3.383  0.0209  1.1433 -0.2677
22335SOL     OW68137   4.045   2.713   4.985 -0.2387  0.5395 -0.3688
22335SOL    HW168138   4.139   2.708   5.001 -0.3334  0.3216  0.1694
22335SOL    HW268139   4.023   2.805   5.002 -0.3587  0.2867  0.9834
22336SOL     OW68140   5.342   4.736   3.786 -0.1381 -0.4335 -0.1599
22336SOL    HW168141   5.382   4.809   3.833 -0.2001  0.0447 -0.8534
22336SOL    HW268142   5.250   4.739   3.812  0.0517 -0.9165  0.6335
22337SOL     OW68143   2.087   4.396   1.414 -0.8149 -0.1209 -0.7958
22337SOL    HW168144   2.030   4.461   1.374 -0.3765  0.8734  0.1454
22337SOL    HW268145   2.176   4.428   1.397 -0.6025  1.3277  2.3949
22338SOL     OW68146   3.553   7.417   2.174  0.3819 -0.2589 -0.7657
22338SOL    HW168147   3.588   7.380   2.093 -0.0304  0.0589 -1.0915
22338SOL    HW268148   3.478   7.471   2.146 -1.5574 -2.3669  0.0664
22339SOL     OW68149   1.809   6.550   1.690 -0.0573  0.2229 -0.0859
22339SOL    HW168150   1.773   6.612   1.753  0.7789 -0.3360  0.9745
22339SOL    HW268151   1.762   6.468   1.707 -0.5637  0.3241 -0.9122
22340SOL     OW68152   3.901   5.713   2.960 -0.2792  0.4302 -0.0097
22340SOL    HW168153   3.940   5.648   2.903 -0.4546 -0.5098  0.9151
22340SOL    HW268154   3.839   5.760   2.904 -0.1414 -0.1776 -0.6849
22341SOL     OW68155   6.808   5.850   2.656  0.7199 -0.0474 -0.0860
22341SOL    HW168156   6.857   5.779   2.697 -1.7138 -0.8796  1.6622
22341SOL    HW268157   6.773   5.811   2.575  1.2996 -0.0767 -0.3261
22342SOL     OW68158   1.219   1.869   7.447  0.6977 -0.1553 -0.1067
22342SOL    HW168159   1.222   1.797   7.510  2.9573 -0.1153 -0.0885
22342SOL    HW268160   1.274   1.839   7.374  0.1356  0.8015 -0.9417
22343SOL     OW68161   8.330   3.168   4.511  0.1004  0.6005 -0.3501
22343SOL    HW168162   8.333   3.090   4.567  1.2760 -1.5077 -3.0577
22343SOL    HW268163   8.273   3.229   4.557  1.2307 -0.7735  3.2167
22344SOL     OW68164   1.009   6.746   6.298  0.6309  0.0027  0.1503
22344SOL    HW168165   1.055   6.812   6.246  0.0500  0.0871 -0.2629
22344SOL    HW268166   0.998   6.671   6.239 -0.1267  0.1379  0.1085
22345SOL     OW68167   4.092   0.538   0.027 -0.5048  0.1739  0.5570
22345SOL    HW168168   4.016   0.594   0.013  0.8145  1.7703 -0.6546
22345SOL    HW268169   4.060   0.449   0.008 -1.8785  0.8893 -0.6765
22346SOL     OW68170   1.322   0.148   0.716  0.4655  0.1509 -0.2478
22346SOL    HW168171   1.324   0.084   0.646 -1.1916  0.6154 -0.7619
22346SOL    HW268172   1.386   0.215   0.689  2.2916 -1.2629  0.3534
22347SOL     OW68173   6.276   1.264   5.238 -0.3001 -0.2106  0.4017
22347SOL    HW168174   6.293   1.206   5.312 -0.5743  0.5057  1.0518
22347SOL    HW268175   6.238   1.342   5.278  2.1480  1.3823 -0.1525
22348SOL     OW68176   5.991   6.751   6.004 -0.6323 -0.0286 -0.5159
22348SOL    HW168177   5.905   6.718   5.981 -0.3425 -1.4924  0.3756
22348SOL    HW268178   6.052   6.682   5.976  0.1652  0.5424 -0.2370
22349SOL     OW68179   5.749   7.440   5.396  0.5800 -0.3665 -0.6988
22349SOL    HW168180   5.755   7.426   5.301 -1.6170 -1.7203 -0.7280
22349SOL    HW268181   5.684   7.375   5.425  0.9379  0.2554  1.6899
22350SOL     OW68182   5.667   8.920   4.382 -0.0274  0.1926 -0.0064
22350SOL    HW168183   5.678   9.009   4.414  0.6057 -0.0871  0.5846
22350SOL    HW268184   5.668   8.866   4.461 -2.7055 -0.1710 -0.1287
22351SOL     OW68185   1.693   8.366   0.513  1.2960  0.0147  0.3628
22351SOL    HW168186   1.601   8.376   0.491  1.2472 -1.8444 -0.4501
22351SOL    HW268187   1.710   8.272   0.506  2.7651  0.0478  2.5138
22352SOL     OW68188   6.959   4.579   1.717 -0.4957  0.0435  0.5008
22352SOL    HW168189   6.998   4.547   1.636 -0.2085 -0.5134  0.8596
22352SOL    HW268190   6.885   4.632   1.688 -0.0537  0.3268 -0.1491
22353SOL     OW68191   7.798   7.018   2.372 -0.0749 -0.7886 -0.4074
22353SOL    HW168192   7.875   6.960   2.376  0.5093 -0.0171 -0.2116
22353SOL    HW268193   7.768   7.024   2.463 -0.1354 -0.7845 -0.4279
22354SOL     OW68194   3.955   2.866   8.020  0.2235  0.1520  0.5320
22354SOL    HW168195   4.049   2.850   8.030  0.1807  0.0279  0.7255
22354SOL    HW268196   3.948   2.962   8.020  0.5418  0.2149 -1.2146
22355SOL     OW68197   2.039   1.879   1.278  0.1144  0.6812  0.1879
22355SOL    HW168198   1.991   1.941   1.332  1.2984  1.3553  0.5139
22355SOL    HW268199   2.096   1.934   1.223 -0.6023 -0.0114 -1.3143
22356SOL     OW68200   0.212   8.920   7.309  0.2143 -0.4977  0.1183
22356SOL    HW168201   0.132   8.933   7.361  0.4969 -1.5405  0.8439
22356SOL    HW268202   0.253   8.843   7.348  1.3206 -0.2739 -0.5743
22357SOL     OW68203   9.105   2.245   2.159 -0.3044  0.5892  0.6166
22357SOL    HW168204   9.096   2.270   2.067 -1.0453 -0.0684  0.4969
22357SOL    HW268205   9.199   2.239   2.173 -0.1877  0.2379 -0.2352
22358SOL     OW68206   6.092   2.781   6.383 -0.4700 -0.3274 -0.3197
22358SOL    HW168207   6.088   2.768   6.288 -1.2525  1.3128 -0.5296
22358SOL    HW268208   6.009   2.821   6.406 -2.1547 -4.3784  1.7399
22359SOL     OW68209   9.056   0.290   5.985 -0.2215 -0.1272  0.5008
22359SOL    HW168210   9.089   0.301   6.074  1.1905 -0.6865  0.0679
22359SOL    HW268211   8.989   0.358   5.976 -0.2661  0.0456  1.9223
22360SOL     OW68212   7.866   3.565   7.256  0.9011 -0.2084 -0.7624
22360SOL    HW168213   7.958   3.581   7.277  0.9723 -0.4017 -0.9342
22360SOL    HW268214   7.839   3.498   7.318  1.6791 -2.3346 -2.6178
22361SOL     OW68215   3.922   4.547   3.645 -0.6585 -0.1194 -0.4764
22361SOL    HW168216   3.945   4.582   3.559 -1.1945 -0.8990 -0.9487
22361SOL    HW268217   3.951   4.455   3.642  1.9252  0.5279  1.1935
22362SOL     OW68218   4.359   2.328   5.694  0.3292  0.5122 -0.3497
22362SOL    HW168219   4.414   2.405   5.678  1.1222 -0.0427 -0.3471
22362SOL    HW268220   4.416   2.253   5.677 -1.0189 -0.1208 -2.4111
22363SOL     OW68221   0.090   6.558   2.372 -0.3739  0.0294  0.1186
22363SOL    HW168222  -0.003   6.541   2.353 -0.5166  0.9091 -0.0215
22363SOL    HW268223   0.133   6.553   2.286 -0.5223  0.9878 -0.0184
22364SOL     OW68224   6.607   4.505   3.485  0.4062 -0.4122 -0.5216
22364SOL    HW168225   6.641   4.493   3.574 -0.9359  0.5392  0.1454
22364SOL    HW268226   6.553   4.427   3.470  0.0028 -0.1968 -0.1961
22365SOL     OW68227   3.818   0.350   2.012  0.1299 -0.1209 -0.3612
22365SOL    HW168228   3.739   0.310   1.973  0.3004  0.7637 -1.6904
22365SOL    HW268229   3.831   0.430   1.962  0.5114  0.9893  1.4453
22366SOL     OW68230   8.638   5.861   0.395 -0.0571 -0.0697 -0.2400
22366SOL    HW168231   8.642   5.799   0.322  2.5722  0.4043 -0.5897
22366SOL    HW268232   8.595   5.938   0.358 -1.1951 -0.7900 -0.4750
22367SOL     OW68233   4.513   3.139   2.441 -0.0893  0.4929  0.1188
22367SOL    HW168234   4.434   3.087   2.427 -0.6985  1.4443 -0.0472
22367SOL    HW268235   4.507   3.168   2.533  0.2746  0.2341  0.2284
22368SOL     OW68236   7.209   7.517   6.429  0.3333 -0.7504  0.3848
22368SOL    HW168237   7.184   7.606   6.454  0.2532 -0.4118 -0.8495
22368SOL    HW268238   7.264   7.487   6.501 -0.0556  0.1084  1.0553
22369SOL     OW68239   8.316   0.326   3.778 -0.6398 -0.0696  0.1800
22369SOL    HW168240   8.251   0.284   3.721 -0.9437  0.6129  0.0110
22369SOL    HW268241   8.395   0.272   3.768 -1.0032 -0.5593 -0.0798
22370SOL     OW68242   6.150   3.563   4.314  0.4467  0.5177  0.7141
22370SOL    HW168243   6.079   3.601   4.263 -0.1058  0.0550  1.1262
22370SOL    HW268244   6.180   3.488   4.262  0.3631  0.4771  0.7240
22371SOL     OW68245   8.773   2.619   7.403 -0.2666 -0.0744 -0.2329
22371SOL    HW168246   8.768   2.552   7.472 -2.0412  0.7699  0.5249
22371SOL    HW268247   8.854   2.665   7.420  1.2068 -2.2214 -1.0027
22372SOL     OW68248   4.331   8.605   2.242 -0.5601  0.5901  0.3721
22372SOL    HW168249   4.345   8.698   2.257 -0.9881  0.6288  0.5542
22372SOL    HW268250   4.417   8.571   2.217 -0.4098  1.0383  0.2704
22373SOL     OW68251   3.143   2.672   3.941 -0.6410  0.4704  0.6635
22373SOL    HW168252   3.211   2.699   4.004  0.2869 -0.1837 -0.0241
22373SOL    HW268253   3.191   2.622   3.874 -1.8823 -0.4275  0.4106
22374SOL     OW68254   3.665   6.343   1.544 -0.3628  0.3647  0.5503
22374SOL    HW168255   3.632   6.386   1.623 -0.1212 -0.5348  1.1476
22374SOL    HW268256   3.698   6.415   1.491 -0.3456  0.9692  1.3534
22375SOL     OW68257   7.415   4.417   3.283 -0.1956 -0.6391 -0.1882
22375SOL    HW168258   7.461   4.348   3.234  1.0178  0.3119 -0.4187
22375SOL    HW268259   7.334   4.430   3.234  0.7495 -0.0810 -1.6731
22376SOL     OW68260   3.257   2.359   3.508 -0.2160  0.2196 -0.8295
22376SOL    HW168261   3.312   2.434   3.487  0.6622 -0.0387  0.4263
22376SOL    HW268262   3.200   2.389   3.579  1.5638 -0.8300  1.1519
22377SOL     OW68263   1.894   1.010   5.407 -0.2037  0.0734  0.1151
22377SOL    HW168264   1.875   1.098   5.438  0.0522  0.5371 -0.9963
22377SOL    HW268265   1.807   0.971   5.391 -0.3156  0.6349 -0.7374
22378SOL     OW68266   2.670   0.516   7.925  0.3257 -0.1717  0.2405
22378SOL    HW168267   2.596   0.558   7.881  1.3893  0.8260 -0.6554
22378SOL    HW268268   2.719   0.475   7.854  0.7585 -0.6234  0.7975
22379SOL     OW68269   3.449   3.240   8.869 -0.0141 -0.1753 -0.5766
22379SOL    HW168270   3.442   3.334   8.859  0.1414 -0.0387  0.4766
22379SOL    HW268271   3.498   3.228   8.951 -0.3296 -1.1628 -0.5163
22380SOL     OW68272   4.185   8.241   5.771  0.4147 -0.2061 -0.6280
22380SOL    HW168273   4.095   8.225   5.741  0.4590 -0.9724 -0.3691
22380SOL    HW268274   4.237   8.245   5.690  0.4564 -1.7710 -0.7005
22381SOL     OW68275   3.269   4.926   4.650  0.0467  0.1504 -0.2885
22381SOL    HW168276   3.352   4.949   4.692 -0.4432 -0.2895  0.9497
22381SOL    HW268277   3.231   5.010   4.624  1.9122  0.3003 -3.0305
22382SOL     OW68278   8.500   5.714   2.075  0.5556 -0.6823 -0.1820
22382SOL    HW168279   8.447   5.762   2.012  1.1153 -0.8181 -0.7644
22382SOL    HW268280   8.535   5.782   2.133 -0.0209 -0.5658  0.0372
22383SOL     OW68281   1.786   5.713   5.441 -0.3084 -0.3598 -0.2635
22383SOL    HW168282   1.729   5.787   5.421  0.5060  0.0317 -1.2078
22383SOL    HW268283   1.875   5.744   5.421  0.0578 -1.5554 -0.6086
22384SOL     OW68284   0.928   1.382   1.156 -0.1672 -0.0479 -0.0336
22384SOL    HW168285   0.835   1.369   1.178 -0.0582 -1.4751 -0.3191
22384SOL    HW268286   0.971   1.302   1.186  0.9106  0.4069 -0.3110
22385SOL     OW68287   5.185   0.427   8.809  0.4458 -0.3955  0.1543
22385SOL    HW168288   5.266   0.376   8.810  0.1215 -0.9422 -0.5462
22385SOL    HW268289   5.160   0.434   8.901  0.3940 -1.6738  0.2510
22386SOL     OW68290   9.079   7.013   0.763 -0.0189  0.1737  0.2667
22386SOL    HW168291   9.026   7.089   0.787  0.3615  0.5811 -0.1497
22386SOL    HW268292   9.149   7.011   0.829  0.0734  0.2934  0.1723
22387SOL     OW68293   2.854   7.876   5.289  0.5621 -0.4041  0.0576
22387SOL    HW168294   2.895   7.930   5.221 -3.1704  1.1917 -1.2143
22387SOL    HW268295   2.896   7.791   5.280  3.7490  1.0991 -0.7414
22388SOL     OW68296   3.008   6.355   6.095  0.3198  0.4514 -0.2965
22388SOL    HW168297   2.996   6.449   6.109 -0.2390  0.2073  1.0543
22388SOL    HW268298   2.922   6.317   6.110  0.3824 -0.2287 -1.5148
22389SOL     OW68299   5.330   5.700   4.462 -0.0809 -0.2310 -0.4163
22389SOL    HW168300   5.258   5.643   4.433  1.3469 -2.0989 -0.5110
22389SOL    HW268301   5.336   5.685   4.556 -0.4217  0.6926 -0.2350
22390SOL     OW68302   7.923   3.922   4.031  0.2266  0.1025 -0.0804
22390SOL    HW168303   7.875   3.842   4.012  0.2385 -0.1769  1.0139
22390SOL    HW268304   7.970   3.942   3.950 -1.8687  0.5046 -1.2957
22391SOL     OW68305   0.875   2.127   5.067 -0.2105 -0.5716 -0.2930
22391SOL    HW168306   0.795   2.084   5.099 -0.4270  0.5586  0.8156
22391SOL    HW268307   0.843   2.197   5.011 -0.0969  0.5270  0.9508
22392SOL     OW68308   7.727   7.980   8.361 -0.2460  0.2329 -0.0825
22392SOL    HW168309   7.706   7.921   8.433  2.3854  0.7551  1.2353
22392SOL    HW268310   7.773   7.925   8.297 -0.9724  0.1543 -0.5543
22393SOL     OW68311   1.442   3.419   6.956  0.5068  0.1637  0.5330
22393SOL    HW168312   1.462   3.487   6.892  2.3812  0.2322  1.1445
22393SOL    HW268313   1.425   3.341   6.903 -1.3344  0.9601 -0.1603
22394SOL     OW68314   5.604   1.802   6.216 -0.3754 -0.4443  0.5393
22394SOL    HW168315   5.680   1.850   6.251  0.1333 -0.9926  0.2122
22394SOL    HW268316   5.640   1.749   6.145 -1.3611  0.4774 -0.6852
22395SOL     OW68317   2.072   4.420   3.207  0.2574 -0.1827 -0.6876
22395SOL    HW168318   2.116   4.484   3.150 -0.2883  1.4536  0.6251
22395SOL    HW268319   1.979   4.429   3.186 -0.3207  2.5628  2.2696
22396SOL     OW68320   0.345   8.070   7.982  0.2113 -0.0189  0.1839
22396SOL    HW168321   0.374   8.160   7.992  1.2691 -0.1658 -1.1987
22396SOL    HW268322   0.287   8.054   8.057  0.1907  1.7141  0.5659
22397SOL     OW68323   3.779   1.488   5.196  0.7161  0.1957 -0.2992
22397SOL    HW168324   3.689   1.519   5.196  0.0110 -1.6575 -1.3484
22397SOL    HW268325   3.784   1.429   5.271  0.1265 -1.9320 -1.8201
22398SOL     OW68326   3.074   6.846   6.843 -0.1147  0.0212  0.2891
22398SOL    HW168327   3.086   6.799   6.926  0.7382 -0.9155 -0.3419
22398SOL    HW268328   3.157   6.834   6.797  0.2199  2.3323  0.1665
22399SOL     OW68329   4.870   7.496   7.606 -0.1330  0.3606 -0.0334
22399SOL    HW168330   4.855   7.576   7.656  2.1004  1.0513 -0.3420
22399SOL    HW268331   4.931   7.445   7.661  0.9532  0.3405 -1.2108
22400SOL     OW68332   4.248   1.350   2.645  0.1325 -0.6384  0.0622
22400SOL    HW168333   4.253   1.404   2.566  0.8595  0.6360  0.9292
22400SOL    HW268334   4.168   1.298   2.634 -1.3532  1.5823 -0.2452
22401SOL     OW68335   1.761   2.662   8.055  0.3348  0.1848  0.3255
22401SOL    HW168336   1.828   2.729   8.048  0.0375  0.3853 -0.7665
22401SOL    HW268337   1.806   2.581   8.031  0.0345  0.4303 -1.1680
22402SOL     OW68338   2.711   4.270   0.910 -0.8564 -0.4088  0.8470
22402SOL    HW168339   2.721   4.180   0.879  0.6648  0.0086  0.0638
22402SOL    HW268340   2.776   4.279   0.980 -0.8798  0.1383  0.8006
22403SOL     OW68341   4.251   0.217   8.610 -0.4702 -0.1929 -0.0115
22403SOL    HW168342   4.180   0.163   8.574 -0.4169 -0.6978  0.6388
22403SOL    HW268343   4.316   0.154   8.640 -0.8133  0.1880  1.6112
22404SOL     OW68344   4.365   5.743   5.100  0.3158  0.4087  0.0837
22404SOL    HW168345   4.292   5.713   5.154 -0.8475  2.3956 -0.3022
22404SOL    HW268346   4.344   5.834   5.079  2.8547  1.0106 -0.1458
22405SOL     OW68347   8.111   4.687   0.632  0.5838 -0.4202  0.7648
22405SOL    HW168348   8.039   4.743   0.662  0.7349  0.0984  0.1645
22405SOL    HW268349   8.148   4.733   0.557  3.1213  0.5691  2.4864
22406SOL     OW68350   7.993   3.910   4.879 -0.1228  0.2239  0.0372
22406SOL    HW168351   7.983   3.996   4.839  1.3498  1.2921  1.8313
22406SOL    HW268352   8.086   3.890   4.870 -0.1599 -0.4572  1.0322
22407SOL     OW68353   1.899   4.767   7.672  0.4776 -0.2897 -0.7408
22407SOL    HW168354   1.894   4.788   7.579 -1.2759 -0.1166 -0.6520
22407SOL    HW268355   1.822   4.711   7.688  1.3506 -1.2203  0.3877
22408SOL     OW68356   6.117   1.211   8.602 -0.5453 -0.3847  0.2633
22408SOL    HW168357   6.190   1.227   8.542 -0.4521  0.3987  0.5694
22408SOL    HW268358   6.101   1.296   8.643 -2.2905 -0.3031 -0.5152
22409SOL     OW68359   0.380   7.542   5.275  0.0123 -0.3732  0.1024
22409SOL    HW168360   0.438   7.610   5.309 -2.0481  1.9441 -0.7288
22409SOL    HW268361   0.411   7.526   5.186  0.0931 -0.0028  0.0618
22410SOL     OW68362   7.543   8.740   9.057 -0.0181  0.6254  0.2538
22410SOL    HW168363   7.459   8.785   9.067 -0.6150 -0.0899 -1.4054
22410SOL    HW268364   7.591   8.793   8.993 -0.6603 -0.9515 -1.5943
22411SOL     OW68365   6.929   1.919   0.690  0.0797  0.1940 -0.4262
22411SOL    HW168366   6.933   1.824   0.674  0.3824  0.0566  0.4326
22411SOL    HW268367   6.978   1.957   0.618  0.8533 -0.3716 -0.2139
22412SOL     OW68368   4.798   6.223   5.702  0.1970  0.1624 -0.2767
22412SOL    HW168369   4.876   6.264   5.666 -0.5349  1.1142 -0.8215
22412SOL    HW268370   4.728   6.244   5.640 -0.5412 -0.4898  0.3030
22413SOL     OW68371   8.041   0.339   4.428 -0.4089  0.2681 -0.0337
22413SOL    HW168372   8.006   0.420   4.391  1.2995  1.8292  1.5442
22413SOL    HW268373   8.028   0.349   4.523  2.9158  0.3233  0.5155
22414SOL     OW68374   3.894   2.331   4.672  0.7582 -0.4177  0.3384
22414SOL    HW168375   3.803   2.350   4.697  0.6041  0.5470 -0.8474
22414SOL    HW268376   3.946   2.362   4.746  0.2958  1.9048 -0.2224
22415SOL     OW68377   4.432   5.311   5.909 -0.0067  0.2304  0.0470
22415SOL    HW168378   4.472   5.345   5.989  2.4288 -0.5747 -0.7329
22415SOL    HW268379   4.348   5.274   5.938  1.1564 -0.8062  2.4277
22416SOL     OW68380   7.167   8.369   5.029  0.0406  0.0164 -0.0821
22416SOL    HW168381   7.132   8.423   4.957 -0.2253  0.3855  0.3178
22416SOL    HW268382   7.168   8.280   4.994 -4.4721 -0.6872  0.9147
22417SOL     OW68383   7.491   8.261   1.367 -0.2360 -0.3188 -0.7205
22417SOL    HW168384   7.434   8.190   1.396 -1.7088  0.7320 -0.9784
22417SOL    HW268385   7.460   8.284   1.280  0.7235  0.1427 -0.9561
22418SOL     OW68386   5.398   2.378   1.294 -0.4792 -0.0566 -0.6667
22418SOL    HW168387   5.306   2.379   1.322 -0.2882  0.1848 -0.0192
22418SOL    HW268388   5.405   2.452   1.234  0.2749  2.8573  2.6827
22419SOL     OW68389   3.433   3.637   7.889 -0.3195 -0.3933 -0.0891
22419SOL    HW168390   3.465   3.723   7.860  0.7974 -0.1676  1.7083
22419SOL    HW268391   3.444   3.581   7.812  1.0545  0.5497 -0.6259
22420SOL     OW68392   3.830   5.315   2.524  0.1209  0.1802 -0.2698
22420SOL    HW168393   3.799   5.346   2.610 -2.1964 -0.3395 -0.8493
22420SOL    HW268394   3.850   5.223   2.538 -1.8265 -0.3480 -0.5739
22421SOL     OW68395   5.815   3.797   1.648 -0.1585  0.1177  0.3773
22421SOL    HW168396   5.738   3.742   1.662  0.0043 -0.0315  0.6872
22421SOL    HW268397   5.820   3.852   1.726  0.7365 -0.7019  0.9215
22422SOL     OW68398   6.278   6.299   1.326  0.5907 -0.1910  0.3336
22422SOL    HW168399   6.323   6.289   1.410  1.3967 -0.9157 -0.1719
22422SOL    HW268400   6.303   6.222   1.276 -1.9163 -1.0843  0.3334
22423SOL     OW68401   6.847   7.701   2.158  0.1518 -0.0386 -0.4784
22423SOL    HW168402   6.908   7.637   2.122  0.3544  0.6297 -1.3417
22423SOL    HW268403   6.760   7.668   2.134  0.0852 -1.3382  1.3119
22424SOL     OW68404   4.534   8.375   5.829  0.0138  0.1588 -0.3070
22424SOL    HW168405   4.593   8.430   5.778  1.7336  0.2318  1.6209
22424SOL    HW268406   4.533   8.291   5.782  1.5390  0.2147 -0.4891
22425SOL     OW68407   2.216   3.924   1.904  0.6956  0.0119  0.4484
22425SOL    HW168408   2.277   3.892   1.838 -1.3308 -4.0476  0.2365
22425SOL    HW268409   2.257   3.902   1.988 -0.2000 -2.4727  0.3085
22426SOL     OW68410   3.260   6.803   3.608 -0.0035 -0.3001  0.2284
22426SOL    HW168411   3.173   6.803   3.647 -0.4626 -1.4729 -0.7322
22426SOL    HW268412   3.274   6.712   3.581  0.1878  0.4457 -2.5015
22427SOL     OW68413   8.507   2.748   8.021  0.1934 -0.0506 -0.3460
22427SOL    HW168414   8.430   2.804   8.011 -0.6538 -0.6395  2.1041
22427SOL    HW268415   8.494   2.678   7.956  0.3439  1.5250 -2.1696
22428SOL     OW68416   8.669   4.820   3.001 -0.1129 -0.1426 -0.0488
22428SOL    HW168417   8.645   4.903   2.958  0.0094  1.4315  2.7186
22428SOL    HW268418   8.744   4.842   3.055 -0.4083 -1.9339  1.1697
22429SOL     OW68419   7.258   1.058   5.700  0.2154  0.5142  0.0247
22429SOL    HW168420   7.204   0.994   5.746  1.8908 -0.5030  0.6816
22429SOL    HW268421   7.221   1.063   5.612 -1.1937  0.2168  0.5827
22430SOL     OW68422   8.672   7.626   7.353 -0.4059 -0.2901  0.2948
22430SOL    HW168423   8.646   7.707   7.309  0.9486 -1.0071 -2.0072
22430SOL    HW268424   8.763   7.642   7.380 -0.7188 -0.4300  1.4557
22431SOL     OW68425   3.740   2.983   1.419 -0.0575 -0.0838  0.5946
22431SOL    HW168426   3.718   3.075   1.401  1.2053 -0.0029 -0.6979
22431SOL    HW268427   3.747   2.979   1.515 -2.0202  0.6850  0.8176
22432SOL     OW68428   6.805   5.053   6.359  0.4155  0.1789 -0.2852
22432SOL    HW168429   6.791   5.054   6.264 -2.3181 -0.2886  0.0523
22432SOL    HW268430   6.812   4.960   6.382  0.3650  0.2622  0.0726
22433SOL     OW68431   1.954   7.081   6.227  0.2605  0.8941 -0.1076
22433SOL    HW168432   1.924   6.993   6.250 -0.9861  1.1207 -0.7876
22433SOL    HW268433   2.030   7.067   6.172 -0.0664  0.2320 -0.4007
22434SOL     OW68434   2.112   2.780   6.673 -0.2118  0.2973 -0.2627
22434SOL    HW168435   2.067   2.861   6.697  0.9079  1.0328 -0.5964
22434SOL    HW268436   2.050   2.735   6.615 -1.3081  0.3554  0.8175
22435SOL     OW68437   5.229   6.459   0.183  0.0548  0.4413  0.1559
22435SOL    HW168438   5.221   6.425   0.272  1.9195  1.7772  0.8826
22435SOL    HW268439   5.294   6.403   0.141 -0.0970  0.4266 -0.0663
22436SOL     OW68440   8.531   4.457   7.793 -0.3440 -0.4076 -0.2227
22436SOL    HW168441   8.569   4.536   7.754 -0.2035 -0.7815 -0.8721
22436SOL    HW268442   8.583   4.443   7.872 -0.5906  0.3354  0.0788
22437SOL     OW68443   3.635   7.071   3.917  0.2662 -0.3055  0.1177
22437SOL    HW168444   3.557   7.073   3.973  0.7937  3.0415  0.9670
22437SOL    HW268445   3.707   7.096   3.975  1.1415  1.4241 -1.6051
22438SOL     OW68446   7.292   0.380   8.675  0.1952 -0.6519  0.0062
22438SOL    HW168447   7.214   0.325   8.677  0.4355 -1.0006 -0.0264
22438SOL    HW268448   7.286   0.434   8.754 -0.5725  0.0229 -0.4998
22439SOL     OW68449   7.494   1.352   0.168 -0.3142 -0.1666  0.1144
22439SOL    HW168450   7.506   1.268   0.123  1.2717 -0.1484  0.4244
22439SOL    HW268451   7.456   1.410   0.102 -2.0861 -1.2813  0.0949
22440SOL     OW68452   6.326   7.093   5.858  0.0874 -0.1721  0.6441
22440SOL    HW168453   6.341   7.003   5.889  0.9548 -0.2058  0.1590
22440SOL    HW268454   6.384   7.102   5.783 -0.5474  0.5604  0.2324
22441SOL     OW68455   0.210   4.911   6.960  0.6471  0.0447  0.4893
22441SOL    HW168456   0.164   4.918   6.876 -1.7681 -0.7796  1.6566
22441SOL    HW268457   0.263   4.990   6.964 -0.3011  0.8369 -1.1822
22442SOL     OW68458   5.411   5.750   5.600 -0.6174  0.5126  0.2514
22442SOL    HW168459   5.457   5.691   5.659 -0.9548  1.1098  1.1235
22442SOL    HW268460   5.337   5.784   5.651 -0.4635  1.6464 -0.2378
22443SOL     OW68461   8.326   6.932   5.066 -0.3161 -0.4825 -0.7056
22443SOL    HW168462   8.344   7.010   5.119 -0.8192 -1.5180  1.0909
22443SOL    HW268463   8.360   6.953   4.979  1.1674  1.0676  0.1844
22444SOL     OW68464   8.060   1.764   8.644 -0.7772 -0.2436  0.6893
22444SOL    HW168465   8.149   1.798   8.642 -0.0244 -2.1103 -0.1415
22444SOL    HW268466   8.035   1.760   8.551 -2.1354  1.1948  0.9571
22445SOL     OW68467   4.081   7.577   2.938  0.1570  0.1041 -0.2614
22445SOL    HW168468   4.036   7.494   2.924 -0.3514 -0.0699  2.1386
22445SOL    HW268469   4.173   7.556   2.922  0.0228 -0.8852  0.1925
22446SOL     OW68470   2.501   1.657   1.051 -0.2864 -0.4244  0.1358
22446SOL    HW168471   2.517   1.631   1.141 -0.2092  0.2271  0.3143
22446SOL    HW268472   2.459   1.743   1.057 -1.2796 -0.8554 -0.4146
22447SOL     OW68473   4.019   1.544   0.433  0.0661 -0.4859  0.3376
22447SOL    HW168474   3.955   1.473   0.432 -1.5685  0.9300  0.5860
22447SOL    HW268475   4.034   1.564   0.340 -0.8401  0.0176  0.2939
22448SOL     OW68476   2.602   7.052   1.082  0.3881 -0.1212  0.1067
22448SOL    HW168477   2.649   6.994   1.022  0.5477 -0.7613  0.8334
22448SOL    HW268478   2.575   6.995   1.154 -3.1060 -0.2103 -1.1036
22449SOL     OW68479   0.363   4.702   1.878  0.3224 -0.2952 -0.3665
22449SOL    HW168480   0.303   4.693   1.803  0.7174  1.3710 -0.9209
22449SOL    HW268481   0.444   4.661   1.848  0.2600 -0.2660 -0.5806
22450SOL     OW68482   0.586   5.304   2.457  0.1719  0.2914 -0.2474
22450SOL    HW168483   0.606   5.389   2.494 -0.4219 -0.3766  1.7106
22450SOL    HW268484   0.497   5.314   2.421  0.1763  0.5419 -0.1889
22451SOL     OW68485   0.314   3.464   2.897 -0.0899  0.4714 -0.2395
22451SOL    HW168486   0.402   3.452   2.861 -0.6860 -1.2934 -1.2044
22451SOL    HW268487   0.260   3.402   2.849 -1.6414  0.6530  1.2042
22452SOL     OW68488   2.905   7.980   3.348 -0.2453  1.0201 -0.5182
22452SOL    HW168489   2.966   8.053   3.360  1.3039 -0.1631 -0.8703
22452SOL    HW268490   2.875   7.988   3.257 -0.6640  1.6437 -0.3259
22453SOL     OW68491   3.451   4.291   0.699  0.1955  0.3344 -0.2504
22453SOL    HW168492   3.513   4.219   0.708 -0.4333 -0.1398  0.4901
22453SOL    HW268493   3.495   4.367   0.737  1.0133  0.4387 -1.3917
22454SOL     OW68494   8.215   2.945   6.775  0.2751 -0.3642  0.0749
22454SOL    HW168495   8.289   3.004   6.760 -0.2524  0.5770  1.0431
22454SOL    HW268496   8.146   2.977   6.717  0.1107 -0.2423  0.3332
22455SOL     OW68497   0.213   4.677   3.111 -0.0777 -1.0606 -0.3521
22455SOL    HW168498   0.139   4.618   3.127  0.4653 -1.0384  2.8766
22455SOL    HW268499   0.288   4.618   3.096  0.3873 -1.2975  2.4884
22456SOL     OW68500   0.473   1.425   1.995 -0.7714 -0.3882 -0.2093
22456SOL    HW168501   0.563   1.392   2.001 -0.4947  0.4595  0.4881
22456SOL    HW268502   0.456   1.428   1.901  0.0527 -0.2294 -0.3656
22457SOL     OW68503   5.379   6.038   0.732 -0.1092  0.5081  0.2900
22457SOL    HW168504   5.297   6.012   0.773 -0.5728  2.4588  0.6705
22457SOL    HW268505   5.378   6.134   0.733  0.9299  0.6305 -2.1425
22458SOL     OW68506   4.049   0.861   6.027 -0.2202  0.0561 -0.3794
22458SOL    HW168507   4.103   0.898   5.958  0.2566 -0.2064 -0.1494
22458SOL    HW268508   3.961   0.895   6.009  0.1683  1.1364 -0.2754
22459SOL     OW68509   3.381   3.590   3.426  0.3940  0.5555  0.2344
22459SOL    HW168510   3.381   3.495   3.412  0.6769  0.5326  0.3719
22459SOL    HW268511   3.291   3.610   3.451  0.4665  0.2294  0.7859
22460SOL     OW68512   6.888   8.168   5.755 -0.1592 -0.0682  0.2086
22460SOL    HW168513   6.967   8.145   5.803 -0.3854 -0.0061  0.6162
22460SOL    HW268514   6.832   8.092   5.763 -1.1939  0.8270  2.1589
22461SOL     OW68515   2.175   6.614   7.957  0.8606  0.4798  0.6221
22461SOL    HW168516   2.266   6.635   7.979  1.5202 -0.4023 -1.0927
22461SOL    HW268517   2.160   6.529   7.998  1.4511 -0.2441 -0.5952
22462SOL     OW68518   0.259   3.580   4.133 -0.1078 -0.1048 -0.1596
22462SOL    HW168519   0.249   3.508   4.072  1.5854 -0.4243 -0.0908
22462SOL    HW268520   0.291   3.539   4.214 -2.3071  0.2997  1.0175
22463SOL     OW68521   5.813   3.970   3.006 -0.1669 -0.7236 -0.3266
22463SOL    HW168522   5.900   3.957   3.043  0.7115 -0.1567 -2.0702
22463SOL    HW268523   5.778   3.882   2.993 -0.7155 -0.9461  2.1810
22464SOL     OW68524   5.914   7.655   6.293  0.1148  0.1849 -0.4524
22464SOL    HW168525   5.873   7.584   6.243  0.0608  0.1962 -0.4239
22464SOL    HW268526   5.999   7.668   6.250  0.4581 -0.4268  0.0240
22465SOL     OW68527   0.515   0.111   1.558  0.2363 -0.1674  0.1045
22465SOL    HW168528   0.593   0.107   1.502  0.3434 -0.6264  0.2836
22465SOL    HW268529   0.471   0.027   1.544 -0.8515  0.5390 -0.8719
22466SOL     OW68530   2.978   0.051   4.780  0.3546 -0.6730 -0.2644
22466SOL    HW168531   2.936  -0.034   4.791  0.2655 -0.4347  1.4925
22466SOL    HW268532   3.020   0.069   4.864  0.2591  1.0678 -0.5397
22467SOL     OW68533   5.958   4.139   1.070 -0.0489  0.1868  0.1891
22467SOL    HW168534   5.972   4.229   1.040 -0.8248  0.9997  2.1067
22467SOL    HW268535   5.882   4.109   1.021  0.1863  0.5796 -0.4335
22468SOL     OW68536   3.236   3.303   2.337  0.7457 -0.0494 -0.0689
22468SOL    HW168537   3.328   3.322   2.316  0.5397  1.2470  0.1287
22468SOL    HW268538   3.237   3.282   2.430  0.6840  1.2262  0.2355
22469SOL     OW68539   7.871   2.751   2.320  0.3931 -0.3279 -0.2411
22469SOL    HW168540   7.895   2.666   2.357 -0.9630  0.2795  2.2491
22469SOL    HW268541   7.907   2.749   2.231 -0.8574 -4.0648 -0.8363
22470SOL     OW68542   6.500   8.507   0.074 -0.6010  0.8720  0.0044
22470SOL    HW168543   6.460   8.564   0.008 -2.6548 -2.3158 -1.7814
22470SOL    HW268544   6.548   8.441   0.023 -0.3801 -0.4529  1.8037
22471SOL     OW68545   0.909   4.667   3.086 -0.0663 -0.0066 -0.0677
22471SOL    HW168546   0.865   4.631   3.163  0.1298 -1.1494 -0.4760
22471SOL    HW268547   1.000   4.675   3.112 -0.1751  0.5958  0.1532
22472SOL     OW68548   6.517   3.283   4.147 -0.5374 -0.2454 -0.3368
22472SOL    HW168549   6.440   3.323   4.107 -0.7839  0.9401  1.2115
22472SOL    HW268550   6.586   3.349   4.137 -0.3461 -0.3425  0.2863
22473SOL     OW68551   1.645   0.888   4.285 -0.3519 -0.5153  0.4382
22473SOL    HW168552   1.555   0.899   4.256  0.2286  0.1187 -1.2601
22473SOL    HW268553   1.689   0.968   4.255  0.4861 -0.1197  2.5344
22474SOL     OW68554   7.697   0.833   6.912  0.3378  0.1094  0.3775
22474SOL    HW168555   7.730   0.763   6.855 -0.4691  0.1511 -0.1524
22474SOL    HW268556   7.643   0.888   6.854  0.2109  0.6448  0.9929
22475SOL     OW68557   6.744   3.316   7.282 -0.3447 -0.3342 -0.7393
22475SOL    HW168558   6.679   3.248   7.262 -0.2514 -1.1860  1.6410
22475SOL    HW268559   6.691   3.393   7.305 -0.4413  0.1733 -2.4580
22476SOL     OW68560   0.097   8.781   6.176  0.0562  0.1175  0.0238
22476SOL    HW168561   0.056   8.829   6.248 -0.0708  1.0885 -0.6751
22476SOL    HW268562   0.033   8.714   6.151 -0.3902  0.5328  0.0513
22477SOL     OW68563   0.520   4.433   2.925  0.2876  0.4928 -0.1838
22477SOL    HW168564   0.440   4.385   2.901 -0.9157  1.9759  0.6653
22477SOL    HW268565   0.510   4.449   3.019  1.8955  0.1979  0.0528
22478SOL     OW68566   0.017   0.739   7.652 -0.0331 -0.5985  0.6274
22478SOL    HW168567   0.043   0.726   7.743 -0.9164 -0.1419  0.9583
22478SOL    HW268568   0.016   0.834   7.641 -2.1995 -0.5290  0.8589
22479SOL     OW68569   4.098   1.849   0.305  0.3253  0.3922 -0.0531
22479SOL    HW168570   4.036   1.852   0.233  0.7991 -1.2144 -0.5708
22479SOL    HW268571   4.131   1.938   0.312 -0.6282  0.8412 -1.0209
22480SOL     OW68572   4.808   6.879   4.349 -0.5581 -0.7971  0.0261
22480SOL    HW168573   4.793   6.922   4.264  0.6776  0.5939  0.4713
22480SOL    HW268574   4.757   6.930   4.411 -0.2966 -0.9063  0.3336
22481SOL     OW68575   3.329   4.823   2.180  0.1185  0.2584  0.0500
22481SOL    HW168576   3.326   4.813   2.085  1.1534 -0.6386  0.0850
22481SOL    HW268577   3.346   4.734   2.213 -1.9328  0.2399  1.1922
22482SOL     OW68578   5.824   5.347   0.902  0.2821  0.0259  0.4740
22482SOL    HW168579   5.892   5.413   0.891 -1.4054  1.7022 -0.5337
22482SOL    HW268580   5.793   5.331   0.813 -2.5859  1.5544  1.0790
22483SOL     OW68581   5.659   3.919   8.628 -0.0217  0.0088 -0.6352
22483SOL    HW168582   5.695   4.001   8.594 -0.8139  0.0959 -1.2742
22483SOL    HW268583   5.572   3.912   8.589  0.0663 -1.1768 -0.6574
22484SOL     OW68584   1.887   7.269   8.813  0.7247  0.0744 -0.1026
22484SOL    HW168585   1.979   7.244   8.821  0.9514  1.3127  1.8199
22484SOL    HW268586   1.869   7.320   8.892 -1.2648  0.9767 -1.0675
22485SOL     OW68587   7.028   8.446   1.012 -0.5093  0.0165  0.2587
22485SOL    HW168588   7.044   8.527   0.963 -2.3417 -0.3897 -1.1063
22485SOL    HW268589   7.000   8.475   1.099 -0.8058  0.8396 -0.1025
22486SOL     OW68590   7.169   0.657   4.490 -0.2451  0.7936  0.4510
22486SOL    HW168591   7.234   0.644   4.421 -0.5334 -0.1307  0.3381
22486SOL    HW268592   7.134   0.745   4.474 -0.9980  0.2399 -1.1865
22487SOL     OW68593   3.062   3.760   6.671 -1.1815 -0.2624  0.0463
22487SOL    HW168594   3.072   3.838   6.726 -2.3524  1.0253 -1.4765
22487SOL    HW268595   3.151   3.732   6.653 -0.7571  0.1282  1.4043
22488SOL     OW68596   7.373   1.768   3.297  0.0866 -0.1616 -0.4106
22488SOL    HW168597   7.449   1.820   3.270 -0.4964  1.2535  0.5546
22488SOL    HW268598   7.303   1.796   3.238  0.2533 -1.4082 -1.2462
22489SOL     OW68599   8.593   0.957   8.607  0.2901 -0.3631 -0.2957
22489SOL    HW168600   8.526   0.889   8.599 -1.6462  1.2324  1.3647
22489SOL    HW268601   8.564   1.026   8.548 -0.2575  0.8491  1.3321
22490SOL     OW68602   5.334   5.127   4.027 -0.3310  0.2322 -0.0572
22490SOL    HW168603   5.397   5.199   4.031  0.4593 -0.4827  0.9512
22490SOL    HW268604   5.249   5.170   4.022  0.1864  1.2242 -0.7026
22491SOL     OW68605   0.316   8.884   1.206  0.5413  1.1410 -0.5554
22491SOL    HW168606   0.302   8.958   1.147 -0.0459 -0.0653 -1.9865
22491SOL    HW268607   0.387   8.834   1.165  2.5954  2.1013  1.6218
22492SOL     OW68608   2.574   0.712   9.002 -0.3410  0.2620 -0.3475
22492SOL    HW168609   2.515   0.683   8.932 -0.2218  1.8698 -1.1584
22492SOL    HW268610   2.651   0.745   8.956 -0.7556  2.4779  0.4520
22493SOL     OW68611   3.455   5.102   8.906 -0.5208 -0.2309 -0.6510
22493SOL    HW168612   3.446   5.163   8.832 -1.0603  0.9858  0.3668
22493SOL    HW268613   3.528   5.046   8.882  2.4323  3.0824 -0.1718
22494SOL     OW68614   5.232   2.372   7.008 -0.0422 -0.1842 -0.4480
22494SOL    HW168615   5.286   2.349   6.933  0.8788 -1.1403  0.4841
22494SOL    HW268616   5.259   2.462   7.030  3.6030 -1.6329  1.9307
22495SOL     OW68617   8.176   0.511   2.731 -0.3541 -0.5174 -0.3979
22495SOL    HW168618   8.266   0.477   2.729 -0.2257 -0.3095  0.9712
22495SOL    HW268619   8.186   0.605   2.716 -0.3477 -0.4985 -0.2738
22496SOL     OW68620   5.640   5.591   0.549  0.5656 -0.2356 -0.3250
22496SOL    HW168621   5.616   5.509   0.593 -1.5889  0.6406  0.2243
22496SOL    HW268622   5.631   5.658   0.617 -0.1052  0.7831 -1.3885
22497SOL     OW68623   6.106   2.150   1.929  0.2774 -0.1319  0.5322
22497SOL    HW168624   6.090   2.056   1.931 -0.3088 -0.0376  2.3522
22497SOL    HW268625   6.051   2.185   1.999  1.0540  1.4757  0.3900
22498SOL     OW68626   6.926   6.624   6.190 -0.3749 -0.2863 -0.1903
22498SOL    HW168627   6.928   6.619   6.285 -0.2242 -0.9165 -0.2190
22498SOL    HW268628   6.961   6.711   6.169 -1.6999  0.4157  0.3624
22499SOL     OW68629   7.107   4.100   1.723  0.2789  0.6218 -0.1876
22499SOL    HW168630   7.139   4.171   1.779  1.8632 -1.3205  1.5207
22499SOL    HW268631   7.035   4.062   1.772  0.8876 -0.3372 -0.0197
22500SOL     OW68632   2.490   2.062   5.992  0.0049 -0.1486  0.1952
22500SOL    HW168633   2.558   2.122   6.023 -0.7722  0.2422  1.1786
22500SOL    HW268634   2.474   2.089   5.902  1.5528 -0.6201 -0.2629
22501SOL     OW68635   7.473   6.577   3.788  0.1294  0.3710  0.5366
22501SOL    HW168636   7.381   6.551   3.779 -0.1481  1.6513 -0.6314
22501SOL    HW268637   7.471   6.673   3.788  1.2734  0.4809  2.8573
22502SOL     OW68638   7.200   3.801   4.557 -0.4645 -0.3416  0.4422
22502SOL    HW168639   7.275   3.860   4.557 -1.2178  0.6533 -0.2357
22502SOL    HW268640   7.128   3.854   4.593 -0.3758 -1.9440  3.2040
22503SOL     OW68641   3.425   4.581   2.714  0.1938  0.0016  0.1004
22503SOL    HW168642   3.407   4.519   2.784  1.6749  1.2446  1.6533
22503SOL    HW268643   3.508   4.621   2.738 -0.1485  1.7673 -1.4525
22504SOL     OW68644   3.598   2.311   6.091  0.6292 -0.3271  0.3321
22504SOL    HW168645   3.688   2.283   6.075  1.2813  1.1243  1.2883
22504SOL    HW268646   3.575   2.271   6.175  1.0157  0.7141  0.9437
22505SOL     OW68647   4.215   1.932   1.203  0.2569  0.0625 -0.3421
22505SOL    HW168648   4.198   1.941   1.109 -0.6535 -1.0947 -0.3013
22505SOL    HW268649   4.130   1.911   1.241  0.6126  0.5338  0.7600
22506SOL     OW68650   2.811   4.978   4.472  0.1649 -0.0081  0.0582
22506SOL    HW168651   2.784   5.070   4.465  0.1115 -0.0889 -0.9148
22506SOL    HW268652   2.729   4.929   4.465  0.2632 -0.1495 -0.1066
22507SOL     OW68653   1.889   4.504   6.670 -0.4560  0.5754 -0.7065
22507SOL    HW168654   1.856   4.590   6.645 -3.0784  0.8321  2.9145
22507SOL    HW268655   1.817   4.444   6.650 -1.0277  0.2253  2.0899
22508SOL     OW68656   4.303   5.730   8.807  0.2525  0.3051  0.4171
22508SOL    HW168657   4.256   5.652   8.836  0.3831  0.4690  1.0704
22508SOL    HW268658   4.248   5.803   8.836  0.8709  0.4968  1.1303
22509SOL     OW68659   6.779   1.467   1.618  0.0096  0.1110 -0.1212
22509SOL    HW168660   6.871   1.490   1.633 -0.3462  3.1744 -1.7899
22509SOL    HW268661   6.772   1.458   1.524 -1.5208  0.6624 -0.0801
22510SOL     OW68662   6.270   3.971   6.205  0.7250  0.7495 -0.0045
22510SOL    HW168663   6.174   3.963   6.203  0.8462 -1.7852  1.1083
22510SOL    HW268664   6.286   4.055   6.248 -1.0091  1.1657 -0.1068
22511SOL     OW68665   5.922   1.887   8.040  0.1267 -0.1950  0.2479
22511SOL    HW168666   5.899   1.890   7.947 -6.1210 -0.8787  1.3538
22511SOL    HW268667   5.895   1.972   8.075  1.3640 -0.3403  1.6995
22512SOL     OW68668   3.718   0.195   4.328 -0.0448 -0.3468  0.7253
22512SOL    HW168669   3.760   0.212   4.244  0.2470 -1.6395  0.5879
22512SOL    HW268670   3.768   0.122   4.365 -2.3346 -2.1895  0.4143
22513SOL     OW68671   8.319   6.931   3.966  0.0870 -0.2618  0.1336
22513SOL    HW168672   8.369   6.852   3.945 -1.1038 -0.8698 -0.5329
22513SOL    HW268673   8.246   6.930   3.905 -0.4482  0.8867  0.7197
22514SOL     OW68674   4.710   5.253   5.597  0.3751 -0.5189  0.3241
22514SOL    HW168675   4.677   5.252   5.508  0.1815  1.5274  0.3340
22514SOL    HW268676   4.775   5.183   5.599  0.8855 -0.1570 -1.6210
22515SOL     OW68677   0.367   7.035   2.442  0.6869 -0.7000  0.0713
22515SOL    HW168678   0.453   7.052   2.404  0.1498 -2.2929 -2.0165
22515SOL    HW268679   0.383   6.967   2.507  1.0235 -0.9714 -0.2876
22516SOL     OW68680   8.500   1.530   4.156 -0.2351 -0.9658  0.7786
22516SOL    HW168681   8.556   1.603   4.130 -3.7702  1.1471 -1.7955
22516SOL    HW268682   8.556   1.474   4.210  3.4834  2.1668  0.5456
22517SOL     OW68683   0.525   8.709   8.846  0.1429  0.6318  0.0566
22517SOL    HW168684   0.517   8.730   8.939 -1.0492 -1.5641  0.5319
22517SOL    HW268685   0.590   8.771   8.812  2.5403 -0.0863  2.8980
22518SOL     OW68686   6.603   4.686   0.837 -0.6689  0.8494  0.4640
22518SOL    HW168687   6.653   4.767   0.829 -1.3180  1.1367 -0.9364
22518SOL    HW268688   6.533   4.707   0.900 -0.0513  0.9520  1.1306
22519SOL     OW68689   3.780   3.616   1.365  0.2321  0.1381 -0.1579
22519SOL    HW168690   3.819   3.543   1.316  1.3252 -0.3678  1.3812
22519SOL    HW268691   3.839   3.689   1.350 -0.2488  0.4011 -0.7893
22520SOL     OW68692   6.571   2.543   4.720  0.1874  0.9234 -0.4446
22520SOL    HW168693   6.628   2.550   4.796 -1.0473 -1.7577  0.8755
22520SOL    HW268694   6.483   2.560   4.754 -0.3607 -0.1511 -1.2660
22521SOL     OW68695   4.099   5.415   3.817 -0.4008 -0.1828  0.4197
22521SOL    HW168696   4.192   5.425   3.797 -0.6455 -0.8556 -1.1747
22521SOL    HW268697   4.096   5.413   3.913  1.3715 -1.5167  0.5061
22522SOL     OW68698   6.331   0.046   8.130 -0.0819  0.5268  0.7178
22522SOL    HW168699   6.348   0.129   8.086 -0.6012  1.0433  1.4660
22522SOL    HW268700   6.398   0.041   8.199  2.7082 -1.7011 -1.8781
22523SOL     OW68701   5.327   5.294   6.471  0.4653 -0.0259  0.3297
22523SOL    HW168702   5.241   5.259   6.450  0.6178 -0.9621  1.2141
22523SOL    HW268703   5.388   5.230   6.434  0.7729  0.2629  0.3348
22524SOL     OW68704   7.204   7.472   0.981 -0.1422  0.1399 -0.4304
22524SOL    HW168705   7.231   7.543   0.922 -0.5624 -0.8984 -1.9112
22524SOL    HW268706   7.280   7.415   0.987  0.3520  0.8917  1.1249
22525SOL     OW68707   5.175   3.697   4.346 -0.0881  0.5476 -0.0400
22525SOL    HW168708   5.234   3.662   4.279  0.0741  0.7514 -0.0037
22525SOL    HW268709   5.230   3.711   4.422  0.3255  2.9618 -0.7253
22526SOL     OW68710   2.232   6.589   0.431  0.0769  0.8624  0.3272
22526SOL    HW168711   2.230   6.539   0.349 -1.6820  0.5183  0.5472
22526SOL    HW268712   2.274   6.530   0.494  0.6967  0.8155 -0.1242
22527SOL     OW68713   1.834   0.183   5.768  0.4692  0.2608 -0.4260
22527SOL    HW168714   1.812   0.247   5.700  0.3258 -1.0272 -1.6294
22527SOL    HW268715   1.904   0.130   5.729  0.2383 -0.6286  0.3462
22528SOL     OW68716   6.908   3.164   2.352 -0.3101 -0.1643  0.7888
22528SOL    HW168717   6.977   3.099   2.341 -0.1159  0.0683  0.6225
22528SOL    HW268718   6.902   3.177   2.447  1.7263  1.7754  0.7356
22529SOL     OW68719   2.375   2.227   1.017  0.0072 -0.3795  0.1694
22529SOL    HW168720   2.456   2.198   1.058 -1.5531  1.2598  5.0615
22529SOL    HW268721   2.394   2.316   0.986  0.5189 -0.6906 -0.4336
22530SOL     OW68722   8.788   5.371   6.025 -0.2753 -0.1384 -0.6636
22530SOL    HW168723   8.704   5.325   6.027 -1.5508  1.8802 -2.7201
22530SOL    HW268724   8.828   5.343   5.942  1.3757 -1.4261  0.4996
22531SOL     OW68725   8.568   6.645   7.770 -0.1593 -0.1160 -0.3038
22531SOL    HW168726   8.536   6.634   7.859  1.2996  1.8975  0.5432
22531SOL    HW268727   8.646   6.589   7.765 -1.4477 -1.9678 -1.1169
22532SOL     OW68728   0.428   6.875   0.387  0.4076 -0.5866  0.0114
22532SOL    HW168729   0.343   6.919   0.398  1.1147  1.1325 -0.9274
22532SOL    HW268730   0.425   6.841   0.297  1.2586  0.8352 -0.5847
22533SOL     OW68731   5.532   2.869   4.825  0.0592 -0.2876  0.0616
22533SOL    HW168732   5.468   2.862   4.895  1.1117 -0.5290  1.0330
22533SOL    HW268733   5.552   2.779   4.800  2.6185 -0.4681  2.2733
22534SOL     OW68734   6.580   1.226   0.233 -0.2700  0.7383  0.1491
22534SOL    HW168735   6.645   1.156   0.222  0.2080  1.1258  0.4525
22534SOL    HW268736   6.502   1.193   0.189 -0.0351  0.0346  0.2417
22535SOL     OW68737   7.520   4.244   0.933  0.0423 -0.5720 -0.3526
22535SOL    HW168738   7.556   4.276   0.850 -0.0063  0.4919  0.0292
22535SOL    HW268739   7.439   4.292   0.945 -0.8136 -1.9150 -0.4815
22536SOL     OW68740   7.529   0.713   7.861  0.5349  0.3612 -0.0395
22536SOL    HW168741   7.470   0.639   7.843  1.6153  0.0568 -2.9319
22536SOL    HW268742   7.473   0.781   7.897 -0.4027 -1.9940  3.3888
22537SOL     OW68743   6.154   0.475   2.025 -0.5611 -0.0920  0.9118
22537SOL    HW168744   6.150   0.410   1.955 -2.4001  1.7278 -0.7900
22537SOL    HW268745   6.247   0.479   2.049 -0.1899 -2.2225  0.0385
22538SOL     OW68746   2.746   5.789   4.593 -0.1869  0.4275 -0.0922
22538SOL    HW168747   2.653   5.806   4.578 -0.1004  1.3905  0.3780
22538SOL    HW268748   2.752   5.762   4.684  0.0607  0.9655  0.0556
22539SOL     OW68749   9.077   8.787   5.780  0.4444  0.0998 -0.2575
22539SOL    HW168750   8.998   8.828   5.814 -0.3988 -1.7691  0.1866
22539SOL    HW268751   9.048   8.742   5.700  0.7586 -1.6006  0.5500
22540SOL     OW68752   3.820   8.200   4.572 -0.1588  0.1445  0.4191
22540SOL    HW168753   3.850   8.238   4.655 -0.7353  2.3490 -0.3192
22540SOL    HW268754   3.881   8.234   4.506 -0.8203 -0.0696 -0.3174
22541SOL     OW68755   1.110   3.994   2.172 -0.3293  0.2620 -0.0024
22541SOL    HW168756   1.014   4.000   2.166 -0.3803 -0.4534  0.0334
22541SOL    HW268757   1.138   4.084   2.190 -1.1014  0.2607  1.3765
22542SOL     OW68758   7.951   5.370   2.625  0.1138 -0.4095 -0.0867
22542SOL    HW168759   7.919   5.449   2.582  1.3642 -0.5775 -1.3864
22542SOL    HW268760   7.924   5.380   2.717 -0.0603  1.3540 -0.2955
22543SOL     OW68761   5.750   3.515   3.289  0.0066 -0.0294 -0.3255
22543SOL    HW168762   5.774   3.595   3.243  1.5115 -0.3881 -0.2053
22543SOL    HW268763   5.755   3.539   3.382 -2.8345  0.6398 -0.2511
22544SOL     OW68764   1.041   1.329   0.356 -0.2690 -0.1349 -0.1597
22544SOL    HW168765   0.977   1.351   0.424 -0.6694  0.5746 -0.7532
22544SOL    HW268766   1.100   1.404   0.353  0.2238 -0.5159 -0.0456
22545SOL     OW68767   5.660   4.410   5.295 -0.0975  0.2406 -0.1043
22545SOL    HW168768   5.720   4.482   5.274 -2.1594  1.8179 -0.9966
22545SOL    HW268769   5.674   4.394   5.389  0.0565  2.2297  0.2660
22546SOL     OW68770   5.150   2.841   3.935  0.2757  0.2416 -0.4384
22546SOL    HW168771   5.085   2.802   3.993 -0.4365  0.2122 -1.2336
22546SOL    HW268772   5.120   2.931   3.921  0.3295  0.1925 -0.9067
22547SOL     OW68773   3.207   7.736   8.143  0.6403  0.2139  0.7422
22547SOL    HW168774   3.142   7.797   8.177 -1.1443 -0.2250 -1.6005
22547SOL    HW268775   3.240   7.690   8.221  0.7796  2.8791  2.3566
22548SOL     OW68776   0.428   2.121   3.608 -0.2483  0.1026  0.8886
22548SOL    HW168777   0.349   2.068   3.594 -0.0250 -0.0891  0.3194
22548SOL    HW268778   0.420   2.152   3.698 -0.4563 -0.7738  1.1846
22549SOL     OW68779   2.834   1.519   7.785 -0.5273 -0.6472 -0.1700
22549SOL    HW168780   2.766   1.453   7.793 -0.1696 -1.1708 -1.3162
22549SOL    HW268781   2.912   1.477   7.822 -0.3691 -0.7745 -0.6375
22550SOL     OW68782   5.053   0.928   8.609 -0.1841  0.5391 -0.1314
22550SOL    HW168783   5.053   1.018   8.640  1.5342  1.5433 -2.6612
22550SOL    HW268784   5.121   0.885   8.661 -1.8279  0.2961  1.9156
22551SOL     OW68785   0.343   7.091   7.821 -0.1510  0.0103 -0.2055
22551SOL    HW168786   0.266   7.127   7.777  0.7122  2.9013  0.4309
22551SOL    HW268787   0.315   7.079   7.912 -0.7284 -2.0495 -0.6062
22552SOL     OW68788   1.693   4.641   7.481 -0.6904 -0.4022 -0.5382
22552SOL    HW168789   1.609   4.626   7.524  0.8299 -0.2791  2.8245
22552SOL    HW268790   1.729   4.553   7.469 -0.6326 -0.3911 -0.4508
22553SOL     OW68791   0.324   8.707   8.441 -0.6567  0.2266  0.5542
22553SOL    HW168792   0.319   8.701   8.537 -0.2623 -0.4928  0.5424
22553SOL    HW268793   0.296   8.796   8.421 -1.2301  0.2305  1.3018
22554SOL     OW68794   0.765   5.825   7.512  0.2972 -0.2864 -0.1663
22554SOL    HW168795   0.727   5.897   7.461  0.9570  0.8668  0.9056
22554SOL    HW268796   0.798   5.764   7.446  0.0302  0.5523 -1.1102
22555SOL     OW68797   0.398   0.581   5.336 -0.0198 -0.8225 -0.3098
22555SOL    HW168798   0.424   0.550   5.423 -0.6801  1.2951  0.6987
22555SOL    HW268799   0.345   0.510   5.300 -2.1194 -0.6398  2.1905
22556SOL     OW68800   6.487   1.076   3.723 -0.1957 -0.3612 -0.3540
22556SOL    HW168801   6.535   0.996   3.742  0.5737  0.1196 -0.2365
22556SOL    HW268802   6.431   1.089   3.800  1.3349  0.4157  0.6769
22557SOL     OW68803   1.090   6.431   7.503 -0.8318 -0.0532 -0.1361
22557SOL    HW168804   1.027   6.427   7.431 -1.2827 -0.1131  0.2579
22557SOL    HW268805   1.138   6.513   7.488 -0.7986 -0.1550 -0.6036
22558SOL     OW68806   7.694   3.755   0.538  0.2942  0.1960 -0.0110
22558SOL    HW168807   7.634   3.795   0.476 -0.3754 -1.6316 -0.6070
22558SOL    HW268808   7.782   3.776   0.505 -0.0427 -1.1162 -1.8772
22559SOL     OW68809   3.932   1.887   4.840 -0.4021  0.5105 -0.2033
22559SOL    HW168810   3.929   1.820   4.771  0.9553 -1.7192  1.7283
22559SOL    HW268811   3.960   1.967   4.796  0.5330 -0.8455 -2.2216
22560SOL     OW68812   5.601   4.351   3.767 -0.2383 -0.0094  0.1852
22560SOL    HW168813   5.517   4.357   3.721  0.2796  1.0036 -0.6816
22560SOL    HW268814   5.657   4.303   3.706  0.0975  0.2290  0.3056
22561SOL     OW68815   1.454   8.249   0.983  0.6207 -0.1551 -0.3327
22561SOL    HW168816   1.429   8.298   1.061  1.0718 -3.4258  2.0715
22561SOL    HW268817   1.468   8.316   0.916 -1.0232  2.7361  1.9828
22562SOL     OW68818   5.904   8.493   0.540  0.1663  0.0286 -0.1939
22562SOL    HW168819   5.897   8.572   0.593  0.5943  0.9123 -1.4079
22562SOL    HW268820   5.981   8.508   0.484 -1.3985  0.0616 -2.4859
22563SOL     OW68821   0.707   6.891   4.353 -0.3827  0.0317  0.3432
22563SOL    HW168822   0.648   6.858   4.420  0.0641  0.7444  1.1075
22563SOL    HW268823   0.789   6.910   4.399  0.2442 -0.3449 -0.5788
22564SOL     OW68824   3.255   3.577   4.721  0.0288 -0.4132  0.0195
22564SOL    HW168825   3.261   3.643   4.651  2.1193  1.1059  1.5187
22564SOL    HW268826   3.182   3.521   4.694 -3.0787  3.4395 -0.5883
22565SOL     OW68827   7.897   5.077   6.796  0.3367  0.4354 -0.1578
22565SOL    HW168828   7.871   4.994   6.836  2.1425  1.1393  2.7697
22565SOL    HW268829   7.817   5.130   6.798 -0.8874 -1.1471 -2.2095
22566SOL     OW68830   8.088   1.778   4.555  0.5414 -0.3861  0.2536
22566SOL    HW168831   8.077   1.792   4.461  1.5403 -1.9609 -0.1230
22566SOL    HW268832   8.012   1.726   4.581 -0.6053  1.4252  0.6838
22567SOL     OW68833   3.729   1.179   6.452 -0.0683 -0.6942  0.6304
22567SOL    HW168834   3.805   1.141   6.496  0.5470 -0.5599 -0.3073
22567SOL    HW268835   3.745   1.166   6.359 -0.7338  0.1934  0.3741
22568SOL     OW68836   6.099   8.948   1.743 -0.7130 -0.4903  0.2955
22568SOL    HW168837   6.029   8.933   1.679 -0.5330  2.0012 -0.5714
22568SOL    HW268838   6.052   8.965   1.825 -1.0527 -0.5753  0.1214
22569SOL     OW68839   2.820   5.953   3.201 -0.2147  0.1503  0.4522
22569SOL    HW168840   2.793   6.041   3.174 -0.4133 -0.2554 -0.7577
22569SOL    HW268841   2.738   5.908   3.221 -0.1797 -0.0146  0.2296
22570SOL     OW68842   9.053   8.308   7.607  0.7018 -0.2767 -0.0777
22570SOL    HW168843   9.019   8.218   7.613 -0.8740  0.1461 -1.7173
22570SOL    HW268844   9.146   8.297   7.592  0.2434 -1.7500 -2.3256
22571SOL     OW68845   1.928   5.227   7.298 -0.0892  0.4691  0.0428
22571SOL    HW168846   1.896   5.314   7.323  0.7327  0.7669  0.0843
22571SOL    HW268847   2.014   5.220   7.339  0.3264  0.0722 -0.8644
22572SOL     OW68848   3.503   1.665   7.193  0.1488  0.2211  0.3651
22572SOL    HW168849   3.408   1.658   7.203  0.0358 -1.6409 -1.3370
22572SOL    HW268850   3.518   1.758   7.179 -1.3597  0.6166  1.0943
22573SOL     OW68851   4.141   2.416   1.968 -0.1618  1.0892 -0.4112
22573SOL    HW168852   4.123   2.327   1.939  0.8719  0.6400  0.2625
22573SOL    HW268853   4.107   2.472   1.897  0.5471  0.1132 -1.5615
22574SOL     OW68854   4.556   7.844   7.807 -0.3029 -0.1385  0.3796
22574SOL    HW168855   4.638   7.800   7.786 -0.6889 -0.7550  0.1437
22574SOL    HW268856   4.495   7.817   7.738 -0.3855  1.2542 -0.1340
22575SOL     OW68857   1.855   0.138   7.802 -0.1932  0.8427 -0.2690
22575SOL    HW168858   1.846   0.157   7.709  0.3669 -0.8895 -0.7133
22575SOL    HW268859   1.770   0.161   7.840 -1.2707 -0.6591 -1.6400
22576SOL     OW68860   8.628   3.459   4.562 -0.5618  0.0463  0.7050
22576SOL    HW168861   8.573   3.528   4.522 -1.1820 -0.0266  1.4112
22576SOL    HW268862   8.594   3.378   4.524 -0.2150  0.0806  0.3141
22577SOL     OW68863   3.059   7.912   1.254 -0.0245 -0.4330 -0.1198
22577SOL    HW168864   3.077   7.818   1.260  2.4221 -0.0935 -0.7733
22577SOL    HW268865   3.027   7.936   1.341  1.2936 -1.5374  0.7183
22578SOL     OW68866   1.920   4.839   2.521  0.0171 -0.1216 -0.2514
22578SOL    HW168867   1.884   4.801   2.441 -1.4467  0.8298 -0.0877
22578SOL    HW268868   1.886   4.783   2.591 -2.2505  1.3966  0.0015
22579SOL     OW68869   1.488   3.488   8.357 -0.5507 -0.3310  0.2207
22579SOL    HW168870   1.559   3.544   8.325 -1.9394  0.7695 -1.0669
22579SOL    HW268871   1.420   3.550   8.385 -2.2509 -1.3164 -1.5075
22580SOL     OW68872   0.088   7.315   0.439  0.0064  0.0635 -0.1268
22580SOL    HW168873   0.147   7.310   0.365  1.1294  0.3617  0.7200
22580SOL    HW268874   0.140   7.284   0.513 -0.8650  0.4340  0.6592
22581SOL     OW68875   3.577   3.475   1.832  0.3291 -0.6157 -0.1403
22581SOL    HW168876   3.533   3.531   1.768 -0.3452 -0.5662  0.3565
22581SOL    HW268877   3.670   3.486   1.814  0.2708  1.5299  0.6642
22582SOL     OW68878   5.865   6.130   2.388  0.0955  0.2868  0.4010
22582SOL    HW168879   5.960   6.118   2.387  0.0368 -0.7283 -2.4772
22582SOL    HW268880   5.830   6.044   2.369 -1.3683  0.8610  0.3947
22583SOL     OW68881   3.939   3.565   4.460  0.8239  0.3256 -0.0942
22583SOL    HW168882   4.028   3.567   4.496  0.8393  0.1589 -0.1213
22583SOL    HW268883   3.927   3.651   4.420  0.5906  0.7302  0.8201
22584SOL     OW68884   6.768   6.631   5.649  0.0492 -0.0562  0.8152
22584SOL    HW168885   6.691   6.578   5.631  1.1188 -1.5332  0.3637
22584SOL    HW268886   6.773   6.692   5.575 -0.1519 -0.6141  0.3337
22585SOL     OW68887   3.482   6.124   7.749  0.2571  0.3948  0.2398
22585SOL    HW168888   3.566   6.109   7.794 -0.1052 -1.6838  0.3138
22585SOL    HW268889   3.416   6.100   7.814 -0.2962 -1.5709 -0.9596
22586SOL     OW68890   0.525   2.113   2.552 -0.4512  0.6052 -0.5508
22586SOL    HW168891   0.450   2.080   2.503 -0.0131  0.2634 -1.0107
22586SOL    HW268892   0.497   2.114   2.643 -1.3906  1.5419 -0.8295
22587SOL     OW68893   8.701   0.484   3.111 -0.2486 -0.6671  0.3498
22587SOL    HW168894   8.781   0.506   3.064  0.1074  1.6909  1.8756
22587SOL    HW268895   8.631   0.518   3.055  0.0644  0.4219  0.5803
22588SOL     OW68896   2.820   6.788   3.997 -0.1700  0.5108 -0.2461
22588SOL    HW168897   2.861   6.862   3.954 -1.6975  1.0064 -0.9296
22588SOL    HW268898   2.892   6.728   4.017  0.9777  1.7956 -0.4233
22589SOL     OW68899   6.899   5.653   6.840  0.1063 -0.3859 -0.0236
22589SOL    HW168900   6.884   5.728   6.897 -0.6534 -1.2360  0.9214
22589SOL    HW268901   6.821   5.647   6.785  0.0020 -0.6996  0.1555
22590SOL     OW68902   0.910   0.808   7.715  0.1847  0.2383  0.4062
22590SOL    HW168903   0.861   0.796   7.796 -0.2071  0.5533  0.2164
22590SOL    HW268904   1.001   0.809   7.742  0.0002  2.6128  1.1429
22591SOL     OW68905   3.043   3.857   8.633 -0.4793  0.1131 -0.3339
22591SOL    HW168906   3.088   3.798   8.572  0.0159  0.7640 -0.6118
22591SOL    HW268907   2.963   3.810   8.657 -0.4243 -0.3803 -1.0777
22592SOL     OW68908   4.380   0.166   7.497 -0.0806  0.2707 -0.0362
22592SOL    HW168909   4.400   0.102   7.565  0.3860  1.0397  0.5667
22592SOL    HW268910   4.425   0.245   7.525  1.5319  0.1630 -2.0964
22593SOL     OW68911   6.927   6.750   6.649  0.3288  0.3324  0.7883
22593SOL    HW168912   6.955   6.836   6.678  1.0502 -0.2061  1.7563
22593SOL    HW268913   6.875   6.766   6.570 -0.8206  1.7798  1.7884
22594SOL     OW68914   8.340   3.460   5.326  0.1005 -0.1794  0.4811
22594SOL    HW168915   8.295   3.407   5.261  0.5232 -1.7960  1.4423
22594SOL    HW268916   8.270   3.497   5.380 -0.2263  0.7897 -0.5786
22595SOL     OW68917   7.610   6.029   0.209 -0.1349  0.4303 -0.4591
22595SOL    HW168918   7.702   6.052   0.223  0.4544 -0.6280 -2.2413
22595SOL    HW268919   7.568   6.047   0.293  1.7116  0.8186  0.4418
22596SOL     OW68920   9.030   1.618   8.696 -0.3342  0.9489  0.4299
22596SOL    HW168921   9.051   1.527   8.677  0.2588  0.5372  2.8027
22596SOL    HW268922   9.023   1.622   8.791 -1.6669  3.1158  0.3099
22597SOL     OW68923   4.492   3.631   1.057 -0.1069 -0.5401 -0.2949
22597SOL    HW168924   4.536   3.549   1.034  1.7010 -0.1102  1.2942
22597SOL    HW268925   4.532   3.656   1.141 -1.1070  1.6149 -0.4019
22598SOL     OW68926   4.621   3.159   1.598 -0.0407  0.3907  0.1519
22598SOL    HW168927   4.583   3.241   1.630 -0.1593  0.4585 -0.1612
22598SOL    HW268928   4.702   3.149   1.648  1.9337  2.5962 -2.3125
22599SOL     OW68929   1.642   7.927   0.682  1.0138 -0.3580 -0.2568
22599SOL    HW168930   1.701   8.001   0.671 -0.2595  0.4996 -1.7066
22599SOL    HW268931   1.691   7.852   0.649  1.7643  0.1120 -0.2218
22600SOL     OW68932   4.352   8.278   8.417 -0.5322 -0.2739  0.5925
22600SOL    HW168933   4.435   8.285   8.370 -0.2506 -1.5452  0.8537
22600SOL    HW268934   4.286   8.277   8.348 -0.3155  0.4721  0.3665
22601SOL     OW68935   3.275   4.305   4.371 -0.5580  0.2960  0.4777
22601SOL    HW168936   3.355   4.357   4.358 -1.0654  0.9079 -0.2589
22601SOL    HW268937   3.294   4.221   4.330  0.0047  0.1456  1.0346
22602SOL     OW68938   8.313   8.987   3.561  0.1329  0.3323 -0.3199
22602SOL    HW168939   8.251   9.060   3.557 -0.2169  0.0120 -1.2596
22602SOL    HW268940   8.368   8.998   3.483  0.8269  0.2387  0.1535
22603SOL     OW68941   3.698   1.861   4.085 -0.5116 -0.0342 -0.3080
22603SOL    HW168942   3.707   1.772   4.118  1.2118 -0.5598 -1.9886
22603SOL    HW268943   3.606   1.867   4.057 -0.2256 -1.9636 -1.8706
22604SOL     OW68944   8.032   6.735   3.062  0.1317  0.0642 -0.0177
22604SOL    HW168945   8.064   6.807   3.116  1.6341 -0.4244 -0.2085
22604SOL    HW268946   8.039   6.767   2.972 -1.8538  0.6759 -0.0166
22605SOL     OW68947   1.859   4.124   7.919  0.2559 -0.1312  0.3664
22605SOL    HW168948   1.935   4.178   7.897 -0.4863 -0.0408 -2.3857
22605SOL    HW268949   1.890   4.063   7.986  1.6113  2.4451  2.2237
22606SOL     OW68950   4.648   2.836   0.064  0.1219 -0.4886  0.0949
22606SOL    HW168951   4.654   2.873   0.153  0.3755  0.3511 -0.2573
22606SOL    HW268952   4.692   2.752   0.070  1.3577  0.1558  0.4565
22607SOL     OW68953   4.873   6.196   1.309 -0.1009 -0.0924 -0.1938
22607SOL    HW168954   4.901   6.144   1.234 -0.2188  0.0828 -0.3602
22607SOL    HW268955   4.924   6.277   1.302 -0.5294  0.1648 -0.4100
22608SOL     OW68956   4.952   8.303   0.999  0.4454 -0.3339  0.1808
22608SOL    HW168957   5.045   8.299   0.977  0.4575 -0.3315  0.2312
22608SOL    HW268958   4.947   8.274   1.090  0.2578 -1.4755 -0.1823
22609SOL     OW68959   0.271   0.574   4.342  0.8999  0.0789  0.1266
22609SOL    HW168960   0.240   0.645   4.286  1.7463  1.8354  1.7442
22609SOL    HW268961   0.193   0.546   4.390  0.3460 -0.8582 -1.2733
22610SOL     OW68962   3.976   1.512   6.267 -0.2746  0.0693  0.1432
22610SOL    HW168963   4.021   1.443   6.217  0.5416 -1.1426  2.4200
22610SOL    HW268964   4.047   1.558   6.313 -0.9234  1.7643 -0.4569
22611SOL     OW68965   4.697   3.265   4.273  0.2359 -0.4952  0.0761
22611SOL    HW168966   4.776   3.217   4.298 -0.0362 -1.0354 -0.0846
22611SOL    HW268967   4.625   3.216   4.314 -0.0379 -0.1522  0.0120
22612SOL     OW68968   5.051   3.442   6.360  0.1972  0.2890 -0.3948
22612SOL    HW168969   5.014   3.432   6.272 -0.8935 -0.7752  0.1712
22612SOL    HW268970   4.982   3.413   6.419  1.0564  0.6362  0.8103
22613SOL     OW68971   8.906   8.256   0.198 -0.0189  0.2026 -0.5188
22613SOL    HW168972   8.978   8.309   0.165 -1.2677  0.1513 -3.6527
22613SOL    HW268973   8.948   8.177   0.233  1.4706  0.3867 -1.8051
22614SOL     OW68974   2.160   7.795   3.961  0.7234  0.3625  0.2606
22614SOL    HW168975   2.212   7.805   4.041 -0.3593 -3.0532  1.5675
22614SOL    HW268976   2.198   7.719   3.917 -0.0977  0.8434 -1.3535
22615SOL     OW68977   0.042   1.063   5.371 -0.5985  0.1154  0.0689
22615SOL    HW168978   0.069   1.036   5.458  3.9534  0.8922 -0.8407
22615SOL    HW268979   0.037   0.981   5.321 -0.8352 -0.1281  0.4842
22616SOL     OW68980   7.067   6.153   5.960 -0.2278 -0.4682 -0.2670
22616SOL    HW168981   7.020   6.231   5.989  1.0209  0.4672 -0.6970
22616SOL    HW268982   7.045   6.087   6.026 -0.4525  0.5420  0.6959
22617SOL     OW68983   2.933   2.328   3.158  0.0305 -0.4737  0.2101
22617SOL    HW168984   3.014   2.379   3.155 -0.2025 -0.1414 -2.3842
22617SOL    HW268985   2.957   2.241   3.127 -0.4500 -0.6017  0.1833
22618SOL     OW68986   4.225   8.954   5.268 -0.3570 -0.1484 -0.4113
22618SOL    HW168987   4.190   9.016   5.204 -0.4816 -0.7993 -0.9854
22618SOL    HW268988   4.254   9.009   5.341 -1.4717  0.4917 -0.4333
22619SOL     OW68989   8.520   7.457   1.308 -0.3644 -0.1226 -0.3980
22619SOL    HW168990   8.451   7.394   1.287  0.1978 -0.4065 -1.5009
22619SOL    HW268991   8.600   7.417   1.272 -0.2989  2.1992 -3.1867
22620SOL     OW68992   0.520   4.506   7.200  0.7708  0.0938 -0.0836
22620SOL    HW168993   0.550   4.589   7.163  0.7054  1.7482  3.2287
22620SOL    HW268994   0.447   4.529   7.256  2.2589 -1.7150  2.8913
22621SOL     OW68995   1.093   7.322   6.618 -0.0426  0.9949 -0.3677
22621SOL    HW168996   1.177   7.278   6.605  0.4010  1.9557 -0.8924
22621SOL    HW268997   1.094   7.351   6.709  0.0987  0.8030 -0.3100
22622SOL     OW68998   0.173   3.956   7.277  0.2866  0.1590  0.1808
22622SOL    HW168999   0.135   4.001   7.201  1.4528  2.2734  0.7702
22622SOL    HW269000   0.202   3.872   7.242 -2.0564 -0.2572 -0.9618
22623SOL     OW69001   4.490   6.863   2.046 -0.4396 -0.2594  0.5313
22623SOL    HW169002   4.442   6.913   2.113 -0.5527  0.8074 -0.3068
22623SOL    HW269003   4.536   6.795   2.095 -2.3401 -0.9654  1.4351
22624SOL     OW69004   7.275   0.733   5.770  0.4392  0.2509  1.0414
22624SOL    HW169005   7.206   0.790   5.803 -0.6113 -0.4144  0.0460
22624SOL    HW269006   7.346   0.742   5.834 -0.6537  0.7439  2.2214
22625SOL     OW69007   3.287   7.088   2.676  0.1501  0.2153 -0.3385
22625SOL    HW169008   3.254   7.031   2.746 -0.4388  0.2975 -0.5447
22625SOL    HW269009   3.335   7.030   2.618 -1.4529 -0.3003 -1.1949
22626SOL     OW69010   0.476   4.353   3.658 -0.2995  0.1878  0.5824
22626SOL    HW169011   0.470   4.421   3.591  1.7316 -0.4508 -0.3412
22626SOL    HW269012   0.464   4.271   3.610 -0.1262 -0.2253  1.2233
22627SOL     OW69013   8.138   6.068   8.277  0.1668 -0.2856  0.0757
22627SOL    HW169014   8.195   6.084   8.352 -0.6373  0.3652  0.5720
22627SOL    HW269015   8.056   6.112   8.300 -0.5251 -1.1797 -0.6339
22628SOL     OW69016   8.636   0.715   0.315  0.0158 -0.3716 -0.2445
22628SOL    HW169017   8.684   0.731   0.234  0.8207  0.1222  0.3242
22628SOL    HW269018   8.553   0.761   0.303  0.9420  1.4432  0.0138
22629SOL     OW69019   1.289   2.353   5.678  0.7165  0.1151 -0.0951
22629SOL    HW169020   1.244   2.282   5.724 -1.9463 -0.3862 -3.1736
22629SOL    HW269021   1.294   2.423   5.743  1.0375 -1.8800  2.2193
22630SOL     OW69022   1.635   0.517   6.164 -0.3048 -0.4341 -0.1320
22630SOL    HW169023   1.542   0.535   6.176  0.1473  1.4243  0.9556
22630SOL    HW269024   1.664   0.485   6.250  0.7008  2.3743  0.7087
22631SOL     OW69025   0.011   0.676   6.707  0.2792  0.1946  0.3530
22631SOL    HW169026   0.034   0.583   6.706  0.6078  0.2705 -0.4877
22631SOL    HW269027   0.076   0.717   6.649 -1.2533  0.5776 -1.1917
22632SOL     OW69028   3.038   3.839   7.371  0.4448  0.0501  0.0740
22632SOL    HW169029   3.023   3.781   7.296  0.1897  1.4896 -1.0337
22632SOL    HW269030   3.132   3.855   7.370  0.4207  0.1915 -0.0481
22633SOL     OW69031   6.382   1.246   0.910  0.1757 -0.7985  0.1047
22633SOL    HW169032   6.427   1.295   0.979 -0.8404 -1.9464  1.6339
22633SOL    HW269033   6.318   1.308   0.874  1.5146  0.1825 -0.6717
22634SOL     OW69034   0.547   6.353   5.713  0.3922  0.3032  0.2361
22634SOL    HW169035   0.568   6.294   5.785  1.5460  0.5347  0.1052
22634SOL    HW269036   0.541   6.296   5.636  0.6019  0.2495  0.2614
22635SOL     OW69037   3.964   5.441   0.641 -0.0286  0.3846  0.1297
22635SOL    HW169038   4.030   5.433   0.572  2.1438 -0.9465  2.2391
22635SOL    HW269039   4.011   5.425   0.722 -2.6649  0.9975  1.9126
22636SOL     OW69040   8.707   7.335   1.131  0.0164 -0.0522  0.0885
22636SOL    HW169041   8.722   7.391   1.054 -0.1158 -0.3493 -0.1541
22636SOL    HW269042   8.782   7.352   1.188 -0.6532  1.3434  0.5949
22637SOL     OW69043   6.363   7.690   4.104 -0.4309 -0.8748  0.2905
22637SOL    HW169044   6.437   7.707   4.161 -0.2514 -0.2321 -0.1210
22637SOL    HW269045   6.393   7.622   4.044 -0.2536 -0.7789  0.2713
22638SOL     OW69046   8.300   6.603   2.357  0.1324  0.4083  0.1153
22638SOL    HW169047   8.217   6.557   2.370  0.1171 -0.0134 -1.3029
22638SOL    HW269048   8.324   6.584   2.266  0.3239  2.8529 -0.4104
22639SOL     OW69049   7.000   8.930   1.712 -0.3213 -0.1189 -0.1919
22639SOL    HW169050   6.930   8.930   1.776  1.4521 -0.7343  1.8572
22639SOL    HW269051   7.016   8.837   1.693 -1.2609  0.0569 -2.1170
22640SOL     OW69052   7.732   3.532   4.620  0.6665 -0.3941 -0.7108
22640SOL    HW169053   7.683   3.457   4.653 -1.6550  0.1101 -2.7031
22640SOL    HW269054   7.756   3.582   4.698  1.0213 -2.4354  0.5427
22641SOL     OW69055   7.399   3.315   1.092  0.5420 -0.5303  0.1779
22641SOL    HW169056   7.353   3.399   1.088 -0.3874 -1.0276  0.0746
22641SOL    HW269057   7.342   3.258   1.143  0.4161 -1.5431 -1.0299
22642SOL     OW69058   1.135   8.605   8.040  0.1392 -0.2704  0.1190
22642SOL    HW169059   1.180   8.680   8.001 -0.9429  0.3363  0.0213
22642SOL    HW269060   1.136   8.623   8.134  0.1856 -0.3077  0.1262
22643SOL     OW69061   6.846   5.369   8.697  0.3047  0.0460 -0.2503
22643SOL    HW169062   6.927   5.418   8.687  0.9128 -0.9384 -0.3482
22643SOL    HW269063   6.842   5.346   8.790 -0.2567  0.7417 -0.0991
22644SOL     OW69064   1.729   3.693   8.350 -0.0808  0.5048 -1.0719
22644SOL    HW169065   1.773   3.751   8.412  0.7429 -0.3155 -0.8685
22644SOL    HW269066   1.700   3.751   8.279  1.5600  1.0407 -1.3427
22645SOL     OW69067   6.126   8.112   7.794  0.4133 -0.7121 -0.4677
22645SOL    HW169068   6.076   8.175   7.847  0.1447  0.4437 -2.0370
22645SOL    HW269069   6.210   8.155   7.778  0.8625 -1.4667 -0.1834
22646SOL     OW69070   8.445   1.043   2.018 -0.1488 -0.1830  0.3124
22646SOL    HW169071   8.375   0.980   2.036 -1.2541  0.3547 -1.7447
22646SOL    HW269072   8.522   0.989   2.003 -0.6090 -0.9274  0.5476
22647SOL     OW69073   1.630   2.529   7.413  0.1639 -0.1339 -0.2651
22647SOL    HW169074   1.694   2.562   7.475 -0.6109 -1.4361  1.3090
22647SOL    HW269075   1.679   2.468   7.358  0.1669 -1.9755  1.6328
22648SOL     OW69076   3.393   7.554   4.405 -0.0292  0.8647  0.4513
22648SOL    HW169077   3.466   7.607   4.374 -0.1397  1.6942  1.5180
22648SOL    HW269078   3.425   7.513   4.485  0.0996 -0.8410 -0.4406
22649SOL     OW69079   2.365   4.873   1.430  0.4690 -0.0012  0.0276
22649SOL    HW169080   2.442   4.816   1.434  1.1003  0.7294 -1.0658
22649SOL    HW269081   2.291   4.814   1.420  1.0143 -0.6657 -0.1083
22650SOL     OW69082   5.047   4.004   2.506  0.0122 -0.3984  0.2624
22650SOL    HW169083   4.995   4.020   2.585 -0.7193 -0.4891 -0.1878
22650SOL    HW269084   4.992   3.945   2.454 -1.1010  2.2701 -1.8592
22651SOL     OW69085   3.019   4.917   8.587 -0.0623 -0.3775  0.2736
22651SOL    HW169086   3.066   4.847   8.543  0.0296  0.4326 -0.9593
22651SOL    HW269087   3.082   4.989   8.592 -0.4492 -0.0620  0.6703
22652SOL     OW69088   3.485   8.730   5.582 -0.1254  0.7464 -0.0288
22652SOL    HW169089   3.483   8.688   5.668 -0.3780  0.4340 -0.1851
22652SOL    HW269090   3.466   8.660   5.520  0.2474  0.9332 -0.3565
22653SOL     OW69091   4.133   0.391   5.783 -0.1080 -0.1010  0.2443
22653SOL    HW169092   4.182   0.381   5.865  2.6039 -2.9531 -1.5296
22653SOL    HW269093   4.057   0.333   5.793 -0.0763 -0.0377  0.8949
22654SOL     OW69094   2.790   1.494   5.743  0.4941 -0.3698  0.1658
22654SOL    HW169095   2.765   1.404   5.763 -0.3143 -0.0459  0.6816
22654SOL    HW269096   2.802   1.535   5.828  2.1119 -0.3122 -0.0722
22655SOL     OW69097   0.514   1.752   7.716 -0.1712  0.2047  0.5001
22655SOL    HW169098   0.480   1.822   7.659  0.7453  2.3758  2.4314
22655SOL    HW269099   0.593   1.722   7.673  0.0836  1.2493  0.2025
22656SOL     OW69100   0.599   8.997   6.210 -0.2005  0.6533 -0.0398
22656SOL    HW169101   0.594   9.029   6.120  0.2146 -2.6013 -1.3480
22656SOL    HW269102   0.515   8.955   6.225  0.2425 -0.0542  0.5340
22657SOL     OW69103   8.830   8.794   8.136 -0.2945  0.1213 -0.2641
22657SOL    HW169104   8.923   8.786   8.112 -0.2555 -1.2311  0.2982
22657SOL    HW269105   8.792   8.710   8.114 -0.9656 -0.0282  1.3583
22658SOL     OW69106   8.916   5.495   8.305 -0.7524 -0.2966  0.1402
22658SOL    HW169107   8.837   5.475   8.356  0.2988 -1.0799  1.5267
22658SOL    HW269108   8.955   5.571   8.349 -0.5735 -0.0992 -0.3533
22659SOL     OW69109   4.373   4.638   1.856 -0.4041 -0.3040 -0.1911
22659SOL    HW169110   4.450   4.685   1.888 -0.9750  2.4520 -2.4071
22659SOL    HW269111   4.330   4.604   1.935  1.6738  0.3595  1.2930
22660SOL     OW69112   8.301   1.449   7.655 -0.2185 -0.2970  0.0853
22660SOL    HW169113   8.286   1.381   7.589  0.4036  0.3896 -0.7831
22660SOL    HW269114   8.396   1.460   7.657 -0.3725  1.7474 -1.0561
22661SOL     OW69115   5.103   6.290   5.107  0.2708 -0.3502 -0.0427
22661SOL    HW169116   5.156   6.359   5.147  1.1657 -0.7197 -0.5701
22661SOL    HW269117   5.121   6.297   5.014  0.6522 -1.5294 -0.0680
22662SOL     OW69118   2.869   6.808   2.914 -0.0453  0.6766  0.5706
22662SOL    HW169119   2.871   6.845   2.826  0.1751  1.8053  1.0321
22662SOL    HW269120   2.958   6.775   2.928 -0.5583 -1.2736 -0.3152
22663SOL     OW69121   2.355   3.737   4.057 -0.6754  0.2761  0.4242
22663SOL    HW169122   2.359   3.778   3.971 -1.1717 -0.1883  0.1724
22663SOL    HW269123   2.276   3.773   4.098 -0.8736 -0.0931  0.3715
22664SOL     OW69124   1.959   6.107   8.785 -0.2060 -0.0206 -0.0447
22664SOL    HW169125   1.874   6.080   8.821 -0.7064  1.8733  0.2858
22664SOL    HW269126   1.977   6.190   8.827  1.6743 -0.2239 -0.3921
22665SOL     OW69127   2.219   1.021   6.775 -0.3371 -0.0201  0.1755
22665SOL    HW169128   2.218   0.927   6.790  0.4332  0.0714  0.8966
22665SOL    HW269129   2.277   1.056   6.843 -0.1381  0.9083 -0.4398
22666SOL     OW69130   4.964   2.769   4.112  0.6131  0.3838  0.0457
22666SOL    HW169131   4.989   2.700   4.173  2.5648 -1.3685 -2.5054
22666SOL    HW269132   4.880   2.741   4.077  1.5313 -0.9830 -1.1963
22667SOL     OW69133   0.518   5.266   1.617  0.4546  0.1852  0.1906
22667SOL    HW169134   0.551   5.223   1.696  2.3239  0.9041 -0.1390
22667SOL    HW269135   0.468   5.340   1.650  2.1108  1.1183  0.7615
22668SOL     OW69136   7.600   3.638   4.402  0.3899  0.1304  0.2884
22668SOL    HW169137   7.671   3.629   4.338  0.8898 -2.0735  1.0619
22668SOL    HW269138   7.631   3.591   4.479 -2.1418 -1.4286  0.4534
22669SOL     OW69139   0.276   7.488   2.347 -0.1186  0.0288  0.3670
22669SOL    HW169140   0.347   7.449   2.295 -0.4416 -0.5518  0.3527
22669SOL    HW269141   0.295   7.461   2.437  1.6062  2.7232  0.9477
22670SOL     OW69142   8.613   5.845   7.756 -0.1415  0.2388  0.6387
22670SOL    HW169143   8.616   5.887   7.842 -2.0126 -1.3864  1.5920
22670SOL    HW269144   8.663   5.764   7.767  3.8143  2.1653 -1.2957
22671SOL     OW69145   2.241   6.945   4.457  0.3188 -0.3460 -0.3335
22671SOL    HW169146   2.305   6.874   4.460 -0.3915 -0.9555  1.3214
22671SOL    HW269147   2.166   6.907   4.410 -0.7290 -1.3335  1.9929
22672SOL     OW69148   5.287   5.428   8.811 -0.5173 -0.0586  0.1240
22672SOL    HW169149   5.334   5.497   8.859  2.7376 -2.0870  0.2099
22672SOL    HW269150   5.260   5.470   8.730 -1.0880  1.9734  1.2849
22673SOL     OW69151   1.932   0.957   4.223  0.0721  0.0314 -0.2029
22673SOL    HW169152   1.889   0.904   4.156 -0.7436  0.1178  0.2391
22673SOL    HW269153   1.959   1.037   4.177 -1.3503  0.5191 -0.2391
22674SOL     OW69154   8.218   3.255   5.125  0.2367 -0.5828  0.4766
22674SOL    HW169155   8.172   3.210   5.054 -2.2812 -0.2014  1.7827
22674SOL    HW269156   8.281   3.190   5.157 -1.4886 -2.3069  0.5779
22675SOL     OW69157   7.740   1.151   8.529 -0.8717  0.5407  0.3358
22675SOL    HW169158   7.717   1.188   8.443  0.4599  0.1338 -0.2207
22675SOL    HW269159   7.780   1.223   8.577  0.3872  0.2403 -0.2141
22676SOL     OW69160   0.917   0.655   4.134 -0.1947  0.7900 -0.4647
22676SOL    HW169161   0.933   0.563   4.152  0.0012  0.9408  0.1598
22676SOL    HW269162   0.964   0.702   4.203 -0.8698  1.3327 -0.3565
22677SOL     OW69163   1.235   2.656   4.933  0.6617 -0.2772 -0.2065
22677SOL    HW169164   1.318   2.699   4.954 -0.1684  0.7900  1.0409
22677SOL    HW269165   1.233   2.578   4.989 -0.2754  1.0641  1.7437
22678SOL     OW69166   8.568   7.463   5.373 -0.0948  0.5702  0.4869
22678SOL    HW169167   8.494   7.428   5.422  0.2299  0.2460  0.7500
22678SOL    HW269168   8.646   7.428   5.418  0.2019 -0.1961 -0.6061
22679SOL     OW69169   5.675   3.119   8.877 -0.7974  0.0348 -0.1667
22679SOL    HW169170   5.589   3.158   8.866 -1.7030 -1.8543 -0.2206
22679SOL    HW269171   5.661   3.048   8.941  0.6563 -0.4338 -0.3358
22680SOL     OW69172   4.014   3.830   4.333  0.2780  0.3233  0.0117
22680SOL    HW169173   3.980   3.898   4.391  0.8921  0.2025  0.5215
22680SOL    HW269174   4.004   3.866   4.245 -0.9324  0.3900  0.1627
22681SOL     OW69175   4.802   5.557   3.516  0.3850  0.1883 -0.2815
22681SOL    HW169176   4.809   5.629   3.453 -0.7637  0.9095  0.3652
22681SOL    HW269177   4.885   5.509   3.509  1.1194  1.5032 -0.8182
22682SOL     OW69178   0.020   5.681   7.551 -0.4535 -0.5486  0.3090
22682SOL    HW169179   0.103   5.637   7.568  0.3686 -0.4415 -2.8408
22682SOL    HW269180   0.043   5.774   7.545 -0.9277 -0.4415  0.0845
22683SOL     OW69181   3.154   2.600   7.280  0.7732  0.4031 -0.4066
22683SOL    HW169182   3.087   2.534   7.265  0.9291  0.2170 -0.2903
22683SOL    HW269183   3.105   2.680   7.298  0.4662 -0.3854  3.0373
22684SOL     OW69184   3.238   7.073   7.844  0.4765 -0.5118  0.0121
22684SOL    HW169185   3.174   7.077   7.774  0.1415 -0.0480  0.3416
22684SOL    HW269186   3.318   7.108   7.805 -0.2160  1.6954  0.4061
22685SOL     OW69187   7.127   6.289   2.503  0.1256  0.0056 -0.4583
22685SOL    HW169188   7.172   6.315   2.583 -0.4352  1.0486 -0.4619
22685SOL    HW269189   7.156   6.200   2.487  1.6082  0.3853 -0.0603
22686SOL     OW69190   6.532   1.437   9.110  0.0330  0.4484 -0.5244
22686SOL    HW169191   6.455   1.493   9.103  0.7652  1.3579 -1.5293
22686SOL    HW269192   6.560   1.445   9.201 -0.1261  1.3615 -0.5533
22687SOL     OW69193   5.046   2.867   8.105 -0.0411 -0.2900  0.0663
22687SOL    HW169194   5.068   2.956   8.131  2.2424 -0.2031 -1.8571
22687SOL    HW269195   4.998   2.878   8.022 -0.6505 -0.8368  0.3361
22688SOL     OW69196   6.398   0.837   0.954  0.1914  0.3759 -0.6544
22688SOL    HW169197   6.302   0.835   0.961  0.2535 -1.7546  0.0875
22688SOL    HW269198   6.414   0.855   0.861 -0.8583  2.6219 -0.4794
22689SOL     OW69199   4.060   7.829   3.023 -0.0569  0.0222  0.2885
22689SOL    HW169200   4.151   7.843   3.047  0.4188 -1.5182 -0.5117
22689SOL    HW269201   4.047   7.735   3.027 -1.2125  0.0841 -0.9523
22690SOL     OW69202   1.855   3.419   7.276 -0.3203 -0.3575  0.5755
22690SOL    HW169203   1.826   3.360   7.346 -0.0740 -0.8997  0.2242
22690SOL    HW269204   1.811   3.386   7.197 -1.7153  1.0881  0.6949
22691SOL     OW69205   7.743   5.696   4.505 -0.6537  0.7691 -0.1957
22691SOL    HW169206   7.794   5.754   4.449  0.7210 -0.1844  0.0130
22691SOL    HW269207   7.805   5.629   4.534 -1.9143 -0.1798  0.4640
22692SOL     OW69208   6.643   0.614   6.886  0.1446  0.3056  0.2785
22692SOL    HW169209   6.738   0.608   6.899  0.5395  2.0992 -1.3551
22692SOL    HW269210   6.617   0.526   6.860  0.8838 -0.8758  3.1481
22693SOL     OW69211   5.648   5.604   7.386  0.4334  0.5319 -0.6491
22693SOL    HW169212   5.635   5.689   7.429 -0.7881  0.5675 -1.0591
22693SOL    HW269213   5.713   5.621   7.319  0.8688  0.9309 -0.1392
22694SOL     OW69214   6.482   6.180   4.130  0.0207 -0.4460 -0.5453
22694SOL    HW169215   6.556   6.133   4.168 -1.0871 -1.3756  0.5891
22694SOL    HW269216   6.451   6.238   4.200  0.2806  0.6966 -1.3475
22695SOL     OW69217   0.337   7.751   7.420 -0.0396 -0.1131  0.4012
22695SOL    HW169218   0.395   7.711   7.355  0.5065 -0.7875  1.2710
22695SOL    HW269219   0.347   7.845   7.406  0.5040 -0.2390 -0.1232
22696SOL     OW69220   6.460   8.640   7.908 -0.3862 -0.0763  0.7429
22696SOL    HW169221   6.492   8.704   7.972 -2.5670  1.0431  0.7879
22696SOL    HW269222   6.399   8.585   7.957 -1.8394  0.5830 -0.2752
22697SOL     OW69223   3.741   3.274   5.799 -0.2270  0.4832 -0.2937
22697SOL    HW169224   3.679   3.293   5.728  0.1168  2.5159 -0.0856
22697SOL    HW269225   3.765   3.359   5.834  0.8658 -0.4026  1.2231
22698SOL     OW69226   1.967   5.578   6.289 -0.5363 -0.4430  0.2427
22698SOL    HW169227   1.998   5.617   6.371  0.0310 -0.8128  0.2020
22698SOL    HW269228   1.941   5.653   6.236 -1.4750 -0.2165  0.9766
22699SOL     OW69229   6.578   4.618   5.205 -0.0610 -0.0791  0.0364
22699SOL    HW169230   6.545   4.553   5.266  0.3909 -0.7901 -0.4635
22699SOL    HW269231   6.643   4.668   5.256  0.1627 -0.5304  0.1934
22700SOL     OW69232   5.343   0.580   3.400 -0.3214  0.1930  0.2594
22700SOL    HW169233   5.392   0.509   3.440  0.2129  1.1350  1.3248
22700SOL    HW269234   5.331   0.644   3.471 -1.5348  0.7868 -0.4406
22701SOL     OW69235   7.013   2.661   9.057  0.2019 -0.2899 -0.3555
22701SOL    HW169236   7.049   2.631   9.140  0.3338  1.3386  0.2239
22701SOL    HW269237   7.000   2.755   9.069 -1.0926 -0.2434 -1.7011
22702SOL     OW69238   0.207   2.736   1.344 -0.3163 -0.0675  0.3126
22702SOL    HW169239   0.261   2.788   1.404 -1.2220  0.6679  0.5082
22702SOL    HW269240   0.150   2.799   1.302 -0.0653 -0.6533 -0.9550
22703SOL     OW69241   6.513   3.134   1.615  0.5569 -0.2232 -0.0471
22703SOL    HW169242   6.446   3.114   1.681 -0.5478 -1.5582 -1.4983
22703SOL    HW269243   6.493   3.075   1.542  0.2392  2.7287 -2.5782
22704SOL     OW69244   3.633   6.091   6.407  0.3245  0.2599 -0.1701
22704SOL    HW169245   3.623   6.083   6.312 -1.9172  0.1637  0.0194
22704SOL    HW269246   3.638   6.000   6.438 -1.1505  0.2071 -0.0356
22705SOL     OW69247   2.817   3.446   8.537 -0.0020  0.3176  0.1229
22705SOL    HW169248   2.897   3.481   8.577  0.0622 -0.1668  0.4206
22705SOL    HW269249   2.747   3.499   8.575  0.0543 -0.1788  0.9349
22706SOL     OW69250   6.122   6.078   2.348  0.0148  0.2237 -0.3891
22706SOL    HW169251   6.140   6.100   2.439 -2.0397  2.9527 -0.5018
22706SOL    HW269252   6.187   6.127   2.298 -0.6331  1.0621 -0.4364
22707SOL     OW69253   5.913   8.107   8.176  0.1392  0.1791  0.3386
22707SOL    HW169254   5.955   8.171   8.119  1.2974 -0.3873  0.5408
22707SOL    HW269255   5.820   8.110   8.151 -0.0474  2.6494  1.0318
22708SOL     OW69256   7.529   4.170   6.834  0.6578  0.0118 -0.2510
22708SOL    HW169257   7.516   4.083   6.871  1.0917  0.3780  0.7968
22708SOL    HW269258   7.497   4.163   6.744 -3.6016 -0.0904  1.0514
22709SOL     OW69259   2.281   3.916   2.545 -0.0353  0.0638  0.3288
22709SOL    HW169260   2.372   3.908   2.571  0.3359  1.7056 -0.3095
22709SOL    HW269261   2.277   3.876   2.458  0.6859  2.1372 -0.7285
22710SOL     OW69262   3.974   3.782   3.092  0.0700 -0.4048  0.4031
22710SOL    HW169263   3.976   3.823   3.178 -0.2138  2.3145 -0.7888
22710SOL    HW269264   3.894   3.815   3.051  0.6550 -0.9031 -1.2372
22711SOL     OW69265   2.390   6.486   7.056 -0.4671 -0.3534  0.5938
22711SOL    HW169266   2.425   6.484   7.146  1.2053 -0.1141 -0.0148
22711SOL    HW269267   2.424   6.405   7.016  0.5256  0.5305 -0.4094
22712SOL     OW69268   2.715   2.853   0.008 -0.3555 -0.0806  0.2712
22712SOL    HW169269   2.769   2.775   0.010 -0.8057 -0.4465 -1.2060
22712SOL    HW269270   2.714   2.884   0.099  0.3260 -1.4292  0.7523
22713SOL     OW69271   7.693   3.010   5.308 -0.4000 -0.0072  0.6086
22713SOL    HW169272   7.776   2.972   5.278  1.7507  1.8230  3.7309
22713SOL    HW269273   7.647   2.937   5.349 -0.0112 -0.8735 -0.4422
22714SOL     OW69274   0.666   5.998   3.108 -0.1420  0.0130 -0.8212
22714SOL    HW169275   0.753   6.034   3.129  0.3881 -1.2665 -0.7438
22714SOL    HW269276   0.649   6.027   3.018  1.3828 -1.5553 -1.6706
22715SOL     OW69277   8.993   8.297   6.104 -0.2333 -0.3938  0.5576
22715SOL    HW169278   9.007   8.214   6.058  1.0222 -0.2682  0.6800
22715SOL    HW269279   8.962   8.272   6.191 -2.0318 -0.6478 -0.1029
22716SOL     OW69280   5.932   6.049   2.829 -0.5336  0.1033  0.6660
22716SOL    HW169281   5.878   5.984   2.785  0.3121  0.6986 -1.3999
22716SOL    HW269282   5.984   6.000   2.893  0.1400 -1.3084 -0.8898
22717SOL     OW69283   8.392   0.740   7.393  0.1025  0.2419  0.0715
22717SOL    HW169284   8.405   0.701   7.480 -0.3585  0.2930  0.1689
22717SOL    HW269285   8.419   0.671   7.332 -1.7234 -0.6811  0.2228
22718SOL     OW69286   3.079   3.988   5.831 -0.0672 -0.0526 -0.0941
22718SOL    HW169287   3.082   4.082   5.848  1.2752 -0.1901  0.5604
22718SOL    HW269288   3.124   3.949   5.906 -2.2697 -1.3682  0.6331
22719SOL     OW69289   5.245   1.057   1.346 -0.8934 -0.1478 -0.1666
22719SOL    HW169290   5.256   1.014   1.261  1.1840  0.0146 -0.0293
22719SOL    HW269291   5.171   1.011   1.386  0.7654 -3.2459 -0.3044
22720SOL     OW69292   3.119   4.107   3.800 -0.0694  0.2576  0.3705
22720SOL    HW169293   3.036   4.109   3.848  0.4657 -1.7686  1.5106
22720SOL    HW269294   3.186   4.094   3.868  0.6129 -4.2198 -0.8278
22721SOL     OW69295   7.268   4.244   1.914  0.0301 -0.4046 -0.1808
22721SOL    HW169296   7.302   4.327   1.881 -0.4330 -0.2688 -0.3125
22721SOL    HW269297   7.344   4.185   1.909 -0.0460 -0.4291 -1.6482
22722SOL     OW69298   8.803   6.394   1.978 -0.0595 -0.2482  0.5605
22722SOL    HW169299   8.767   6.477   1.946  0.4024  0.6737  2.3272
22722SOL    HW269300   8.794   6.334   1.903 -1.1576  1.1475 -0.4887
22723SOL     OW69301   7.262   7.280   3.663  0.0570  0.5857 -0.0424
22723SOL    HW169302   7.271   7.293   3.569  0.5643 -1.2439 -0.2934
22723SOL    HW269303   7.167   7.272   3.677  0.0574 -1.3162 -0.7906
22724SOL     OW69304   7.093   5.900   7.647 -0.1217 -0.1112  0.1054
22724SOL    HW169305   7.001   5.899   7.674 -0.0158 -0.6151  0.4520
22724SOL    HW269306   7.142   5.927   7.725  0.1599 -1.3468  0.3771
22725SOL     OW69307   5.570   1.090   7.271  0.2829 -0.0585 -0.7425
22725SOL    HW169308   5.570   0.995   7.284 -0.7206 -0.1613 -1.3927
22725SOL    HW269309   5.479   1.116   7.283  0.6218  0.8995 -0.1089
22726SOL     OW69310   5.085   6.411   7.835  0.1577  0.2306 -0.7972
22726SOL    HW169311   5.108   6.318   7.832  1.8200  0.5317  0.8928
22726SOL    HW269312   5.134   6.451   7.764 -0.9533 -0.2271 -1.8493
22727SOL     OW69313   8.936   0.943   0.947  0.6857  0.5169 -0.7426
22727SOL    HW169314   9.015   0.909   0.989  0.5065  1.0519  0.0638
22727SOL    HW269315   8.882   0.974   1.020 -0.6331 -0.5693 -1.2213
22728SOL     OW69316   2.829   6.550   3.210  0.4262 -0.5718  0.2458
22728SOL    HW169317   2.912   6.514   3.240  0.1565 -0.7758  0.7739
22728SOL    HW269318   2.802   6.493   3.138  0.8568 -0.3667 -0.0724
22729SOL     OW69319   4.036   6.514   7.216 -0.0022  0.0569  0.6565
22729SOL    HW169320   3.999   6.601   7.230 -0.1688 -0.1382  1.4977
22729SOL    HW269321   4.034   6.473   7.303  0.4404 -0.6401  0.3445
22730SOL     OW69322   5.862   7.151   0.081 -0.9527  0.4841 -0.2438
22730SOL    HW169323   5.881   7.200   0.001  1.9370  0.2191  0.1607
22730SOL    HW269324   5.872   7.059   0.055 -1.7827  0.3086  0.0387
22731SOL     OW69325   9.069   7.578   0.440  0.0083  0.3387 -0.2176
22731SOL    HW169326   9.094   7.486   0.453 -1.0181  0.0672 -0.0489
22731SOL    HW269327   9.152   7.626   0.440  0.6146 -0.6612 -0.9551
22732SOL     OW69328   6.957   5.661   2.807 -0.1094 -0.3786 -0.2076
22732SOL    HW169329   7.007   5.631   2.883 -1.5969 -1.8337  0.2592
22732SOL    HW269330   6.965   5.590   2.744 -0.2764  0.0934 -0.7700
22733SOL     OW69331   2.569   6.382   2.861 -0.1927  0.0107 -0.0495
22733SOL    HW169332   2.476   6.382   2.835  0.4532  1.3274 -2.6688
22733SOL    HW269333   2.580   6.463   2.910 -0.6047 -0.6919  1.2754
22734SOL     OW69334   2.783   9.049   4.357 -0.1496  0.2651 -0.1780
22734SOL    HW169335   2.797   8.983   4.290  0.5699  0.6324 -0.4058
22734SOL    HW269336   2.706   9.019   4.405  0.5578 -1.0950  0.1577
22735SOL     OW69337   1.094   2.392   6.863 -1.0056 -0.6695  0.3654
22735SOL    HW169338   0.999   2.392   6.852 -1.0499 -1.4646  0.7339
22735SOL    HW269339   1.110   2.341   6.942 -0.3082  0.0350  0.7010
22736SOL     OW69340   1.851   9.067   2.249 -0.0401 -0.6058  0.2878
22736SOL    HW169341   1.851   9.108   2.336  0.8427  1.1895 -0.5033
22736SOL    HW269342   1.940   9.080   2.216 -1.3606  2.7137 -2.5642
22737SOL     OW69343   2.599   6.044   5.926  0.3255  0.2499  0.5998
22737SOL    HW169344   2.519   6.068   5.879  0.5953 -2.0802 -1.2562
22737SOL    HW269345   2.630   6.126   5.965 -2.5492  1.3575  0.8073
22738SOL     OW69346   0.100   7.563   0.086 -0.0815 -0.1541  0.5643
22738SOL    HW169347   0.131   7.653   0.091  0.2161 -0.2900  1.3741
22738SOL    HW269348   0.173   7.510   0.118  0.4504 -0.8703 -1.7148
22739SOL     OW69349   7.227   2.166   1.574 -0.3706  0.0726  0.2548
22739SOL    HW169350   7.231   2.238   1.637 -0.8739 -0.2209  0.6213
22739SOL    HW269351   7.135   2.142   1.569 -0.2562 -0.3120 -0.1384
22740SOL     OW69352   7.920   7.856   2.856 -0.2322  0.2725 -0.0542
22740SOL    HW169353   7.845   7.869   2.799  0.0569  1.3702 -0.1894
22740SOL    HW269354   7.980   7.801   2.805 -0.5079  0.2237 -0.3275
22741SOL     OW69355   5.816   4.323   4.233  0.0143 -0.6602 -0.5955
22741SOL    HW169356   5.799   4.414   4.257  2.0111 -0.3865 -0.0821
22741SOL    HW269357   5.784   4.316   4.143 -1.4061  0.1474 -0.1901
22742SOL     OW69358   5.024   6.154   8.865 -0.0749  0.5978  0.3640
22742SOL    HW169359   4.979   6.226   8.910  1.1025  0.1690  2.3234
22742SOL    HW269360   4.957   6.087   8.853 -0.5087  0.8830  1.1482
22743SOL     OW69361   4.469   7.528   1.450 -0.2728  0.0249 -0.4562
22743SOL    HW169362   4.520   7.447   1.446  2.5171  1.6072  0.3630
22743SOL    HW269363   4.482   7.560   1.540 -2.6197  0.6433 -0.2714
22744SOL     OW69364   9.048   2.682   8.227 -0.3586  0.4289 -0.6358
22744SOL    HW169365   8.974   2.697   8.285 -2.7117  0.0614 -3.3090
22744SOL    HW269366   9.025   2.730   8.147  2.0011 -0.2575 -1.8062
22745SOL     OW69367   6.019   0.225   4.993  0.5491 -0.1222  0.0922
22745SOL    HW169368   5.953   0.237   5.061  1.2327  0.0937  0.7342
22745SOL    HW269369   6.050   0.135   5.006  0.7175 -0.0626  0.1026
22746SOL     OW69370   0.448   6.534   4.382  0.2143 -0.1610  0.1416
22746SOL    HW169371   0.527   6.555   4.332  0.3442 -1.7908 -0.4001
22746SOL    HW269372   0.390   6.491   4.318 -0.3012 -0.7773  0.9956
22747SOL     OW69373   0.548   2.162   7.762  0.2801  0.3969  0.2783
22747SOL    HW169374   0.636   2.123   7.770  0.6332  1.1188 -0.0414
22747SOL    HW269375   0.500   2.100   7.707  0.3537 -0.3718  1.0362
22748SOL     OW69376   1.854   4.368   2.878  0.0853  0.7332 -0.8908
22748SOL    HW169377   1.948   4.385   2.871 -0.0659  1.3012 -1.7542
22748SOL    HW269378   1.848   4.290   2.933  1.1043  0.2692 -1.3967
22749SOL     OW69379   3.624   7.484   4.147 -0.2299  0.1908  0.5064
22749SOL    HW169380   3.554   7.419   4.149 -0.4979  0.4550 -0.0156
22749SOL    HW269381   3.671   7.472   4.229 -1.7705  0.9809  1.5661
22750SOL     OW69382   8.333   5.536   5.644 -0.5493  0.2573  0.2698
22750SOL    HW169383   8.395   5.607   5.659 -1.5930  1.0829  0.8373
22750SOL    HW269384   8.320   5.535   5.549  1.7685 -1.2226 -0.1036
22751SOL     OW69385   6.552   0.842   1.196  0.3481  0.7702  0.1778
22751SOL    HW169386   6.555   0.937   1.192 -1.0412  0.8145 -2.3575
22751SOL    HW269387   6.482   0.818   1.135 -0.4222 -1.8360  1.8957
22752SOL     OW69388   6.379   7.653   6.821  1.0240 -0.2781 -0.1309
22752SOL    HW169389   6.409   7.621   6.736 -1.2125 -1.4393 -0.5621
22752SOL    HW269390   6.296   7.608   6.836  0.5957  1.0452  1.9868
22753SOL     OW69391   8.556   2.384   0.137 -0.3457 -0.2354 -0.1979
22753SOL    HW169392   8.585   2.343   0.055  0.5593 -0.4315  0.2053
22753SOL    HW269393   8.557   2.478   0.118 -1.5416 -0.3307 -0.8432
22754SOL     OW69394   3.696   8.138   7.088 -0.3979  0.4109  0.3276
22754SOL    HW169395   3.616   8.101   7.050 -1.3972  1.8509  0.9472
22754SOL    HW269396   3.731   8.067   7.143 -2.9019  0.6766  2.4305
22755SOL     OW69397   4.950   1.639   7.685 -0.1472  0.1605 -0.1422
22755SOL    HW169398   4.977   1.698   7.615  0.7689  0.0924  0.1419
22755SOL    HW269399   5.030   1.594   7.712 -1.1255 -2.9183 -1.8646
22756SOL     OW69400   4.632   1.411   3.145  0.5213  0.1937  0.1834
22756SOL    HW169401   4.622   1.409   3.050 -1.0587 -0.3242  0.3142
22756SOL    HW269402   4.621   1.320   3.171 -0.9856  0.5668  0.9811
22757SOL     OW69403   5.517   1.845   8.602  0.1680  0.2572  0.1815
22757SOL    HW169404   5.492   1.756   8.576  0.2405  0.0572  0.7954
22757SOL    HW269405   5.459   1.901   8.550  0.6313 -0.1229 -0.7582
22758SOL     OW69406   2.637   7.786   5.046 -0.2868 -0.6507 -0.0017
22758SOL    HW169407   2.557   7.748   5.010  0.3095 -0.9738 -1.0065
22758SOL    HW269408   2.687   7.712   5.079  0.1976 -0.5901 -0.5897
22759SOL     OW69409   2.299   3.375   8.208 -0.3907 -0.1386 -0.5723
22759SOL    HW169410   2.289   3.469   8.196 -0.2811 -0.2003 -1.1842
22759SOL    HW269411   2.360   3.348   8.139  0.0196 -0.5687 -0.0600
22760SOL     OW69412   5.877   8.959   1.560  0.2825  0.3741  0.7405
22760SOL    HW169413   5.790   8.960   1.519  0.4007  0.7646  0.4888
22760SOL    HW269414   5.929   9.020   1.507  1.3886 -1.5735 -0.5583
22761SOL     OW69415   2.047   6.723   3.449 -0.4428 -0.3480 -0.6398
22761SOL    HW169416   1.998   6.766   3.379  0.7381  0.2864 -1.0932
22761SOL    HW269417   2.067   6.636   3.414  0.7682  0.2162 -1.4110
22762SOL     OW69418   5.700   8.452   6.419  0.0981 -0.2815  0.3823
22762SOL    HW169419   5.626   8.455   6.480 -0.3916 -0.0803 -0.2169
22762SOL    HW269420   5.661   8.465   6.333  0.9099  0.4436  0.1099
22763SOL     OW69421   5.074   8.179   5.303  0.7094  0.2640 -0.5692
22763SOL    HW169422   5.165   8.193   5.277  0.5779  0.7108 -0.7932
22763SOL    HW269423   5.047   8.262   5.342  0.4755  0.0512 -0.2696
22764SOL     OW69424   6.052   2.250   1.155  0.0602  0.9943 -0.0392
22764SOL    HW169425   6.119   2.184   1.135 -0.7705 -0.3525  1.3429
22764SOL    HW269426   5.991   2.204   1.212 -0.2878  3.1534  1.4265
22765SOL     OW69427   0.253   0.335   1.157 -0.2011  0.5433 -0.0910
22765SOL    HW169428   0.184   0.314   1.220  1.6753 -0.4721  1.7506
22765SOL    HW269429   0.334   0.335   1.208  1.2706  1.1491 -2.2460
22766SOL     OW69430   3.006   6.621   5.421  0.0435 -0.4369 -0.0240
22766SOL    HW169431   2.916   6.590   5.437 -0.9186  1.1863 -1.8567
22766SOL    HW269432   3.010   6.706   5.467  0.9029 -0.8268  0.6444
22767SOL     OW69433   6.894   0.779   3.618  0.5233 -0.1954  0.5439
22767SOL    HW169434   6.842   0.788   3.538 -0.3208 -2.2958  0.8030
22767SOL    HW269435   6.963   0.844   3.609 -1.4134  1.9007 -0.3736
22768SOL     OW69436   1.959   1.130   5.840  0.3748  0.3102  0.7620
22768SOL    HW169437   1.895   1.159   5.774  1.1429 -0.4896 -0.3771
22768SOL    HW269438   1.912   1.064   5.891  0.0695  0.2122  0.3660
22769SOL     OW69439   3.376   4.142   8.947  0.0010  0.1602 -0.0230
22769SOL    HW169440   3.343   4.231   8.934  0.2673  0.0836 -1.2729
22769SOL    HW269441   3.300   4.085   8.933  0.6303 -0.0452 -3.3279
22770SOL     OW69442   1.025   3.198   7.708  0.1641 -0.0739  0.6861
22770SOL    HW169443   1.048   3.254   7.635 -0.4638 -0.7887 -0.0844
22770SOL    HW269444   1.088   3.125   7.704  0.7917  0.4080  1.5027
22771SOL     OW69445   6.087   4.256   6.942 -0.4296 -0.4570  0.1872
22771SOL    HW169446   6.051   4.344   6.930 -1.3694 -0.9955 -1.3438
22771SOL    HW269447   6.108   4.250   7.035 -0.0990  1.4735  0.2607
22772SOL     OW69448   8.055   3.740   6.517 -0.1040 -0.0198 -0.1025
22772SOL    HW169449   7.999   3.768   6.588 -0.5745 -0.1054 -0.4352
22772SOL    HW269450   8.107   3.668   6.553 -1.2779 -0.9612 -0.2180
22773SOL     OW69451   5.377   2.174   5.943  0.4576 -0.1054  0.4502
22773SOL    HW169452   5.353   2.263   5.970  0.5878 -0.1405  0.6881
22773SOL    HW269453   5.384   2.125   6.025  1.3184 -0.0971  0.3926
22774SOL     OW69454   3.598   6.877   2.577 -0.2680 -0.6704 -0.5772
22774SOL    HW169455   3.551   6.939   2.520 -0.2888  1.0943  1.2639
22774SOL    HW269456   3.690   6.897   2.563 -0.3021  0.5318  0.7754
22775SOL     OW69457   5.882   6.170   3.489 -0.4206  0.4423  0.3116
22775SOL    HW169458   5.894   6.201   3.399 -1.7967  3.1183  0.9395
22775SOL    HW269459   5.963   6.123   3.509 -0.9700 -2.3166 -3.0002
22776SOL     OW69460   3.779   2.146   8.953 -0.3077 -0.1448 -1.0345
22776SOL    HW169461   3.831   2.068   8.932 -0.0116 -0.0105 -0.8151
22776SOL    HW269462   3.728   2.121   9.030  1.2692  0.4952  0.2866
22777SOL     OW69463   7.140   1.400   1.405 -0.0145 -0.1748  0.6099
22777SOL    HW169464   7.141   1.333   1.474  1.8272  1.4108  2.2090
22777SOL    HW269465   7.119   1.481   1.450  0.5544  0.8100 -0.8396
22778SOL     OW69466   2.641   0.708   7.451 -0.6583  0.2617  0.8381
22778SOL    HW169467   2.570   0.652   7.420  2.0243 -1.8291 -2.1641
22778SOL    HW269468   2.610   0.797   7.436 -1.7535 -0.5800 -3.0549
22779SOL     OW69469   2.146   7.099   7.980  0.0468 -0.0971 -0.4150
22779SOL    HW169470   2.054   7.071   7.974  0.2412 -0.6567 -0.9379
22779SOL    HW269471   2.150   7.179   7.928 -0.7110  1.5031  1.8228
22780SOL     OW69472   6.199   3.832   3.514  0.6187 -0.3168  0.0503
22780SOL    HW169473   6.104   3.846   3.515  0.7963  1.0606  1.5372
22780SOL    HW269474   6.233   3.904   3.460  0.9892  0.9435  1.8579
22781SOL     OW69475   3.757   0.820   0.392 -0.2067  0.2622 -0.3761
22781SOL    HW169476   3.764   0.742   0.447 -0.2353 -1.0846 -2.2109
22781SOL    HW269477   3.807   0.887   0.440  1.4752 -1.4021  0.3349
22782SOL     OW69478   4.625   6.327   7.940 -0.5096 -0.1197 -0.2072
22782SOL    HW169479   4.604   6.415   7.909 -1.6865 -0.8210 -1.5281
22782SOL    HW269480   4.721   6.323   7.939 -0.3828  1.5335  1.1169
22783SOL     OW69481   4.214   1.199   7.969  0.4579  0.0602 -0.1433
22783SOL    HW169482   4.250   1.196   7.880  0.3327 -0.1869 -0.1876
22783SOL    HW269483   4.142   1.136   7.967 -0.4014  1.0253 -0.2425
22784SOL     OW69484   7.801   3.567   4.218  0.3910 -0.5588  0.2554
22784SOL    HW169485   7.744   3.542   4.145 -0.4365 -0.6295  0.9111
22784SOL    HW269486   7.880   3.515   4.206 -0.0005 -1.0501 -0.2323
22785SOL     OW69487   8.302   7.251   2.775  0.5835 -0.3187  0.1485
22785SOL    HW169488   8.390   7.216   2.785  1.0414  0.1633 -1.8404
22785SOL    HW269489   8.269   7.210   2.695 -0.3961  0.6983  0.0044
22786SOL     OW69490   5.945   8.536   6.454  0.1669 -0.2015  0.9654
22786SOL    HW169491   5.989   8.544   6.369 -0.5787  0.2307  0.6170
22786SOL    HW269492   5.857   8.504   6.433  0.1220 -0.5191  1.6153
22787SOL     OW69493   2.892   7.443   8.525  0.3037 -0.3387  1.0732
22787SOL    HW169494   2.901   7.470   8.616 -0.9815  0.0629  1.0928
22787SOL    HW269495   2.981   7.450   8.489  1.0650 -1.6973  2.5970
22788SOL     OW69496   6.826   2.202   3.668  0.1020 -0.5343 -0.5315
22788SOL    HW169497   6.908   2.207   3.717 -0.2572 -1.0760  0.1399
22788SOL    HW269498   6.769   2.147   3.722 -0.9927  0.5253 -0.5560
22789SOL     OW69499   6.729   1.643   5.611  0.5730 -0.4302  0.0861
22789SOL    HW169500   6.680   1.597   5.542  0.5211 -0.1971 -0.0350
22789SOL    HW269501   6.663   1.694   5.657  0.6706 -0.2590  0.0402
22790SOL     OW69502   6.293   1.076   7.423  0.1002 -0.7966  0.3299
22790SOL    HW169503   6.346   1.019   7.367 -0.8521 -0.4638 -0.9338
22790SOL    HW269504   6.250   1.137   7.363  0.2201  0.5525  1.5626
22791SOL     OW69505   0.543   0.434   4.951 -0.0369  0.3628 -0.0020
22791SOL    HW169506   0.519   0.361   4.894 -2.2715  1.9828 -1.2957
22791SOL    HW269507   0.472   0.497   4.941  1.0863  2.1344  2.1565
22792SOL     OW69508   6.193   0.895   4.338 -0.3184 -0.1700  0.7976
22792SOL    HW169509   6.100   0.880   4.353  0.2157 -2.8853  2.0758
22792SOL    HW269510   6.234   0.810   4.356  1.9734 -0.4975 -4.3161
22793SOL     OW69511   6.430   3.218   8.638 -0.0261  0.0892  0.1704
22793SOL    HW169512   6.364   3.207   8.706  1.2336 -1.3768  1.2255
22793SOL    HW269513   6.453   3.310   8.641 -1.2056  0.3881  0.5476
22794SOL     OW69514   3.970   6.070   7.152 -0.0266  0.1491 -0.1140
22794SOL    HW169515   3.897   6.126   7.127 -0.8658 -1.4018 -1.3413
22794SOL    HW269516   3.986   6.090   7.244 -2.0839  0.4249  0.2234
22795SOL     OW69517   5.022   5.817   6.786  0.2066 -0.0351  0.0122
22795SOL    HW169518   5.117   5.809   6.788  0.5933  3.1218  0.8613
22795SOL    HW269519   5.001   5.829   6.693  0.0333 -4.4773 -0.7209
22796SOL     OW69520   1.432   8.290   8.263 -0.0062  0.2174  0.2533
22796SOL    HW169521   1.448   8.338   8.182  2.2315  2.8120  2.0431
22796SOL    HW269522   1.490   8.213   8.257  1.4651  1.2991  0.0645
22797SOL     OW69523   3.508   4.600   8.852  0.0893 -0.0454  0.2591
22797SOL    HW169524   3.576   4.615   8.787 -0.5643 -1.5097 -0.8077
22797SOL    HW269525   3.531   4.659   8.925  1.7314  0.4369 -0.6055
22798SOL     OW69526   8.226   8.245   1.453  0.1644 -0.4255  0.7304
22798SOL    HW169527   8.216   8.192   1.532 -1.5379  1.9132  2.2165
22798SOL    HW269528   8.157   8.214   1.394  1.3212 -2.0489  0.1385
22799SOL     OW69529   6.448   5.003   5.997 -0.2546  0.5524 -0.0381
22799SOL    HW169530   6.497   5.004   6.080  0.8558  1.4417 -0.6759
22799SOL    HW269531   6.420   4.913   5.987  1.6923 -0.1246  0.1278
22800SOL     OW69532   5.277   8.777   6.088 -0.2075  0.4620  0.3437
22800SOL    HW169533   5.199   8.776   6.143 -0.7497 -0.8000 -0.3988
22800SOL    HW269534   5.350   8.773   6.150 -0.7851 -0.2601  0.9978
22801SOL     OW69535   1.826   6.903   5.911 -0.0189 -0.0587 -0.2270
22801SOL    HW169536   1.810   6.919   5.818  3.8957  0.5052 -1.0047
22801SOL    HW269537   1.785   6.977   5.956 -0.4196  0.6548 -1.6970
22802SOL     OW69538   3.484   5.909   0.894 -0.5870 -0.4824  0.6445
22802SOL    HW169539   3.456   5.877   0.808  2.1717 -2.9691  0.4981
22802SOL    HW269540   3.552   5.973   0.874 -0.3416 -0.6412  0.9804
22803SOL     OW69541   6.479   1.998   0.831  0.2344  0.5836  0.3087
22803SOL    HW169542   6.421   2.061   0.788  1.4028  1.5334  0.0502
22803SOL    HW269543   6.558   1.998   0.776  0.7884 -0.0598  1.0904
22804SOL     OW69544   3.698   7.948   0.867  0.4324 -0.4967  0.4089
22804SOL    HW169545   3.690   7.935   0.773  0.3253 -1.0031  0.4837
22804SOL    HW269546   3.790   7.928   0.887  0.4141 -0.5542  0.4365
22805SOL     OW69547   0.495   2.359   6.788  0.3445 -0.0093 -0.5163
22805SOL    HW169548   0.401   2.373   6.770  0.2885 -0.1518 -0.3363
22805SOL    HW269549   0.505   2.386   6.879  0.7286  1.2076 -0.8992
22806SOL     OW69550   0.897   1.692   5.408  0.1459 -0.8595 -0.0265
22806SOL    HW169551   0.858   1.780   5.412  2.0387 -0.0151  1.8658
22806SOL    HW269552   0.955   1.695   5.331 -0.8644 -0.9822 -0.8189
22807SOL     OW69553   7.400   7.320   1.105 -0.3484 -0.0139  0.5732
22807SOL    HW169554   7.378   7.315   1.198 -0.6065 -1.0642  0.4727
22807SOL    HW269555   7.413   7.229   1.079  0.9783  0.3560 -0.1377
22808SOL     OW69556   7.061   5.417   7.961 -0.4771  0.0259 -0.1163
22808SOL    HW169557   6.976   5.428   7.918 -0.9561 -1.2427  0.4639
22808SOL    HW269558   7.053   5.335   8.010  0.4095  0.8965  1.5750
22809SOL     OW69559   7.864   4.650   6.613 -0.3559  0.3965 -0.4660
22809SOL    HW169560   7.852   4.700   6.693  0.2894  1.2869 -0.9065
22809SOL    HW269561   7.938   4.692   6.569  0.0177 -0.7582 -0.9966
22810SOL     OW69562   1.431   3.606   2.202 -0.0646 -0.3072  0.5194
22810SOL    HW169563   1.481   3.653   2.135  0.4986  0.3432  1.3732
22810SOL    HW269564   1.340   3.616   2.175  0.1704 -0.2003 -0.2424
22811SOL     OW69565   5.626   5.963   2.210 -0.1128 -0.1010 -0.9230
22811SOL    HW169566   5.632   6.037   2.150  0.4445 -0.2360 -1.0340
22811SOL    HW269567   5.535   5.964   2.240 -0.4430 -0.1192 -1.8800
22812SOL     OW69568   0.845   5.405   0.568  0.0138  0.8702 -0.0696
22812SOL    HW169569   0.759   5.443   0.550 -0.7729 -0.2747  1.1522
22812SOL    HW269570   0.864   5.352   0.490 -1.2434 -0.3348  0.4104
22813SOL     OW69571   6.936   1.601   3.231 -0.0649 -0.3735 -0.6930
22813SOL    HW169572   6.970   1.571   3.315 -1.9291 -0.0353  0.2253
22813SOL    HW269573   6.889   1.525   3.196  1.4959 -0.8335 -1.9442
22814SOL     OW69574   3.111   0.762   6.963  0.1619 -0.3871 -0.1290
22814SOL    HW169575   3.138   0.674   6.991  0.8212 -0.2063 -0.1863
22814SOL    HW269576   3.045   0.788   7.028 -0.1397 -0.9746 -0.1891
22815SOL     OW69577   0.514   2.274   0.561  0.2555 -0.8824 -0.1856
22815SOL    HW169578   0.544   2.289   0.651 -0.0378 -1.8304  0.0888
22815SOL    HW269579   0.537   2.354   0.514  1.5647 -0.8638  0.4372
22816SOL     OW69580   7.409   5.040   4.166  0.0902 -0.4633 -0.5426
22816SOL    HW169581   7.344   4.977   4.198 -1.8666  1.4655 -0.5332
22816SOL    HW269582   7.380   5.062   4.078  0.3773  0.8875 -0.3096
22817SOL     OW69583   7.762   8.358   1.682  0.3612  0.2941 -0.4146
22817SOL    HW169584   7.799   8.427   1.737  0.6647  0.0468 -0.3028
22817SOL    HW269585   7.816   8.357   1.604  1.0188 -0.5048  0.0287
22818SOL     OW69586   1.688   7.413   2.128 -0.3446  0.7617  0.0942
22818SOL    HW169587   1.610   7.413   2.072  0.1507  1.0348 -0.6188
22818SOL    HW269588   1.674   7.342   2.190 -0.7387  0.1847 -0.6374
22819SOL     OW69589   0.467   6.242   0.567  0.0715 -0.6811  0.1425
22819SOL    HW169590   0.526   6.282   0.502  0.9965 -2.2849 -0.0565
22819SOL    HW269591   0.392   6.302   0.572  2.4643  2.4482  1.7728
22820SOL     OW69592   6.772   6.177   1.838 -0.6040  0.4901 -0.1975
22820SOL    HW169593   6.688   6.130   1.847  0.0458 -0.7832 -0.5378
22820SOL    HW269594   6.838   6.113   1.864  0.2656  1.5600  0.2887
22821SOL     OW69595   0.910   3.107   3.623 -0.4179  0.2524  0.1256
22821SOL    HW169596   0.941   3.020   3.596 -1.8489 -0.2410 -0.0147
22821SOL    HW269597   0.822   3.112   3.587 -1.3281  0.7300  2.3145
22822SOL     OW69598   5.511   3.451   6.415  0.6958  0.0976 -0.5987
22822SOL    HW169599   5.432   3.459   6.470  0.9226  0.0773 -0.2694
22822SOL    HW269600   5.510   3.530   6.361  0.7410  0.3616 -0.2141
22823SOL     OW69601   0.138   1.446   7.803 -0.1584  0.2447 -0.2680
22823SOL    HW169602   0.131   1.459   7.897 -0.1424  0.9996 -0.3676
22823SOL    HW269603   0.149   1.534   7.767  0.7815 -0.1119 -0.8936
22824SOL     OW69604   7.498   6.522   5.137  0.4952 -0.6514  0.3174
22824SOL    HW169605   7.457   6.435   5.143 -1.2305  0.2027  2.2155
22824SOL    HW269606   7.448   6.576   5.198  2.7535  1.2310  0.6410
22825SOL     OW69607   5.787   2.474   7.663 -0.2370 -0.1384  0.2622
22825SOL    HW169608   5.697   2.477   7.629  0.0285  1.6801 -0.3524
22825SOL    HW269609   5.838   2.436   7.592 -0.1833  0.8081 -0.2119
22826SOL     OW69610   4.104   7.176   4.022  0.2578 -0.2020  0.0425
22826SOL    HW169611   4.182   7.223   3.991  0.5340  0.0433  1.0665
22826SOL    HW269612   4.050   7.243   4.064  0.5045 -0.7147  1.2348
22827SOL     OW69613   2.404   5.134   0.718  0.4708  0.2831 -0.6135
22827SOL    HW169614   2.322   5.152   0.763  1.3773  0.9448  0.8732
22827SOL    HW269615   2.390   5.050   0.674 -0.6679 -0.1135  0.4523
22828SOL     OW69616   5.310   4.978   8.639  0.3799  0.0182  0.1431
22828SOL    HW169617   5.372   4.918   8.597  0.5549 -0.2356  0.7580
22828SOL    HW269618   5.225   4.934   8.631  0.1955  0.5228 -1.0112
22829SOL     OW69619   7.271   5.470   3.456  0.5424 -0.1778  0.4275
22829SOL    HW169620   7.268   5.420   3.538 -0.8924  0.2982  0.7062
22829SOL    HW269621   7.348   5.526   3.465  1.1046 -1.0090  0.9169
22830SOL     OW69622   3.857   1.232   2.182  0.7353  0.5595  0.1533
22830SOL    HW169623   3.810   1.162   2.227  0.8027 -0.7796 -1.7686
22830SOL    HW269624   3.790   1.275   2.129  1.0961  0.5673 -0.3013
22831SOL     OW69625   0.762   1.569   6.159 -0.8668 -0.1367  0.0522
22831SOL    HW169626   0.785   1.660   6.141 -2.6717  0.6550  1.3897
22831SOL    HW269627   0.676   1.558   6.118 -1.1694 -0.8644  0.8454
22832SOL     OW69628   0.776   5.451   5.840 -0.0708  0.1136  0.2408
22832SOL    HW169629   0.846   5.515   5.830  1.5116 -1.7303 -1.1999
22832SOL    HW269630   0.820   5.370   5.866 -1.5246 -1.2705 -1.3360
22833SOL     OW69631   3.746   5.196   5.788  0.5505 -0.1126  0.0916
22833SOL    HW169632   3.798   5.120   5.812 -1.5379 -1.8325 -0.5562
22833SOL    HW269633   3.780   5.222   5.702 -0.4311 -2.0139 -0.9182
22834SOL     OW69634   3.932   7.124   0.189  0.1799 -0.3009  0.3077
22834SOL    HW169635   3.982   7.049   0.155  0.5784  0.4146 -0.7398
22834SOL    HW269636   3.841   7.097   0.182  0.3424 -1.0046  0.7258
22835SOL     OW69637   4.343   5.077   7.028  0.1319 -0.6493 -0.0175
22835SOL    HW169638   4.300   4.995   7.054 -0.0074 -0.5376  0.1116
22835SOL    HW269639   4.353   5.126   7.110 -1.5527  0.2973 -0.3116
22836SOL     OW69640   6.270   5.004   3.595 -0.0877  0.2865 -0.1218
22836SOL    HW169641   6.209   4.935   3.568 -0.0463 -0.0424  0.5968
22836SOL    HW269642   6.341   5.000   3.531 -0.4076  0.1016 -0.4698
22837SOL     OW69643   3.093   7.855   5.948  0.7403 -0.0380 -0.1823
22837SOL    HW169644   3.022   7.919   5.939 -0.3341 -1.1896 -0.3081
22837SOL    HW269645   3.171   7.900   5.916  0.0704  1.2669 -0.0452
22838SOL     OW69646   3.869   4.131   0.888  0.2777 -0.9046  0.2658
22838SOL    HW169647   3.952   4.178   0.900  0.3114 -0.6094 -1.0013
22838SOL    HW269648   3.895   4.042   0.863  0.2109 -0.8770  0.0989
22839SOL     OW69649   7.006   7.528   5.318  0.1940  0.2155 -0.1748
22839SOL    HW169650   6.981   7.440   5.342  0.6743  0.4814  1.4359
22839SOL    HW269651   6.927   7.580   5.328  0.4116  0.3437  1.0505
22840SOL     OW69652   4.665   7.558   1.697  0.6463 -0.3576 -0.0490
22840SOL    HW169653   4.644   7.465   1.695  0.5554 -0.3547  0.4707
22840SOL    HW269654   4.748   7.566   1.650  0.5219 -0.6625 -0.3213
22841SOL     OW69655   4.968   1.806   5.380 -0.4053  0.0912  0.3328
22841SOL    HW169656   4.972   1.723   5.333  1.2675  0.6085 -0.4996
22841SOL    HW269657   4.919   1.864   5.322 -2.6655 -0.5859  1.4478
22842SOL     OW69658   8.176   4.995   7.512 -0.0969 -0.1173 -0.1327
22842SOL    HW169659   8.083   5.016   7.504  0.4701  2.2125 -2.6180
22842SOL    HW269660   8.191   4.926   7.447 -0.1081 -0.5487  0.3236
22843SOL     OW69661   4.059   7.642   2.636  0.5216 -0.1922  0.4044
22843SOL    HW169662   4.082   7.551   2.654  0.5089 -0.1236  0.7813
22843SOL    HW269663   3.976   7.637   2.590 -2.3197 -0.2491  4.8996
22844SOL     OW69664   5.268   8.197   8.864  0.2987  0.4432 -0.4389
22844SOL    HW169665   5.291   8.217   8.955  1.2379 -1.7299 -0.1323
22844SOL    HW269666   5.181   8.157   8.869  1.2841 -1.8263 -0.1240
22845SOL     OW69667   2.875   2.743   1.117 -0.4838  0.2979 -0.4673
22845SOL    HW169668   2.955   2.699   1.146  1.5225  3.6815 -0.4595
22845SOL    HW269669   2.881   2.742   1.021 -1.0898 -0.5060 -0.5056
22846SOL     OW69670   2.356   0.577   8.495 -0.7124  0.5904  0.1894
22846SOL    HW169671   2.286   0.511   8.489 -0.3018  0.1847 -0.2951
22846SOL    HW269672   2.323   0.651   8.445 -1.1869  0.7635  0.7510
22847SOL     OW69673   2.901   5.555   4.473 -0.5035  1.1756  0.0809
22847SOL    HW169674   2.815   5.544   4.433 -0.9361 -0.3233  1.3525
22847SOL    HW269675   2.908   5.649   4.492 -1.1504  1.5721 -1.5129
22848SOL     OW69676   4.194   4.504   7.201 -0.2781  0.1938  0.1671
22848SOL    HW169677   4.284   4.477   7.219  0.0012  1.0901  0.1747
22848SOL    HW269678   4.195   4.531   7.109 -0.6284 -0.1525  0.0610
22849SOL     OW69679   4.478   5.878   0.792 -0.3064 -0.4353  0.0957
22849SOL    HW169680   4.445   5.807   0.847  0.3101 -0.0179  1.0233
22849SOL    HW269681   4.498   5.949   0.853 -1.7152  0.8760 -0.9078
22850SOL     OW69682   5.666   1.775   3.430 -0.7059 -0.0957  0.3297
22850SOL    HW169683   5.600   1.739   3.371 -1.1793 -0.8163  1.2703
22850SOL    HW269684   5.639   1.747   3.517 -1.0171  2.3970  1.1305
22851SOL     OW69685   8.193   2.034   3.536  0.1391  0.3754  0.2929
22851SOL    HW169686   8.163   2.036   3.445 -2.1039 -0.9274  0.9186
22851SOL    HW269687   8.158   2.114   3.575 -2.7261 -1.0232  0.9599
22852SOL     OW69688   1.841   2.405   5.028  0.7054  0.2071  0.2452
22852SOL    HW169689   1.878   2.487   5.063  0.0401  0.6987 -0.1760
22852SOL    HW269690   1.897   2.337   5.064  1.3621  0.8573  0.4981
22853SOL     OW69691   8.689   2.385   4.939 -0.1241 -0.1742  0.4234
22853SOL    HW169692   8.620   2.416   4.998 -0.2951  0.7477 -0.2317
22853SOL    HW269693   8.747   2.461   4.930  0.4792 -0.6517  0.2426
22854SOL     OW69694   1.328   5.010   6.686 -0.2025  0.1543  0.0217
22854SOL    HW169695   1.390   4.966   6.628 -2.1346  0.2169 -2.2162
22854SOL    HW269696   1.324   4.953   6.763 -0.0832 -1.8000 -1.3501
22855SOL     OW69697   1.466   2.602   3.455 -0.2138 -0.5559 -0.0534
22855SOL    HW169698   1.538   2.653   3.492 -1.1687 -0.5074  1.8756
22855SOL    HW269699   1.445   2.646   3.373 -0.9985  2.2678  1.5130
22856SOL     OW69700   3.302   7.958   7.726  0.0114 -0.0655 -0.2980
22856SOL    HW169701   3.372   7.989   7.669 -0.8698  3.5559  0.2984
22856SOL    HW269702   3.232   7.932   7.667  0.3017  0.5276 -0.9186
22857SOL     OW69703   5.610   6.747   4.579  0.3185 -0.2042 -0.0567
22857SOL    HW169704   5.561   6.729   4.660 -0.4568 -2.3120 -0.9154
22857SOL    HW269705   5.552   6.804   4.528 -0.2492 -0.8320 -0.1185
22858SOL     OW69706   3.421   3.556   8.145  0.2989 -0.0833 -0.2932
22858SOL    HW169707   3.437   3.464   8.127  1.1240 -0.0416  0.1530
22858SOL    HW269708   3.389   3.592   8.062 -1.6599 -1.1008 -0.0471
22859SOL     OW69709   0.716   1.912   2.269 -0.3155 -0.6095 -0.0448
22859SOL    HW169710   0.760   1.977   2.324 -2.0010  0.8407 -0.3165
22859SOL    HW269711   0.676   1.851   2.332 -1.8989  0.8145  0.4065
22860SOL     OW69712   6.230   3.072   8.858  0.2915 -0.6420 -0.3237
22860SOL    HW169713   6.181   3.154   8.859 -1.4027 -1.6154  0.4922
22860SOL    HW269714   6.165   3.005   8.880  1.8810 -2.0573  0.2550
22861SOL     OW69715   2.425   7.248   4.494 -0.4075  0.2195  0.4399
22861SOL    HW169716   2.430   7.182   4.564  1.2803  0.8920  1.0083
22861SOL    HW269717   2.331   7.262   4.481 -0.7784 -0.9678  1.5730
22862SOL     OW69718   8.950   5.606   8.082 -0.1127  0.0413  0.3540
22862SOL    HW169719   8.937   5.577   8.172  1.5112 -0.3214  0.5154
22862SOL    HW269720   8.985   5.529   8.037  2.3681  1.0930  0.2938
22863SOL     OW69721   6.759   4.033   0.903 -0.3115  0.6424  0.2902
22863SOL    HW169722   6.769   4.127   0.913 -0.8476  0.5968  1.3727
22863SOL    HW269723   6.826   3.995   0.960 -1.5466  0.3821  1.6288
22864SOL     OW69724   3.065   6.059   4.421  0.2849  0.1252  0.2090
22864SOL    HW169725   3.045   6.151   4.439  0.3819  0.2595 -0.3471
22864SOL    HW269726   3.047   6.048   4.328  1.2479 -0.1604  0.0420
22865SOL     OW69727   7.997   4.627   4.408 -0.1545 -0.6479 -0.0823
22865SOL    HW169728   7.994   4.559   4.475 -0.3480 -0.7918 -0.2334
22865SOL    HW269729   7.973   4.581   4.327 -2.0760 -0.0447  0.1055
22866SOL     OW69730   9.002   8.052   1.064  0.3385  0.3406 -0.0878
22866SOL    HW169731   8.967   8.037   1.152 -0.5735 -0.5749 -0.5981
22866SOL    HW269732   9.041   7.969   1.039  0.4443  0.5487 -0.6241
22867SOL     OW69733   0.552   6.356   4.851  0.7935  0.3819  0.2326
22867SOL    HW169734   0.525   6.353   4.759 -0.0385  1.4730  0.4177
22867SOL    HW269735   0.520   6.441   4.882  0.0995 -0.4162  1.8183
22868SOL     OW69736   4.542   2.356   3.014 -0.6701 -0.6673  0.6160
22868SOL    HW169737   4.570   2.418   2.946 -0.0313  0.1224  1.5731
22868SOL    HW269738   4.619   2.346   3.070 -0.6099 -2.6815  0.2562
22869SOL     OW69739   7.948   0.512   5.299 -0.0084  0.1289  0.6375
22869SOL    HW169740   7.916   0.580   5.240 -1.3347  0.2484  1.4532
22869SOL    HW269741   7.973   0.439   5.241 -1.8395  0.0160 -0.0574
22870SOL     OW69742   5.078   4.532   6.635 -0.2978 -0.2923  0.4646
22870SOL    HW169743   5.088   4.564   6.725  0.4463  0.2682  0.1918
22870SOL    HW269744   5.115   4.601   6.581 -1.9145 -0.0364 -0.3824
22871SOL     OW69745   0.213   0.418   1.428  0.3877 -0.1565  0.4874
22871SOL    HW169746   0.252   0.449   1.509  1.8987  2.7699 -1.1889
22871SOL    HW269747   0.121   0.445   1.433  0.6389  0.6482  0.9409
22872SOL     OW69748   8.131   5.127   5.097 -0.3703  0.6249  0.1670
22872SOL    HW169749   8.145   5.189   5.169  1.5003  1.1798 -0.6007
22872SOL    HW269750   8.214   5.129   5.049 -1.3759 -0.1758 -1.6624
22873SOL     OW69751   2.598   4.617   6.863 -0.3844  0.2104 -0.1860
22873SOL    HW169752   2.523   4.560   6.845 -0.6762  0.5734 -0.1367
22873SOL    HW269753   2.582   4.650   6.951  0.3170 -0.4488  0.2011
22874SOL     OW69754   4.172   6.936   8.733  0.1918 -0.3953  0.4951
22874SOL    HW169755   4.237   6.893   8.789  2.3430  0.1694 -1.3984
22874SOL    HW269756   4.216   7.014   8.700 -1.9586  0.7493  0.1367
22875SOL     OW69757   8.639   6.594   3.378  0.4625  0.0799 -0.3758
22875SOL    HW169758   8.641   6.600   3.474  0.0147  0.2194 -0.3719
22875SOL    HW269759   8.560   6.641   3.353 -0.4552 -1.5436 -0.6906
22876SOL     OW69760   5.113   7.440   3.588 -0.9192  0.1234 -0.0912
22876SOL    HW169761   5.098   7.404   3.675  0.2144  1.0661  0.5261
22876SOL    HW269762   5.086   7.532   3.596  0.5139  0.5881 -0.3048
22877SOL     OW69763   9.014   0.544   0.595 -0.3558 -0.1537  0.2988
22877SOL    HW169764   8.979   0.462   0.629  1.5264 -0.8544  0.6618
22877SOL    HW269765   8.936   0.597   0.577 -1.7571 -2.6165 -1.6392
22878SOL     OW69766   4.400   6.224   4.796  0.3941 -0.4138  0.0521
22878SOL    HW169767   4.315   6.268   4.796  0.0004 -1.1633  0.4346
22878SOL    HW269768   4.423   6.216   4.889  0.1720 -1.5537  0.0162
22879SOL     OW69769   8.549   3.078   6.296  0.1659  0.7758 -0.2581
22879SOL    HW169770   8.540   3.165   6.258 -0.8044  1.0315  0.5342
22879SOL    HW269771   8.479   3.072   6.361  0.7816 -0.2550  0.3430
22880SOL     OW69772   3.164   7.012   0.033  0.0292  0.2032  0.0672
22880SOL    HW169773   3.093   7.074   0.049 -0.0631  0.0007  0.4453
22880SOL    HW269774   3.176   6.966   0.116 -0.5951 -0.9994 -0.4726
22881SOL     OW69775   2.511   7.464   3.868 -0.4694 -0.0749 -0.4336
22881SOL    HW169776   2.509   7.379   3.913  1.5685  0.3835  0.6332
22881SOL    HW269777   2.583   7.457   3.805 -1.4459  0.2886 -1.6449
22882SOL     OW69778   3.677   4.627   3.608 -0.2353  0.4388 -0.2035
22882SOL    HW169779   3.655   4.579   3.527  0.8859 -3.1362  1.4057
22882SOL    HW269780   3.769   4.606   3.624 -0.4794  0.8689  2.0954
22883SOL     OW69781   8.251   7.249   4.217 -0.5243  0.3845 -0.8645
22883SOL    HW169782   8.238   7.304   4.295 -0.6474 -0.7944 -0.0322
22883SOL    HW269783   8.252   7.311   4.144  0.4495  1.6240  0.1457
22884SOL     OW69784   0.310   5.727   8.243 -0.0841 -0.6163 -0.0715
22884SOL    HW169785   0.308   5.752   8.336 -0.1247  1.2787 -0.5376
22884SOL    HW269786   0.226   5.756   8.209 -0.7292 -2.7334 -0.4125
22885SOL     OW69787   6.078   1.639   6.384 -0.4242  0.0701  0.0621
22885SOL    HW169788   6.160   1.592   6.405 -0.6072 -0.8990 -1.2870
22885SOL    HW269789   6.049   1.673   6.469  0.3166 -1.3062  0.9220
22886SOL     OW69790   9.091   8.669   8.025  0.4579  0.0013  0.6006
22886SOL    HW169791   9.122   8.603   7.963 -1.7080 -0.1951 -0.3718
22886SOL    HW269792   9.106   8.630   8.111  1.0380 -0.9071  0.1011
22887SOL     OW69793   8.238   6.529   2.732  0.5821  0.5308 -0.3277
22887SOL    HW169794   8.292   6.486   2.798  1.6246 -0.0090 -1.5042
22887SOL    HW269795   8.211   6.459   2.672 -0.7599  0.9292 -0.2310
22888SOL     OW69796   2.346   8.819   4.648  0.1399 -0.2974  0.8334
22888SOL    HW169797   2.273   8.848   4.593 -0.4947  0.0468  1.8419
22888SOL    HW269798   2.373   8.897   4.696  1.9342 -0.1365 -0.3264
22889SOL     OW69799   5.028   0.774   3.800  0.0296  0.4356 -0.6806
22889SOL    HW169800   4.982   0.741   3.877 -1.2138  0.8024 -1.2452
22889SOL    HW269801   5.107   0.816   3.835  0.4534 -1.0583  0.2267
22890SOL     OW69802   1.557   3.820   6.118 -0.9664  0.2276 -0.4155
22890SOL    HW169803   1.589   3.819   6.028 -0.5060  1.4090 -0.2886
22890SOL    HW269804   1.633   3.846   6.170 -1.5252  0.7619  0.1611
22891SOL     OW69805   7.144   8.628   8.599  0.4829  0.5016  0.0229
22891SOL    HW169806   7.192   8.609   8.679 -0.6734 -0.2444  0.5642
22891SOL    HW269807   7.167   8.557   8.539 -0.7101 -0.4354  0.6422
22892SOL     OW69808   5.715   4.068   0.957  0.1901  0.0990 -0.5304
22892SOL    HW169809   5.634   4.092   0.914 -1.7396 -0.4337  2.4774
22892SOL    HW269810   5.761   4.012   0.894 -1.2463  1.2481 -2.6983
22893SOL     OW69811   0.960   2.541   5.596  0.5888  0.1399 -0.4059
22893SOL    HW169812   0.870   2.528   5.565  0.6764  2.3769 -1.7948
22893SOL    HW269813   0.952   2.545   5.692 -0.8610  0.6869 -0.5233
22894SOL     OW69814   1.776   0.590   6.671  0.1147 -0.6534  0.1279
22894SOL    HW169815   1.684   0.599   6.697  0.1722 -1.6707  0.7379
22894SOL    HW269816   1.773   0.578   6.576 -0.4640 -1.6266  0.2556
22895SOL     OW69817   5.897   6.318   3.772  0.9665 -0.3327 -0.1598
22895SOL    HW169818   5.912   6.223   3.763 -0.0903 -0.4376 -0.9762
22895SOL    HW269819   5.857   6.344   3.688  1.3301  0.8586  0.0166
22896SOL     OW69820   1.063   6.130   5.431 -0.4633  0.3975  0.2897
22896SOL    HW169821   1.138   6.189   5.444 -1.2580  1.1569  1.5848
22896SOL    HW269822   0.987   6.182   5.457 -1.6519  0.1106 -2.2848
22897SOL     OW69823   8.501   0.037   7.919  0.3185  0.5881  0.0822
22897SOL    HW169824   8.427  -0.010   7.957  1.6530 -1.7330 -0.0146
22897SOL    HW269825   8.485   0.129   7.942 -1.5711 -0.0714  1.7275
22898SOL     OW69826   4.663   3.533   7.080  0.1986 -0.2721 -0.7023
22898SOL    HW169827   4.684   3.441   7.093 -0.5599 -0.3427  0.1411
22898SOL    HW269828   4.600   3.532   7.007 -1.3333 -0.6485  0.5640
22899SOL     OW69829   2.914   7.867   7.948  0.8577 -0.1766  0.8300
22899SOL    HW169830   2.864   7.936   7.993 -0.5185 -0.2162 -0.5479
22899SOL    HW269831   3.005   7.892   7.960  0.4040  1.8582  0.4826
22900SOL     OW69832   6.228   2.053   4.268 -0.4150 -0.5234  0.2837
22900SOL    HW169833   6.172   2.108   4.213  1.3630  0.4628 -0.6379
22900SOL    HW269834   6.226   2.095   4.354 -1.2697 -0.6481  0.3298
22901SOL     OW69835   0.769   2.033   7.202  0.4754 -0.0537 -0.1472
22901SOL    HW169836   0.739   2.095   7.135 -0.6735  0.3954  0.7390
22901SOL    HW269837   0.750   2.077   7.285  1.9223 -0.5774  0.4914
22902SOL     OW69838   3.987   9.108   1.542  0.8329  1.0661  0.6882
22902SOL    HW169839   4.054   9.167   1.577  1.5427 -0.3803  1.8746
22902SOL    HW269840   3.957   9.059   1.618 -0.3329  0.4637 -0.1370
22903SOL     OW69841   2.311   0.247   5.595 -0.4122 -0.8104  0.0883
22903SOL    HW169842   2.316   0.327   5.647  0.4960 -0.1994 -0.8916
22903SOL    HW269843   2.367   0.184   5.641  0.2888 -0.3171 -0.0803
22904SOL     OW69844   5.852   1.481   1.763  0.1930 -0.0013 -0.3324
22904SOL    HW169845   5.808   1.548   1.711  0.6891  0.2766 -0.4078
22904SOL    HW269846   5.944   1.510   1.764  0.4551 -0.8065 -0.5782
22905SOL     OW69847   8.365   4.853   5.538 -0.2948 -0.1056  0.3865
22905SOL    HW169848   8.443   4.886   5.584  0.0964 -0.8974  0.3099
22905SOL    HW269849   8.374   4.758   5.542 -0.9671 -0.1953 -0.1365
22906SOL     OW69850   8.323   4.586   6.954  0.0921 -0.5715 -0.5582
22906SOL    HW169851   8.357   4.618   7.038  1.2082 -1.2213 -0.7351
22906SOL    HW269852   8.267   4.656   6.922  1.0870  0.4527 -0.1253
22907SOL     OW69853   0.718   4.775   2.747 -0.2672  0.0548 -0.5808
22907SOL    HW169854   0.651   4.828   2.703  1.0266  2.0803 -0.2639
22907SOL    HW269855   0.801   4.820   2.727  0.8361 -1.4618  0.3409
22908SOL     OW69856   4.788   6.238   0.279 -0.2049  0.3102  0.6659
22908SOL    HW169857   4.722   6.238   0.348 -0.5700  0.1766  0.3253
22908SOL    HW269858   4.807   6.330   0.263 -2.3550  0.5299 -1.1322
22909SOL     OW69859   4.116   6.379   2.479 -0.4467  0.0871  0.7127
22909SOL    HW169860   4.196   6.337   2.511 -0.6835 -1.3172 -0.4225
22909SOL    HW269861   4.143   6.467   2.454  0.6729 -0.2502  0.6839
22910SOL     OW69862   8.033   4.349   8.291  0.0001  0.2527  0.4340
22910SOL    HW169863   8.063   4.435   8.321 -1.8583  1.5964 -1.3077
22910SOL    HW269864   8.089   4.329   8.216  1.7428 -1.0786  1.9755
22911SOL     OW69865   8.992   6.540   0.101 -0.1981 -0.8346  0.2134
22911SOL    HW169866   9.063   6.485   0.069 -0.7436 -1.1785 -0.4366
22911SOL    HW269867   8.944   6.566   0.022 -1.3107 -1.3200  0.7038
22912SOL     OW69868   7.863   8.649   5.360 -0.5487  0.1121 -0.3001
22912SOL    HW169869   7.878   8.709   5.287  0.1178  1.8752  1.2037
22912SOL    HW269870   7.943   8.653   5.412 -1.1862 -0.6903  0.8072
22913SOL     OW69871   8.147   1.835   5.072  0.0316 -0.5100 -0.1393
22913SOL    HW169872   8.128   1.854   4.980 -0.4890 -0.0300  0.0604
22913SOL    HW269873   8.236   1.869   5.085  0.1262 -0.6267 -0.4808
22914SOL     OW69874   2.833   6.298   2.982  0.2116 -0.2373 -0.1363
22914SOL    HW169875   2.869   6.343   2.906 -0.6537 -0.8388 -0.9193
22914SOL    HW269876   2.738   6.311   2.975  0.2077  1.2620  1.8465
22915SOL     OW69877   7.170   4.514   1.151  0.2305  0.7677  0.2694
22915SOL    HW169878   7.089   4.505   1.102  0.6712  0.2183 -0.3744
22915SOL    HW269879   7.159   4.595   1.201 -1.1838  0.0778  1.1141
22916SOL     OW69880   1.573   8.979   9.059  0.3897  0.2171 -0.0596
22916SOL    HW169881   1.623   8.948   9.134 -1.7951 -0.4428  1.2008
22916SOL    HW269882   1.537   8.900   9.019 -2.3657  0.7554  1.1077
22917SOL     OW69883   5.794   0.262   7.898 -0.7429 -0.0810 -0.0454
22917SOL    HW169884   5.746   0.343   7.882 -2.7140 -1.2635 -0.4694
22917SOL    HW269885   5.822   0.268   7.990 -1.7524  0.6406  0.2304
22918SOL     OW69886   1.669   3.235   3.450  0.5665  0.1412 -0.0361
22918SOL    HW169887   1.681   3.173   3.379 -0.0114 -0.8616  0.7151
22918SOL    HW269888   1.590   3.284   3.426 -0.3755 -1.0638  0.4963
22919SOL     OW69889   7.582   8.616   5.921  0.2362  0.0548 -0.2581
22919SOL    HW169890   7.524   8.591   5.993  1.6954 -1.3814  0.4887
22919SOL    HW269891   7.591   8.711   5.930  1.0298 -0.1741  2.0161
22920SOL     OW69892   9.086   0.479   7.126 -0.1834  0.8809  0.4685
22920SOL    HW169893   9.013   0.471   7.188 -2.0797 -1.5940 -1.8226
22920SOL    HW269894   9.054   0.539   7.059  1.3331  2.4915  1.1040
22921SOL     OW69895   2.426   5.417   7.290 -0.8897 -0.4525 -0.4866
22921SOL    HW169896   2.409   5.511   7.276  0.2545 -0.0937  0.4486
22921SOL    HW269897   2.521   5.411   7.297 -0.8968 -1.8073 -1.2764
22922SOL     OW69898   0.961   4.748   6.249 -0.3761 -0.0523 -0.1639
22922SOL    HW169899   0.958   4.654   6.230  1.5110 -0.0148 -0.8560
22922SOL    HW269900   0.882   4.783   6.208 -1.3293 -1.3637  0.4465
22923SOL     OW69901   8.161   4.276   5.996  0.2702  0.0153  0.0172
22923SOL    HW169902   8.213   4.208   6.041  1.6535  0.5940 -0.6444
22923SOL    HW269903   8.125   4.329   6.067  1.4488  0.2081  0.4990
22924SOL     OW69904   4.740   4.392   5.218 -0.3652  0.3621  0.2496
22924SOL    HW169905   4.803   4.402   5.288 -1.2230  2.6755  0.7566
22924SOL    HW269906   4.792   4.392   5.138  0.5081 -1.1098  0.7761
22925SOL     OW69907   4.585   0.655   5.389 -0.7832 -0.3858  0.2562
22925SOL    HW169908   4.547   0.620   5.469 -0.5192  0.1769  0.6355
22925SOL    HW269909   4.671   0.687   5.415  0.0525 -1.8169 -0.6350
22926SOL     OW69910   8.190   0.913   3.605 -0.0000 -0.2017  0.1046
22926SOL    HW169911   8.242   0.894   3.527  0.3633 -0.7922  0.4820
22926SOL    HW269912   8.123   0.974   3.575 -1.1226 -1.9538 -1.1598
22927SOL     OW69913   2.626   4.807   6.676 -0.3788  0.3629  0.8740
22927SOL    HW169914   2.633   4.761   6.760  0.0999 -0.4412  0.4092
22927SOL    HW269915   2.538   4.786   6.645 -0.5771  0.7087  1.1994
22928SOL     OW69916   3.743   0.703   2.202  0.1791  0.1128  0.3884
22928SOL    HW169917   3.838   0.713   2.211  0.3698 -2.2678  1.8713
22928SOL    HW269918   3.712   0.792   2.185  2.5174  1.2270  1.3902
22929SOL     OW69919   2.445   3.530   4.269  0.4299  0.4315  0.1427
22929SOL    HW169920   2.383   3.462   4.299  0.9998  0.9051  2.6691
22929SOL    HW269921   2.390   3.595   4.226 -0.8137  0.5670  1.8231
22930SOL     OW69922   5.148   6.456   2.513  0.3353  0.2020  0.1324
22930SOL    HW169923   5.123   6.393   2.581  0.3887 -0.1681 -0.1893
22930SOL    HW269924   5.225   6.417   2.471  0.1653  0.3185 -0.2949
22931SOL     OW69925   4.754   5.155   4.866  0.4405  0.1361 -0.5345
22931SOL    HW169926   4.699   5.231   4.889  1.0750  0.6637 -0.7310
22931SOL    HW269927   4.693   5.082   4.862 -0.1640  0.6117 -0.1939
22932SOL     OW69928   1.194   5.360   6.894 -0.2951  0.2258 -0.1488
22932SOL    HW169929   1.201   5.332   6.803  1.9340  0.9962 -0.2875
22932SOL    HW269930   1.206   5.455   6.891 -2.7871  0.6625  0.7629
22933SOL     OW69931   8.141   4.829   7.231 -0.4013 -0.5458  0.6533
22933SOL    HW169932   8.059   4.780   7.234 -0.4191 -0.8522 -2.2830
22933SOL    HW269933   8.207   4.765   7.206  0.1800  0.2981 -0.0190
22934SOL     OW69934   7.733   7.584   0.591 -0.1057  0.5429  0.2940
22934SOL    HW169935   7.756   7.540   0.509 -0.2679  1.2770 -0.1514
22934SOL    HW269936   7.734   7.677   0.569  1.1738  0.8267  1.4676
22935SOL     OW69937   5.313   6.515   6.701  0.2391 -0.3793  0.0593
22935SOL    HW169938   5.379   6.546   6.764 -0.6935  0.1543  0.8143
22935SOL    HW269939   5.270   6.595   6.671 -0.9354 -0.7946  0.5824
22936SOL     OW69940   9.087   3.138   4.192 -0.4491  0.1525  0.1052
22936SOL    HW169941   9.045   3.213   4.233 -1.8013 -0.3706 -0.2765
22936SOL    HW269942   9.180   3.161   4.190 -0.5740  0.9421  1.8098
22937SOL     OW69943   5.929   9.114   5.932  0.1058 -0.4056 -0.2381
22937SOL    HW169944   5.950   9.078   6.018 -0.1398 -1.9771 -0.8055
22937SOL    HW269945   5.980   9.062   5.871 -1.0672 -0.4862 -1.1798
22938SOL     OW69946   6.070   1.290   6.097 -0.4928  0.0240  0.7096
22938SOL    HW169947   6.063   1.251   6.010  0.2932  0.6541  0.3537
22938SOL    HW269948   5.980   1.298   6.127 -0.7121 -1.8818  0.7183
22939SOL     OW69949   7.180   6.977   9.052 -0.2478  0.3444  0.1188
22939SOL    HW169950   7.114   6.934   9.106  0.6035 -0.9979  0.1109
22939SOL    HW269951   7.194   6.917   8.979  2.3257 -0.3231  1.0649
22940SOL     OW69952   1.741   3.283   7.038 -0.1304  0.1164  0.1895
22940SOL    HW169953   1.762   3.347   6.971 -0.8735  1.7080  1.4024
22940SOL    HW269954   1.726   3.201   6.990 -0.2982  1.1059 -1.5175
22941SOL     OW69955   0.739   6.253   4.403 -0.3338  0.1235 -0.3446
22941SOL    HW169956   0.806   6.259   4.335  0.0614 -0.3017 -0.0043
22941SOL    HW269957   0.742   6.338   4.447  1.3703 -0.5345  0.9298
22942SOL     OW69958   8.415   2.975   5.468  0.2056  0.0770 -0.3794
22942SOL    HW169959   8.478   2.917   5.423 -0.2259  0.1589 -1.1010
22942SOL    HW269960   8.451   2.985   5.556 -0.2086 -2.0915  0.0877
22943SOL     OW69961   1.575   5.073   1.847  0.0751 -0.2627  0.8235
22943SOL    HW169962   1.517   5.149   1.847  0.7291  0.3519  3.5674
22943SOL    HW269963   1.538   5.014   1.913  2.1741 -0.1071  2.2478
22944SOL     OW69964   6.213   6.066   0.629  0.1559  0.5321  0.0323
22944SOL    HW169965   6.237   6.158   0.628  0.8493  0.3639  0.1638
22944SOL    HW269966   6.137   6.060   0.686 -1.0703  1.2898 -1.4637
22945SOL     OW69967   8.565   3.336   2.721 -0.0712 -0.0544 -0.1378
22945SOL    HW169968   8.626   3.391   2.770 -0.2203  0.7278 -0.8071
22945SOL    HW269969   8.518   3.397   2.664 -0.5143 -0.8238 -0.6166
22946SOL     OW69970   0.900   8.706   2.846 -0.4042  0.5769  0.3395
22946SOL    HW169971   0.880   8.687   2.938 -2.1918  1.1427  0.1047
22946SOL    HW269972   0.869   8.795   2.833  3.7457  2.2350  0.2422
22947SOL     OW69973   3.765   5.227   6.647 -0.0371  0.1620  0.2285
22947SOL    HW169974   3.745   5.194   6.734  0.3366  0.1329  0.3044
22947SOL    HW269975   3.680   5.234   6.604 -0.5904  3.0095  1.5706
22948SOL     OW69976   4.686   2.144   8.725 -0.4567  0.4182 -0.0383
22948SOL    HW169977   4.743   2.128   8.800 -1.2009 -0.0821  0.4353
22948SOL    HW269978   4.680   2.059   8.681 -1.4356  0.2816  0.3477
22949SOL     OW69979   7.641   0.105   2.434  0.0651  0.1702  0.7997
22949SOL    HW169980   7.600   0.083   2.350  0.3395  2.1200  0.1139
22949SOL    HW269981   7.727   0.062   2.430 -0.5784 -1.1795  0.8478
22950SOL     OW69982   7.933   2.885   4.840  0.1744  0.0051  0.5969
22950SOL    HW169983   7.960   2.976   4.856  2.4908 -0.3854 -0.6438
22950SOL    HW269984   7.966   2.837   4.916  0.9794 -0.1183  0.1798
22951SOL     OW69985   7.210   4.150   4.739 -0.0495 -0.3696  0.0983
22951SOL    HW169986   7.271   4.133   4.811  2.1744 -0.0675 -1.6139
22951SOL    HW269987   7.266   4.168   4.663 -2.2891 -0.2299 -1.6332
22952SOL     OW69988   6.631   5.645   8.936  0.6755 -0.3034 -0.6014
22952SOL    HW169989   6.561   5.631   8.872  2.7774  1.3545 -3.5474
22952SOL    HW269990   6.676   5.561   8.942 -1.5052 -1.4331  1.4453
22953SOL     OW69991   6.313   2.568   2.877  0.1664 -0.6492  0.2233
22953SOL    HW169992   6.368   2.489   2.877 -0.3266 -0.9963  0.2947
22953SOL    HW269993   6.285   2.577   2.968  1.9556  0.8411  0.6889
22954SOL     OW69994   4.841   0.576   1.553  0.6179  0.0300 -0.1331
22954SOL    HW169995   4.915   0.515   1.549 -0.7302 -1.7124  0.2447
22954SOL    HW269996   4.786   0.542   1.624  0.7197  2.8181  1.4660
22955SOL     OW69997   3.354   7.983   0.608  0.2351  0.2425  0.6614
22955SOL    HW169998   3.328   7.901   0.568 -1.6947  1.0371  0.1791
22955SOL    HW269999   3.420   8.019   0.549 -0.5238  0.0586 -0.3255
22956SOL     OW70000   4.367   6.252   7.072 -0.8436  0.2890 -0.1783
22956SOL    HW170001   4.331   6.164   7.064  0.9264 -0.6493  1.5507
22956SOL    HW270002   4.461   6.241   7.065 -0.5725  2.0319  0.2882
22957SOL     OW70003   7.913   4.361   6.650  0.3701 -0.3503  0.1276
22957SOL    HW170004   7.908   4.456   6.640  1.0011 -0.1231  1.7571
22957SOL    HW270005   7.992   4.336   6.603 -1.7741 -0.6838 -3.7960
22958SOL     OW70006   0.910   1.258   5.614 -0.1537 -0.1848 -0.5588
22958SOL    HW170007   0.991   1.302   5.589  0.0606  0.1007  0.6030
22958SOL    HW270008   0.841   1.319   5.585  0.1329  0.7806  0.7065
22959SOL     OW70009   5.513   3.302   1.623  0.2886 -0.2138  0.1290
22959SOL    HW170010   5.566   3.368   1.579  0.7161 -1.4584 -1.3241
22959SOL    HW270011   5.428   3.304   1.577  0.2741 -0.5954  0.1320
22960SOL     OW70012   4.856   5.425   8.800 -0.3083 -0.3736  0.4134
22960SOL    HW170013   4.768   5.393   8.780 -0.2456 -0.1350 -0.2603
22960SOL    HW270014   4.912   5.380   8.737 -0.2947  1.5548 -1.0524
22961SOL     OW70015   3.790   2.560   1.306  1.0754 -0.3438 -0.2609
22961SOL    HW170016   3.778   2.490   1.241  0.6565 -0.5435  0.0297
22961SOL    HW270017   3.865   2.610   1.273 -0.7683  1.2408 -2.4199
22962SOL     OW70018   6.378   6.488   3.997 -0.3154 -0.3263  0.0471
22962SOL    HW170019   6.395   6.505   4.090 -0.9855  0.3664  0.0552
22962SOL    HW270020   6.294   6.441   3.996 -1.6198  1.8538 -0.3069
22963SOL     OW70021   3.732   6.478   5.516 -0.1171  0.2880  0.1007
22963SOL    HW170022   3.684   6.441   5.442  2.3441  0.0387 -1.4915
22963SOL    HW270023   3.690   6.562   5.532 -0.7544  0.3359 -1.5905
22964SOL     OW70024   8.893   6.635   8.989  0.1637 -0.0465 -0.1864
22964SOL    HW170025   8.824   6.579   8.955 -0.8021  2.1039 -2.0098
22964SOL    HW270026   8.941   6.665   8.911 -0.7801  3.3677  0.3502
22965SOL     OW70027   1.352   2.771   5.279  0.4291 -0.3125 -0.0358
22965SOL    HW170028   1.291   2.702   5.307  1.5611 -0.9933  0.8529
22965SOL    HW270029   1.416   2.776   5.349  1.2469  0.5808 -0.8187
22966SOL     OW70030   7.886   5.482   6.317 -0.2282 -0.4236  0.2839
22966SOL    HW170031   7.905   5.440   6.401 -0.6141 -0.7144  0.2263
22966SOL    HW270032   7.853   5.569   6.340  1.0759  0.0659  0.3913
22967SOL     OW70033   5.336   5.019   6.630  0.5594 -0.1990  0.1507
22967SOL    HW170034   5.290   4.945   6.590  0.4551 -0.3062  0.4647
22967SOL    HW270035   5.384   5.060   6.558  1.6157 -1.3110  0.2016
22968SOL     OW70036   3.504   8.299   6.590 -0.1916  0.1518 -0.4575
22968SOL    HW170037   3.479   8.343   6.671  0.0629  1.7783 -1.2142
22968SOL    HW270038   3.466   8.211   6.597 -0.2693  0.3059  1.3471
22969SOL     OW70039   4.356   9.065   8.659 -0.2268 -0.4868  0.0418
22969SOL    HW170040   4.429   9.123   8.638 -1.4988  1.1244 -0.0708
22969SOL    HW270041   4.320   9.040   8.574 -0.6601 -0.1485  0.1232
22970SOL     OW70042   6.053   1.131   9.087 -0.5922 -0.0582 -0.1008
22970SOL    HW170043   6.071   1.224   9.073  2.8701 -0.5825  0.0056
22970SOL    HW270044   6.114   1.104   9.155 -1.4289 -2.4581 -0.1900
22971SOL     OW70045   3.801   6.590   0.087 -0.0077  0.7407 -0.2556
22971SOL    HW170046   3.871   6.628   0.140  1.4055  1.0234 -2.2065
22971SOL    HW270047   3.729   6.576   0.149  2.6598 -2.3581  2.5376
22972SOL     OW70048   2.250   0.822   7.676 -0.2078  0.1997  0.3594
22972SOL    HW170049   2.190   0.877   7.626 -1.1123 -0.3341  0.8328
22972SOL    HW270050   2.194   0.759   7.721  0.4460  1.3548  2.9897
22973SOL     OW70051   3.753   2.805   8.257 -0.3519 -0.3024 -0.1007
22973SOL    HW170052   3.834   2.840   8.295 -0.5054  2.4116 -2.0175
22973SOL    HW270053   3.687   2.871   8.274 -2.3814 -2.6154  1.7119
22974SOL     OW70054   4.804   0.065   4.025  0.7058 -0.9719  0.3002
22974SOL    HW170055   4.855   0.103   3.954 -0.0217  2.8173  1.5591
22974SOL    HW270056   4.730   0.126   4.036 -0.3846 -2.6016  2.8705
22975SOL     OW70057   0.510   8.046   7.047 -1.1105  0.4788 -0.3786
22975SOL    HW170058   0.602   8.062   7.028 -0.6670 -1.4791 -0.1081
22975SOL    HW270059   0.472   8.022   6.962 -0.8639 -0.7771 -0.1546
22976SOL     OW70060   0.619   5.139   6.633 -0.4846 -0.2532  0.0513
22976SOL    HW170061   0.552   5.139   6.563 -0.9145  2.2128  0.3623
22976SOL    HW270062   0.686   5.078   6.602 -2.2495 -1.8226 -0.8914
22977SOL     OW70063   7.431   7.980   1.780 -0.0909  0.2633  0.0193
22977SOL    HW170064   7.360   7.970   1.716  0.5893  0.8373 -0.8575
22977SOL    HW270065   7.458   7.891   1.800  0.5191  0.0828 -1.4745
22978SOL     OW70066   1.427   2.468   8.504 -0.5698  0.0465 -0.4990
22978SOL    HW170067   1.365   2.443   8.573  0.8010  1.2555  1.2573
22978SOL    HW270068   1.456   2.385   8.466  0.3100 -0.8270  1.9232
22979SOL     OW70069   4.479   2.428   8.708 -0.0071 -0.4064 -0.1888
22979SOL    HW170070   4.569   2.400   8.691  0.0491 -0.3649  0.0274
22979SOL    HW270071   4.426   2.381   8.644 -0.1272 -2.4701  1.3428
22980SOL     OW70072   0.690   8.402   6.581  0.2813 -0.1914  0.3376
22980SOL    HW170073   0.713   8.406   6.674  3.2758  1.8291 -0.3524
22980SOL    HW270074   0.634   8.478   6.566 -2.3911 -1.9185  0.8659
22981SOL     OW70075   6.309   3.328   7.846  0.0243  0.1742 -0.1214
22981SOL    HW170076   6.250   3.334   7.771  1.2125 -2.4258 -1.4046
22981SOL    HW270077   6.383   3.384   7.824  0.5910 -0.9403 -1.2122
22982SOL     OW70078   4.911   3.253   5.417 -0.1746  0.1939 -0.4599
22982SOL    HW170079   4.941   3.263   5.327 -0.0152  0.1717 -0.4098
22982SOL    HW270080   4.896   3.343   5.447  0.3891  0.2356 -0.3012
22983SOL     OW70081   5.255   1.352   6.627 -0.2646 -0.2547  0.4240
22983SOL    HW170082   5.232   1.260   6.627 -0.1047 -0.3019  1.1402
22983SOL    HW270083   5.351   1.353   6.626 -0.2460 -0.1173  1.3563
22984SOL     OW70084   1.110   3.121   1.283  0.1003 -0.2155 -0.2510
22984SOL    HW170085   1.196   3.156   1.309 -0.5384  1.2592 -0.0572
22984SOL    HW270086   1.123   3.089   1.194  0.3829  1.8222 -0.9851
22985SOL     OW70087   7.743   7.544   1.762  0.0408 -0.3279 -0.0251
22985SOL    HW170088   7.811   7.554   1.695  2.2055  0.7679  2.1692
22985SOL    HW270089   7.790   7.517   1.841 -1.9291  1.3257  1.8474
22986SOL     OW70090   1.896   2.387   8.606 -0.3330  0.8833 -0.0928
22986SOL    HW170091   1.911   2.458   8.543  3.8291  0.4426  0.0888
22986SOL    HW270092   1.883   2.431   8.690  0.9298  1.4862 -0.1941
22987SOL     OW70093   8.101   0.858   6.157  0.1980 -0.5093  0.4691
22987SOL    HW170094   8.090   0.950   6.135 -0.0371 -0.1173  2.1345
22987SOL    HW270095   8.055   0.811   6.086 -0.1574  0.6495 -0.0916
22988SOL     OW70096   8.345   0.927   1.286 -0.3926  0.1289  0.6818
22988SOL    HW170097   8.341   0.871   1.208 -1.0867 -0.2452  0.9752
22988SOL    HW270098   8.416   0.989   1.268  0.3034 -0.7675  0.3013
22989SOL     OW70099   3.108   2.114   3.645 -0.2041 -0.0341 -0.0455
22989SOL    HW170100   3.102   2.204   3.613 -0.7967 -0.1907 -0.3977
22989SOL    HW270101   3.017   2.088   3.660 -0.0577 -0.6760 -0.2417
22990SOL     OW70102   6.648   8.176   2.168  0.0493 -0.2587  0.1665
22990SOL    HW170103   6.601   8.194   2.087 -0.3042  0.4550  0.5250
22990SOL    HW270104   6.726   8.127   2.140  1.2163  2.0751 -0.8813
22991SOL     OW70105   0.785   7.745   5.318  0.5957 -0.4328 -0.5878
22991SOL    HW170106   0.731   7.824   5.317 -0.1690 -0.9463 -1.1351
22991SOL    HW270107   0.722   7.674   5.323  1.3217 -0.9823  2.4702
22992SOL     OW70108   0.081   8.194   5.491 -0.7838  0.3765 -0.0998
22992SOL    HW170109   0.047   8.276   5.456 -0.9768  0.0208 -0.7809
22992SOL    HW270110   0.007   8.133   5.487 -0.2700 -0.2251 -0.9862
22993SOL     OW70111   5.228   0.061   3.408  0.1085 -0.8415 -0.4452
22993SOL    HW170112   5.232  -0.023   3.453  0.0974 -1.7457 -2.0811
22993SOL    HW270113   5.142   0.062   3.365 -0.7261  0.8706  1.1182
22994SOL     OW70114   4.290   7.127   6.602  0.0167  0.1014 -0.0047
22994SOL    HW170115   4.272   7.061   6.668  0.3155 -1.1845 -1.1504
22994SOL    HW270116   4.258   7.209   6.640 -0.1406 -0.6490  1.5542
22995SOL     OW70117   4.050   6.386   6.356 -0.5542 -0.0046 -0.2143
22995SOL    HW170118   3.980   6.416   6.298  0.3142  2.6091 -0.0693
22995SOL    HW270119   4.097   6.466   6.380  0.1630 -1.1633  2.7470
22996SOL     OW70120   8.524   6.196   7.617  0.3406 -0.1207 -0.0970
22996SOL    HW170121   8.545   6.273   7.564  0.7464 -0.8584 -1.0296
22996SOL    HW270122   8.447   6.159   7.575  1.8939 -1.9183 -1.5418
22997SOL     OW70123   4.222   5.800   6.595  0.3709  0.3678  0.0667
22997SOL    HW170124   4.221   5.712   6.559 -1.3466  0.6877 -0.8003
22997SOL    HW270125   4.193   5.789   6.686  2.0130 -0.1339  0.5632
22998SOL     OW70126   6.187   3.379   2.961  0.5103  0.1797  0.0317
22998SOL    HW170127   6.275   3.404   2.989  1.3599 -0.9652 -1.4908
22998SOL    HW270128   6.144   3.348   3.041  0.7760  2.5399  1.1891
22999SOL     OW70129   5.762   5.674   1.641 -0.0353  0.0625 -0.1813
22999SOL    HW170130   5.759   5.600   1.700  0.0503 -1.2898 -1.7861
22999SOL    HW270131   5.847   5.715   1.657 -0.3644  0.2530  1.1900
23000SOL     OW70132   5.822   8.826   0.651  0.2718 -0.2516 -0.3445
23000SOL    HW170133   5.871   8.751   0.685  1.2716  1.4008  2.1788
23000SOL    HW270134   5.772   8.858   0.726  0.7758  2.2588 -0.9906
23001SOL     OW70135   5.309   6.076   1.868 -0.5036 -0.0536  0.2811
23001SOL    HW170136   5.300   5.998   1.813  1.9004 -1.0749  1.1920
23001SOL    HW270137   5.223   6.086   1.910 -1.1114 -1.7426 -0.4760
23002SOL     OW70138   4.163   8.351   8.651  0.5288  0.4258 -0.0348
23002SOL    HW170139   4.245   8.361   8.603  0.9519  0.7379  0.7308
23002SOL    HW270140   4.095   8.359   8.585  1.0780  1.4697 -0.4985
23003SOL     OW70141   3.254   4.995   1.764 -0.0481 -0.1670  0.5666
23003SOL    HW170142   3.181   4.932   1.771  0.4684 -1.2382 -2.2290
23003SOL    HW270143   3.213   5.080   1.776 -1.8142 -0.7459 -0.8111
23004SOL     OW70144   0.568   2.443   1.741  0.0054 -0.2767  0.0151
23004SOL    HW170145   0.545   2.533   1.765  0.0645  0.2026 -1.5722
23004SOL    HW270146   0.579   2.446   1.646  0.4600 -1.8748 -0.0145
23005SOL     OW70147   4.406   1.858   3.249  0.9048 -0.3077  0.4819
23005SOL    HW170148   4.312   1.857   3.263  0.8095 -0.7710 -0.1353
23005SOL    HW270149   4.429   1.766   3.234  1.1406 -0.0002 -1.2777
23006SOL     OW70150   0.612   6.370   2.983 -0.4755  0.5190 -0.0505
23006SOL    HW170151   0.572   6.340   3.065 -1.2506  1.7950  0.0702
23006SOL    HW270152   0.546   6.352   2.916  0.4227 -1.1537 -0.5484
23007SOL     OW70153   1.014   4.416   4.604  0.0036  0.0592  0.0582
23007SOL    HW170154   1.019   4.325   4.577  2.1602  0.1796 -0.1668
23007SOL    HW270155   1.063   4.464   4.538 -1.5566  1.4988 -0.1315
23008SOL     OW70156   1.243   5.264   6.619 -0.1131  0.2498 -0.1301
23008SOL    HW170157   1.331   5.301   6.617 -0.4861  1.1513 -2.0223
23008SOL    HW270158   1.253   5.179   6.662  1.4173  0.9295  0.9327
23009SOL     OW70159   8.920   0.842   1.626 -0.3335 -0.6359  0.2823
23009SOL    HW170160   8.861   0.778   1.666 -0.0950 -0.2622  1.2578
23009SOL    HW270161   8.863   0.912   1.595 -0.5556 -1.1085 -0.4216
23010SOL     OW70162   0.554   7.571   6.417  0.3884 -0.0247  0.3646
23010SOL    HW170163   0.485   7.558   6.482  1.0377 -1.0190  0.8742
23010SOL    HW270164   0.632   7.592   6.469  1.0388 -1.3724 -0.0441
23011SOL     OW70165   5.226   4.443   5.710 -0.1905 -0.1600  0.4687
23011SOL    HW170166   5.259   4.498   5.781  0.7273 -0.6922  0.4780
23011SOL    HW270167   5.159   4.388   5.751  0.6237 -0.7512  1.0306
23012SOL     OW70168   3.690   5.874   3.653  0.1750 -0.3312  0.4160
23012SOL    HW170169   3.657   5.897   3.739 -1.3001  1.6263 -0.5908
23012SOL    HW270170   3.649   5.790   3.632 -0.9125  0.0819  0.8651
23013SOL     OW70171   0.611   3.949   5.323  0.4520 -1.1622 -0.2141
23013SOL    HW170172   0.544   4.015   5.337  0.0270 -1.6849  0.2771
23013SOL    HW270173   0.663   3.982   5.251  0.4780 -0.1123  0.2750
23014SOL     OW70174   8.646   4.764   5.988  0.4510  0.1500 -0.5682
23014SOL    HW170175   8.641   4.745   6.082  0.4224  0.7378 -0.4484
23014SOL    HW270176   8.611   4.685   5.946  0.3603 -0.0731 -0.0822
23015SOL     OW70177   8.752   3.487   6.257  0.1223  0.6419  0.2077
23015SOL    HW170178   8.797   3.441   6.328 -0.4499 -1.8511 -0.9333
23015SOL    HW270179   8.815   3.490   6.186 -0.4599 -0.0175 -0.3405
23016SOL     OW70180   2.295   7.061   0.592 -0.2069 -0.3836  0.2607
23016SOL    HW170181   2.207   7.053   0.630 -0.5110  2.0113  0.2396
23016SOL    HW270182   2.354   7.043   0.666 -0.7315 -0.7151  0.6083
23017SOL     OW70183   0.749   5.842   7.183 -0.2215  0.3400 -0.5692
23017SOL    HW170184   0.689   5.768   7.191 -0.0224  0.0658 -1.4903
23017SOL    HW270185   0.797   5.825   7.102  0.5076  0.9870 -0.2870
23018SOL     OW70186   7.103   6.970   6.459  0.2125  0.9837  0.2303
23018SOL    HW170187   7.101   6.940   6.368  0.4161 -0.6497  0.7330
23018SOL    HW270188   7.013   6.997   6.477  0.4000  2.4252 -0.7671
23019SOL     OW70189   3.222   0.573   8.044 -0.4903  0.0053  0.0495
23019SOL    HW170190   3.138   0.528   8.053 -0.2980 -0.4077 -0.2033
23019SOL    HW270191   3.287   0.503   8.048 -0.0934  0.4150  1.2760
23020SOL     OW70192   5.326   2.169   4.355 -0.5497 -0.2444  0.0537
23020SOL    HW170193   5.365   2.082   4.345 -1.5297 -0.5760 -1.0478
23020SOL    HW270194   5.327   2.206   4.266  0.2890  1.0776  0.5752
23021SOL     OW70195   1.523   8.962   8.308 -0.2967 -0.3570 -0.5503
23021SOL    HW170196   1.442   9.012   8.322  0.4927  0.3767  1.8418
23021SOL    HW270197   1.513   8.925   8.220 -3.2276 -0.3207 -0.3349
23022SOL     OW70198   3.123   5.594   7.443  0.2650  0.1418  0.2868
23022SOL    HW170199   3.202   5.541   7.452 -0.1347 -0.6836 -0.7344
23022SOL    HW270200   3.096   5.613   7.532  1.3823  0.0856  0.6536
23023SOL     OW70201   6.963   5.936   9.107 -0.6904  0.8766 -0.1064
23023SOL    HW170202   6.944   5.951   9.014 -0.9901 -0.9534 -0.3768
23023SOL    HW270203   7.041   5.989   9.123 -0.8076  1.4697 -1.3180
23024SOL     OW70204   1.993   4.822   0.637 -0.0448 -0.3311  0.3893
23024SOL    HW170205   1.921   4.885   0.634  1.0938  1.0762  1.0237
23024SOL    HW270206   2.072   4.876   0.627  0.9153 -1.8946 -1.0938
23025SOL     OW70207   5.528   5.492   5.721  0.3151 -0.7488 -0.0951
23025SOL    HW170208   5.465   5.518   5.788  0.9491 -1.7323  0.9294
23025SOL    HW270209   5.613   5.520   5.756  0.4352  1.1913 -1.7672
23026SOL     OW70210   4.982   0.379   8.374  0.2597  0.1628  0.3784
23026SOL    HW170211   4.994   0.455   8.430 -1.9900 -0.0566  1.2529
23026SOL    HW270212   4.891   0.386   8.343 -0.2449 -2.4887  1.0247
23027SOL     OW70213   1.255   4.384   8.240  0.1193 -0.1863  0.6990
23027SOL    HW170214   1.222   4.391   8.150 -0.1873  1.0153  0.8954
23027SOL    HW270215   1.258   4.290   8.256 -2.1046 -0.3941  0.2505
23028SOL     OW70216   8.817   5.545   4.203 -0.3076  0.2785  0.5070
23028SOL    HW170217   8.870   5.506   4.272 -1.6366 -0.1883  1.3179
23028SOL    HW270218   8.742   5.583   4.250 -0.5743  1.1172 -0.5603
23029SOL     OW70219   4.215   8.024   4.408 -0.3159  0.0467 -0.1074
23029SOL    HW170220   4.243   8.021   4.499  2.5557 -1.9213 -0.9115
23029SOL    HW270221   4.161   7.946   4.396  1.4130 -1.1255 -0.6062
23030SOL     OW70222   3.182   2.340   8.053  0.3078 -0.0305  0.6312
23030SOL    HW170223   3.161   2.253   8.018 -1.5001  1.1974 -1.6014
23030SOL    HW270224   3.134   2.345   8.135 -2.4608  0.0034 -0.8598
23031SOL     OW70225   6.086   3.221   0.157  0.2063 -0.1659  0.1101
23031SOL    HW170226   6.028   3.288   0.121  0.9636 -0.0279 -0.8993
23031SOL    HW270227   6.046   3.138   0.131 -0.4692 -0.1182  0.9425
23032SOL     OW70228   1.976   5.359   1.699  0.6118 -0.6242 -0.1382
23032SOL    HW170229   1.993   5.447   1.731 -5.0793  0.0698  2.1826
23032SOL    HW270230   1.942   5.373   1.610 -0.2255 -0.3852  0.2037
23033SOL     OW70231   8.991   4.108   4.766 -0.5806  0.4283  0.4515
23033SOL    HW170232   9.062   4.086   4.706 -1.8730 -0.0400 -0.9724
23033SOL    HW270233   8.916   4.059   4.734 -2.0482  2.3416  0.7506
23034SOL     OW70234   8.368   6.966   5.710 -0.1706  0.0105 -0.2555
23034SOL    HW170235   8.314   7.042   5.685 -1.7774 -1.2578 -0.8016
23034SOL    HW270236   8.348   6.899   5.645  0.3775 -1.2599  0.8353
23035SOL     OW70237   4.749   8.992   6.804 -0.3112  0.2654  0.1332
23035SOL    HW170238   4.789   8.961   6.885  0.4569  1.0889  0.0918
23035SOL    HW270239   4.763   9.087   6.805 -1.2315  0.4194 -0.4607
23036SOL     OW70240   1.239   3.565   5.583 -0.5767 -0.9508 -0.0531
23036SOL    HW170241   1.205   3.519   5.660 -0.0914  0.4064  1.0143
23036SOL    HW270242   1.202   3.653   5.590  3.1999  0.7029  1.3084
23037SOL     OW70243   2.739   1.900   5.051 -0.1114 -0.0456 -0.1132
23037SOL    HW170244   2.671   1.966   5.064 -1.0477 -1.2389  1.3728
23037SOL    HW270245   2.819   1.941   5.084 -0.6261  0.4659  0.5307
23038SOL     OW70246   8.007   2.550   4.604  0.2721  0.0074 -0.4604
23038SOL    HW170247   7.914   2.553   4.583  0.8315 -0.4098 -3.4604
23038SOL    HW270248   8.010   2.552   4.700 -2.7898 -0.1361 -0.2569
23039SOL     OW70249   2.195   5.989   8.886 -0.2079 -0.3353  0.5084
23039SOL    HW170250   2.120   6.037   8.850  0.2681 -0.2195 -0.3496
23039SOL    HW270251   2.156   5.912   8.927 -0.7844 -0.3707 -0.0900
23040SOL     OW70252   3.151   4.189   7.522  0.6215  0.1981 -0.8718
23040SOL    HW170253   3.126   4.240   7.598  1.1461  1.6724 -1.6550
23040SOL    HW270254   3.109   4.104   7.535 -0.3126  0.8333  0.4269
23041SOL     OW70255   0.108   3.839   3.910  0.0604 -0.4744 -0.0521
23041SOL    HW170256   0.022   3.808   3.939  0.5785 -1.3953  0.5717
23041SOL    HW270257   0.094   3.929   3.881 -1.2842 -0.9079 -0.8097
23042SOL     OW70258   1.742   2.983   7.634  0.1246 -0.0096  0.0153
23042SOL    HW170259   1.754   3.020   7.721  2.3093 -0.0771 -0.2118
23042SOL    HW270260   1.696   2.900   7.650  0.2421  0.1116  1.0761
23043SOL     OW70261   1.365   8.734   0.762 -0.1323  0.0572 -0.3990
23043SOL    HW170262   1.415   8.816   0.766  3.9015 -2.1004 -1.3993
23043SOL    HW270263   1.328   8.733   0.674 -0.0280  0.7199 -0.4580
23044SOL     OW70264   8.899   7.398   1.295 -0.7435  0.0241 -0.5114
23044SOL    HW170265   8.911   7.303   1.299  0.0675  0.1548  0.5830
23044SOL    HW270266   8.932   7.430   1.379 -0.8979  1.2869 -0.9138
23045SOL     OW70267   2.223   3.217   7.156 -0.0023  0.3085  0.2643
23045SOL    HW170268   2.152   3.168   7.114  0.3510 -0.3838  0.4517
23045SOL    HW270269   2.193   3.307   7.157  0.3808  0.5267 -2.3488
23046SOL     OW70270   0.177   1.130   4.423 -0.2231  0.7208  0.3802
23046SOL    HW170271   0.154   1.207   4.475 -0.8205 -1.3435  3.4484
23046SOL    HW270272   0.094   1.084   4.411  0.0237  0.7778 -1.9458
23047SOL     OW70273   1.833   2.995   4.069 -0.0847 -0.0400  0.4827
23047SOL    HW170274   1.746   2.975   4.104 -0.9782  0.4930 -1.3095
23047SOL    HW270275   1.822   3.079   4.025  1.0527 -0.5054 -0.7377
23048SOL     OW70276   2.629   6.927   5.074  0.1017  0.7205  0.2085
23048SOL    HW170277   2.654   6.952   5.163  0.3316  1.5171 -0.0699
23048SOL    HW270278   2.650   7.004   5.021 -1.6168  0.9079 -0.2719
23049SOL     OW70279   3.344   3.771   8.697  0.3982 -0.3222 -0.4689
23049SOL    HW170280   3.403   3.827   8.747 -1.2079  0.8488  0.1880
23049SOL    HW270281   3.342   3.809   8.609  1.6713 -1.2137 -0.9253
23050SOL     OW70282   3.535   1.677   8.557  0.2555  0.3471 -0.1305
23050SOL    HW170283   3.465   1.619   8.588  1.0068 -0.7446 -0.3874
23050SOL    HW270284   3.549   1.739   8.628 -0.0379 -0.2807  0.4850
23051SOL     OW70285   2.796   3.842   6.583 -0.1904  0.0836  0.4389
23051SOL    HW170286   2.815   3.894   6.506  1.1790 -0.0987  0.6352
23051SOL    HW270287   2.881   3.809   6.612 -0.9431 -1.7611  0.6810
23052SOL     OW70288   1.395   1.243   0.488  1.2366  0.7101 -0.0533
23052SOL    HW170289   1.336   1.309   0.522 -0.4488 -0.5857 -0.3351
23052SOL    HW270290   1.384   1.168   0.546 -0.3467 -0.9151 -2.2654
23053SOL     OW70291   5.664   0.589   0.711  0.0127 -0.0998  0.4032
23053SOL    HW170292   5.643   0.578   0.804 -0.3269  0.0279  0.3443
23053SOL    HW270293   5.755   0.563   0.704  0.7456  2.0330  1.1752
23054SOL     OW70294   6.018   3.089   7.641 -0.0306 -0.3980  0.5977
23054SOL    HW170295   5.936   3.045   7.617 -0.8237  0.6524  1.2661
23054SOL    HW270296   6.048   3.130   7.560  1.0718 -2.6133 -0.2045
23055SOL     OW70297   8.166   1.424   0.606  0.5060  0.4022 -0.4363
23055SOL    HW170298   8.108   1.356   0.571  1.0269 -1.2810  1.7225
23055SOL    HW270299   8.246   1.416   0.555  0.5599 -0.6582 -0.2160
23056SOL     OW70300   1.056   8.229   0.367  0.5495  0.0544 -0.0255
23056SOL    HW170301   1.099   8.308   0.335  3.5610 -1.4214  0.1133
23056SOL    HW270302   0.963   8.252   0.369  1.0625  2.7827 -2.2101
23057SOL     OW70303   3.657   1.800   9.041 -0.0570  0.1189  1.0141
23057SOL    HW170304   3.717   1.840   9.103 -1.9737 -0.0233  3.0970
23057SOL    HW270305   3.571   1.832   9.068 -1.0047 -0.0818 -1.5224
23058SOL     OW70306   6.110   8.307   2.571 -0.2515  0.2201 -0.5377
23058SOL    HW170307   6.114   8.383   2.513 -0.8036 -1.0585 -2.3463
23058SOL    HW270308   6.033   8.258   2.540 -0.0846 -0.9298  0.7740
23059SOL     OW70309   6.745   3.378   1.288 -0.1520 -0.0582  0.1265
23059SOL    HW170310   6.688   3.393   1.212  0.8804 -2.1480 -1.1505
23059SOL    HW270311   6.828   3.418   1.264 -0.0260 -0.1279  0.4489
23060SOL     OW70312   4.548   8.757   8.611  0.3909  0.2101  0.1907
23060SOL    HW170313   4.605   8.826   8.644 -1.7585  1.3784  1.7203
23060SOL    HW270314   4.466   8.769   8.658 -1.0851 -1.5096 -1.7409
23061SOL     OW70315   1.560   2.973   0.540  0.5611  0.1149  0.4848
23061SOL    HW170316   1.628   2.906   0.538  2.0815  1.5599  1.2283
23061SOL    HW270317   1.548   2.992   0.633 -1.2164 -0.4208  0.3957
23062SOL     OW70318   8.929   5.131   7.154  0.1946 -0.4224 -0.3619
23062SOL    HW170319   8.897   5.197   7.216  4.9002  0.0859  2.0365
23062SOL    HW270320   8.900   5.161   7.068 -2.1411  1.8541  1.0949
23063SOL     OW70321   0.443   1.513   1.367 -0.2706 -0.1307  0.3371
23063SOL    HW170322   0.481   1.578   1.308 -0.0012 -1.3417 -0.8769
23063SOL    HW270323   0.438   1.433   1.314 -0.9823 -0.9904  1.6541
23064SOL     OW70324   4.774   2.358   3.198  0.1281  0.0340  0.5706
23064SOL    HW170325   4.718   2.376   3.274 -1.0647  1.6895 -0.6422
23064SOL    HW270326   4.833   2.433   3.194  0.4351 -0.2305  0.0687
23065SOL     OW70327   2.567   8.079   4.987 -0.0255  0.5499  0.3587
23065SOL    HW170328   2.658   8.106   4.998 -0.7691  3.3779  0.4395
23065SOL    HW270329   2.559   7.999   5.039  2.8132 -0.9044 -1.1799
23066SOL     OW70330   5.860   8.654   6.687 -0.0386  0.6611 -0.0190
23066SOL    HW170331   5.845   8.593   6.760  0.1279 -1.0534 -1.3539
23066SOL    HW270332   5.913   8.605   6.625  1.7185  2.8255 -0.3609
23067SOL     OW70333   4.324   6.653   8.115 -0.0956 -0.0770  0.6200
23067SOL    HW170334   4.269   6.729   8.135 -0.4997  0.0580 -0.8805
23067SOL    HW270335   4.361   6.672   8.028  1.0213 -0.9162  0.8784
23068SOL     OW70336   8.367   5.913   3.048  0.2516  0.2465  0.0052
23068SOL    HW170337   8.452   5.895   3.087  1.0767  0.2654 -1.7223
23068SOL    HW270338   8.325   5.827   3.042 -0.7065  0.4261  2.5818
23069SOL     OW70339   4.885   4.409   5.445  0.1651 -0.2776 -0.0170
23069SOL    HW170340   4.914   4.478   5.505 -0.6079 -0.9968  1.2330
23069SOL    HW270341   4.924   4.329   5.480 -2.3552 -1.1221  1.1400
23070SOL     OW70342   3.272   4.478   7.124  0.3571 -0.4367  0.2094
23070SOL    HW170343   3.330   4.479   7.200  0.7217 -1.1503 -0.0494
23070SOL    HW270344   3.205   4.413   7.147 -0.4414  0.4861  0.5690
23071SOL     OW70345   2.758   2.521   0.500  0.2230  0.7820  0.0108
23071SOL    HW170346   2.750   2.516   0.404 -0.1097 -0.3782  0.0862
23071SOL    HW270347   2.851   2.503   0.516  0.4283  1.6788 -0.1259
23072SOL     OW70348   7.580   7.660   5.163  0.0465  0.6780  0.3438
23072SOL    HW170349   7.598   7.753   5.175 -1.9720  1.3560 -1.1986
23072SOL    HW270350   7.532   7.634   5.242  2.1808  0.4157  1.6207
23073SOL     OW70351   6.797   7.290   5.017  0.2789  0.0702 -0.0350
23073SOL    HW170352   6.830   7.264   4.931 -0.7477  1.7474 -0.9817
23073SOL    HW270353   6.703   7.303   5.004 -0.2574 -1.4642  1.8246
23074SOL     OW70354   0.231   8.555   1.636 -0.2339 -0.6443 -0.0953
23074SOL    HW170355   0.177   8.622   1.593  1.0155  0.4034 -0.0854
23074SOL    HW270356   0.190   8.542   1.722 -3.0969 -3.1670 -1.6391
23075SOL     OW70357   1.698   2.355   2.645  0.0055 -0.1605  0.1810
23075SOL    HW170358   1.649   2.273   2.652 -1.1945  0.3715 -1.5685
23075SOL    HW270359   1.694   2.392   2.734 -0.0914 -1.6006  0.8102
23076SOL     OW70360   1.006   1.722   8.866 -0.2076  0.1644  0.1350
23076SOL    HW170361   1.026   1.631   8.846  1.2312  0.5912 -0.5417
23076SOL    HW270362   1.037   1.734   8.956  1.2684  0.4199 -0.3842
23077SOL     OW70363   4.764   1.948   7.187  0.5328 -0.1986  0.0371
23077SOL    HW170364   4.757   1.993   7.103 -3.3667  0.7467  0.7026
23077SOL    HW270365   4.852   1.970   7.218  1.4643  0.8443 -2.9501
23078SOL     OW70366   7.205   1.915   5.514 -0.0999  0.0563  0.0177
23078SOL    HW170367   7.132   1.856   5.534  0.1865  0.2103  1.6680
23078SOL    HW270368   7.283   1.860   5.524  0.0594 -0.1574 -1.9121
23079SOL     OW70369   1.824   1.760   0.135  0.0992 -0.6263  0.7353
23079SOL    HW170370   1.920   1.767   0.142  0.1874 -1.2717  0.3259
23079SOL    HW270371   1.801   1.690   0.196  0.2455 -2.4577 -1.1667
23080SOL     OW70372   4.796   6.570   8.049 -0.7679 -0.2112 -0.0378
23080SOL    HW170373   4.709   6.582   8.086 -0.1907  1.9059  0.7367
23080SOL    HW270374   4.853   6.559   8.125 -0.1358  0.0016 -0.4753
23081SOL     OW70375   4.079   7.850   0.192 -0.1151  0.3940  0.7520
23081SOL    HW170376   4.110   7.776   0.244 -1.6974 -0.4620  0.5409
23081SOL    HW270377   4.134   7.923   0.219  1.7160 -0.8999  0.7421
23082SOL     OW70378   3.013   6.173   2.138  0.1860  0.1504 -0.2158
23082SOL    HW170379   3.069   6.101   2.165 -0.7646  0.0377  1.5943
23082SOL    HW270380   2.964   6.139   2.063  1.7761 -0.0686 -1.2005
23083SOL     OW70381   6.552   2.634   2.025 -0.1440 -0.2803  0.1936
23083SOL    HW170382   6.505   2.704   1.981  0.3833 -1.1998 -1.9248
23083SOL    HW270383   6.624   2.612   1.966 -0.5904 -2.9570  0.5166
23084SOL     OW70384   6.002   1.203   0.915  0.2471 -0.3342  0.0451
23084SOL    HW170385   5.984   1.245   1.000  2.5780 -1.0096  0.9520
23084SOL    HW270386   6.077   1.250   0.881 -0.4591 -0.2945 -1.5444
23085SOL     OW70387   5.926   7.304   2.828 -0.2373 -0.1127  0.0341
23085SOL    HW170388   5.905   7.329   2.738 -1.7181 -2.5054 -0.3677
23085SOL    HW270389   5.873   7.227   2.845  0.1246  0.1614  2.9471
23086SOL     OW70390   8.431   7.172   3.411 -0.4017 -0.5415 -0.1691
23086SOL    HW170391   8.395   7.240   3.467  1.6944  0.2511  0.2932
23086SOL    HW270392   8.441   7.096   3.468 -1.8878 -0.9964 -0.4673
23087SOL     OW70393   0.574   4.009   4.551 -0.0595  0.1670 -0.2398
23087SOL    HW170394   0.501   4.026   4.490  0.1686 -0.5653 -0.7358
23087SOL    HW270395   0.551   3.926   4.592  0.1852  0.2622  0.0922
23088SOL     OW70396   6.633   2.396   2.637  0.0223 -0.1975  0.7808
23088SOL    HW170397   6.590   2.330   2.582 -0.4610  0.5059  0.2952
23088SOL    HW270398   6.604   2.479   2.601 -0.8880  0.3105  2.5472
23089SOL     OW70399   3.113   0.802   5.579 -0.5279 -0.4058 -0.5877
23089SOL    HW170400   3.100   0.771   5.489 -1.9907 -1.7071  0.0216
23089SOL    HW270401   3.043   0.867   5.591  0.9045  1.2901 -0.9988
23090SOL     OW70402   3.179   7.068   6.475 -0.2464 -0.1874 -0.0520
23090SOL    HW170403   3.102   7.062   6.419 -1.2149 -0.0962  1.2339
23090SOL    HW270404   3.144   7.069   6.564  0.9931  3.0895  0.5279
23091SOL     OW70405   5.883   3.974   2.581  0.2411 -0.2268 -0.0230
23091SOL    HW170406   5.816   3.918   2.619  1.8140 -1.0959  1.6710
23091SOL    HW270407   5.900   3.937   2.495 -1.6344  0.2127 -0.6192
23092SOL     OW70408   8.919   8.681   5.247  0.2427  0.6413 -0.2032
23092SOL    HW170409   8.842   8.703   5.194 -0.5125 -0.1467  0.5339
23092SOL    HW270410   8.901   8.593   5.280  0.5270  1.2137  1.6234
23093SOL     OW70411   6.261   6.224   4.312 -0.0080 -0.0485  0.4955
23093SOL    HW170412   6.319   6.198   4.384 -0.2613 -0.1997  0.6484
23093SOL    HW270413   6.218   6.142   4.286 -1.0940  0.2798  1.2295
23094SOL     OW70414   0.947   4.206   2.459  0.1005 -0.0587  0.5442
23094SOL    HW170415   0.952   4.142   2.529 -2.4064 -2.1028 -0.9599
23094SOL    HW270416   0.859   4.243   2.466  0.3612  0.8743 -0.5712
23095SOL     OW70417   3.200   2.226   4.805  0.5112  0.2411  0.2529
23095SOL    HW170418   3.196   2.130   4.798 -1.6729  0.3152 -0.0555
23095SOL    HW270419   3.110   2.254   4.797  1.1665  2.3861 -0.0825
23096SOL     OW70420   2.566   5.587   1.933 -0.0127  0.6602 -0.2588
23096SOL    HW170421   2.547   5.672   1.892 -1.5840  1.0207  1.1505
23096SOL    HW270422   2.531   5.523   1.872 -0.0846  1.0699 -0.6595
23097SOL     OW70423   6.568   1.978   1.781  0.2071 -0.0380 -0.1895
23097SOL    HW170424   6.631   1.907   1.792  0.2232  0.0799  0.5282
23097SOL    HW270425   6.563   2.019   1.867 -0.6502  0.1278 -0.3094
23098SOL     OW70426   7.487   6.973   4.618 -0.1993 -0.2623 -0.3736
23098SOL    HW170427   7.434   7.049   4.641 -1.6434 -1.5428  0.7586
23098SOL    HW270428   7.549   7.006   4.553 -1.6367  1.5724 -0.9131
23099SOL     OW70429   0.216   3.674   4.851  0.3367 -0.3272  0.2402
23099SOL    HW170430   0.277   3.652   4.921 -1.3746 -1.8572  1.3146
23099SOL    HW270431   0.164   3.595   4.838 -0.9298  0.6831 -1.1756
23100SOL     OW70432   5.397   5.008   2.002 -0.0672  0.0802  0.0508
23100SOL    HW170433   5.345   5.087   2.019 -0.1575 -0.0134  0.2178
23100SOL    HW270434   5.415   5.011   1.909 -0.3367  0.1390 -0.0010
23101SOL     OW70435   1.030   6.009   5.871  0.3434  0.4184  0.1249
23101SOL    HW170436   1.070   6.090   5.902 -0.2726  0.0746  1.9672
23101SOL    HW270437   1.091   5.974   5.807  0.8040  2.1309 -0.4211
23102SOL     OW70438   6.378   8.968   1.711  0.1416 -0.1787 -0.1880
23102SOL    HW170439   6.368   8.881   1.673  0.6465 -0.2041 -0.2703
23102SOL    HW270440   6.289   8.996   1.731 -0.0261 -0.7027 -0.1843
23103SOL     OW70441   0.197   6.423   1.713 -0.3962 -0.3535 -0.2504
23103SOL    HW170442   0.214   6.332   1.690  1.3334 -0.7846  2.3078
23103SOL    HW270443   0.269   6.472   1.673  0.2350 -0.5325  0.6277
23104SOL     OW70444   0.751   3.710   0.087 -0.1564 -0.1198  0.2309
23104SOL    HW170445   0.668   3.744   0.053 -0.7390 -1.0018  0.7518
23104SOL    HW270446   0.732   3.620   0.112  0.3840  0.3002  2.3543
23105SOL     OW70447   1.710   6.599   5.018  0.5555  0.2115  0.2776
23105SOL    HW170448   1.722   6.506   5.040  1.4626  0.4095  0.6638
23105SOL    HW270449   1.769   6.614   4.944 -0.2919  0.2624 -0.4019
23106SOL     OW70450   1.632   0.342   7.440 -0.1629 -0.6000 -0.1888
23106SOL    HW170451   1.545   0.328   7.477  0.9503 -0.8407  2.6137
23106SOL    HW270452   1.679   0.391   7.508  1.8551 -0.3498 -1.6726
23107SOL     OW70453   0.772   7.012   8.767 -0.4282 -0.0255  0.3319
23107SOL    HW170454   0.766   7.090   8.822 -2.0830 -0.0573  0.2556
23107SOL    HW270455   0.687   7.007   8.722  0.6084 -0.3905 -1.7235
23108SOL     OW70456   4.007   8.073   8.559  0.6610 -0.2738  0.6423
23108SOL    HW170457   4.055   7.990   8.560 -0.2421 -0.8422 -0.3831
23108SOL    HW270458   3.921   8.052   8.593  0.0806 -0.0077 -0.6002
23109SOL     OW70459   6.987   2.922   0.757  0.6317 -0.3347  0.1022
23109SOL    HW170460   6.977   2.837   0.713 -0.4861  0.7191 -1.7946
23109SOL    HW270461   6.898   2.951   0.775  0.9682  0.8157 -0.0195
23110SOL     OW70462   8.915   2.127   3.147 -0.2799  0.4312 -0.3500
23110SOL    HW170463   8.884   2.216   3.166  0.3270  0.5563  0.0634
23110SOL    HW270464   8.898   2.078   3.227  1.1077  0.6446  0.0959
23111SOL     OW70465   2.401   7.617   4.250  0.8266  0.2748 -0.3565
23111SOL    HW170466   2.373   7.534   4.210  0.1881  0.3857 -0.1403
23111SOL    HW270467   2.463   7.591   4.318  1.2877  0.0326 -0.8558
23112SOL     OW70468   4.729   1.453   9.000 -0.0290 -0.0861 -0.3499
23112SOL    HW170469   4.661   1.445   9.066 -0.8911 -1.3000 -1.3333
23112SOL    HW270470   4.720   1.542   8.966 -1.7157 -0.5089 -1.0721
23113SOL     OW70471   7.559   2.650   7.129  0.2028  0.0284 -0.1475
23113SOL    HW170472   7.584   2.621   7.217  0.9148  0.0658 -0.3306
23113SOL    HW270473   7.467   2.674   7.137 -1.2789 -4.5545 -0.4711
23114SOL     OW70474   7.773   3.700   3.920 -0.2144 -0.3146  0.0464
23114SOL    HW170475   7.702   3.764   3.918  0.1737  0.1010 -0.7343
23114SOL    HW270476   7.729   3.616   3.938 -0.7547  0.1136  0.7954
23115SOL     OW70477   2.172   6.219   2.031  0.0321  0.5220 -0.3020
23115SOL    HW170478   2.112   6.179   1.969  0.5202  0.2584 -0.6172
23115SOL    HW270479   2.242   6.256   1.976  2.0935 -2.3613  0.1447
23116SOL     OW70480   3.430   5.553   8.006 -0.0741  0.5585 -0.2279
23116SOL    HW170481   3.512   5.595   8.028 -0.1076  0.9267 -0.8017
23116SOL    HW270482   3.426   5.476   8.064  0.5516  0.6690 -0.0363
23117SOL     OW70483   2.036   5.680   1.141 -0.2611  0.0244  0.0112
23117SOL    HW170484   2.040   5.602   1.086 -0.2315  0.1505 -0.1649
23117SOL    HW270485   2.092   5.744   1.096  1.6581 -0.6089  1.3568
23118SOL     OW70486   6.123   5.804   0.919  0.0259  0.6389  0.1419
23118SOL    HW170487   6.065   5.879   0.902 -0.4678  0.3642  0.5761
23118SOL    HW270488   6.206   5.829   0.880 -0.1550  1.3897  0.2134
23119SOL     OW70489   5.349   4.212   4.655  0.0510  0.2050  0.3967
23119SOL    HW170490   5.405   4.269   4.602  0.1788  0.4463  0.7864
23119SOL    HW270491   5.364   4.124   4.620  1.4827  0.1049  1.1586
23120SOL     OW70492   3.668   2.904   7.993  0.3365  0.3722  0.1440
23120SOL    HW170493   3.697   2.960   7.921 -0.7668 -0.4228 -0.9675
23120SOL    HW270494   3.640   2.966   8.061 -0.9908  1.2375 -1.1129
23121SOL     OW70495   0.412   6.169   8.938 -0.1001 -0.4172  0.1848
23121SOL    HW170496   0.416   6.119   9.019  0.1466 -0.3292  0.2271
23121SOL    HW270497   0.424   6.260   8.966 -0.1528 -0.3729  0.0649
23122SOL     OW70498   8.647   6.051   4.950  0.2777  0.3459  0.6276
23122SOL    HW170499   8.618   6.065   4.860  0.1227  2.2700  0.9285
23122SOL    HW270500   8.743   6.053   4.945  0.4878 -3.7725 -0.0373
23123SOL     OW70501   0.594   5.539   2.239 -0.4020 -0.3062  0.6370
23123SOL    HW170502   0.538   5.463   2.222 -1.0316 -0.0020  1.3117
23123SOL    HW270503   0.561   5.607   2.180  1.5573 -1.1602 -1.6017
23124SOL     OW70504   0.059   7.711   1.938  0.1096 -0.3736 -0.3861
23124SOL    HW170505   0.025   7.799   1.957  1.2159 -0.5433  3.0014
23124SOL    HW270506   0.127   7.726   1.872  0.3115  1.3187  0.1567
23125SOL     OW70507   5.637   3.276   6.592  0.1668  0.7335 -1.0058
23125SOL    HW170508   5.600   3.313   6.511 -0.3775 -0.7072 -1.4370
23125SOL    HW270509   5.659   3.353   6.644 -2.3129  1.7301 -1.2512
23126SOL     OW70510   5.195   7.159   1.353 -0.6332  0.0308  0.0371
23126SOL    HW170511   5.157   7.244   1.329  2.0045  1.8232  1.6777
23126SOL    HW270512   5.201   7.162   1.448  1.7584 -0.9236 -0.0317
23127SOL     OW70513   5.597   5.870   8.741 -0.2338 -0.1635  0.5262
23127SOL    HW170514   5.655   5.824   8.680  0.8162  1.1472  0.4859
23127SOL    HW270515   5.562   5.943   8.691 -0.6996 -0.0436  1.0189
23128SOL     OW70516   8.341   5.079   6.907 -0.0116 -0.4865  0.5440
23128SOL    HW170517   8.281   5.062   6.980  0.7799  0.6475  1.5079
23128SOL    HW270518   8.428   5.076   6.946  0.3757  1.3823 -0.0424
23129SOL     OW70519   4.916   7.628   4.414 -0.5026  0.2459  0.5647
23129SOL    HW170520   4.853   7.605   4.346 -0.9879  2.0868  0.3379
23129SOL    HW270521   4.982   7.558   4.411 -0.3297  0.4363 -2.0193
23130SOL     OW70522   8.290   8.480   3.937  0.5208  0.7375 -0.1132
23130SOL    HW170523   8.341   8.449   3.862 -0.7921 -0.5120 -0.5256
23130SOL    HW270524   8.282   8.575   3.923  2.5901  0.9613 -0.0902
23131SOL     OW70525   4.142   3.547   1.815  0.2585 -0.6182  0.3182
23131SOL    HW170526   4.147   3.643   1.807 -1.7175 -0.4351  0.5716
23131SOL    HW270527   4.120   3.517   1.727 -1.0295 -0.6156  0.6134
23132SOL     OW70528   6.805   8.834   1.906  0.0568  0.0083  0.8371
23132SOL    HW170529   6.733   8.894   1.922 -0.9668 -1.3782  1.6316
23132SOL    HW270530   6.765   8.758   1.863  1.5146  0.3512 -1.3004
23133SOL     OW70531   8.101   4.788   4.770  0.1410  0.8105 -0.6753
23133SOL    HW170532   8.007   4.786   4.750  0.4249 -0.3809 -2.0730
23133SOL    HW270533   8.139   4.723   4.711  1.3895 -1.5581  2.4895
23134SOL     OW70534   4.006   2.079   7.479  0.1394  0.4891 -0.3544
23134SOL    HW170535   3.987   2.128   7.559 -0.2563 -0.0550 -0.1145
23134SOL    HW270536   4.077   2.128   7.438  5.0305 -2.4541  3.4549
23135SOL     OW70537   2.329   8.487   8.303 -0.4020  0.1085 -0.2651
23135SOL    HW170538   2.360   8.565   8.348  2.0427 -0.4355 -0.8646
23135SOL    HW270539   2.316   8.516   8.212 -0.6358  0.0907 -0.2376
23136SOL     OW70540   7.918   4.127   6.013 -0.5279  0.5158  0.4226
23136SOL    HW170541   7.946   4.051   5.961 -3.1491 -0.8312  0.8207
23136SOL    HW270542   7.938   4.202   5.959  0.5073 -0.5746 -0.7728
23137SOL     OW70543   8.061   2.602   1.756  0.3643 -0.2587 -0.5791
23137SOL    HW170544   8.102   2.586   1.671  0.5248  1.6321 -0.9064
23137SOL    HW270545   8.082   2.693   1.776 -3.3187  0.7493 -0.5642
23138SOL     OW70546   3.747   4.696   0.688 -0.0804  0.1035 -0.4318
23138SOL    HW170547   3.729   4.765   0.753  0.2637 -0.7048  0.5579
23138SOL    HW270548   3.662   4.682   0.645 -0.3008  0.7144 -0.2129
23139SOL     OW70549   2.910   3.662   6.360 -0.0415 -0.0637  0.1950
23139SOL    HW170550   2.920   3.753   6.389 -0.3026 -0.1087  0.4257
23139SOL    HW270551   2.913   3.666   6.265  0.5805  0.1160  0.2191
23140SOL     OW70552   5.615   0.101   1.637 -0.0678  0.1530  0.3340
23140SOL    HW170553   5.623   0.166   1.706  1.0773  0.5217 -0.1196
23140SOL    HW270554   5.705   0.072   1.621 -0.3274 -0.0293 -0.8935
23141SOL     OW70555   7.541   5.108   2.408  0.0267  0.0778 -0.3718
23141SOL    HW170556   7.623   5.091   2.361 -0.4193 -2.8986 -0.2807
23141SOL    HW270557   7.524   5.027   2.456 -2.7631  0.7384 -0.0791
23142SOL     OW70558   8.141   5.089   7.105 -0.4537  0.7414  0.0890
23142SOL    HW170559   8.073   5.048   7.051 -2.0049  0.8771  1.8305
23142SOL    HW270560   8.159   5.025   7.174  0.6418  1.0281  0.0821
23143SOL     OW70561   0.823   2.166   3.377 -0.0167  0.0578  0.0482
23143SOL    HW170562   0.903   2.186   3.327  0.2990  1.1061  0.9232
23143SOL    HW270563   0.760   2.136   3.311  0.7499  0.2858 -0.8103
23144SOL     OW70564   5.970   8.705   5.282  0.5642 -0.0837  0.6519
23144SOL    HW170565   6.056   8.705   5.325 -0.2043 -1.3621  2.3521
23144SOL    HW270566   5.949   8.798   5.271  2.2534  0.2571 -0.0636
23145SOL     OW70567   7.427   2.234   6.155 -0.0023  0.0132  0.0051
23145SOL    HW170568   7.398   2.252   6.245 -0.0551  2.9710 -0.5291
23145SOL    HW270569   7.360   2.175   6.120 -2.2715  2.0690  0.6596
23146SOL     OW70570   6.949   7.907   5.937 -0.2487 -0.6993  0.2498
23146SOL    HW170571   6.970   7.996   5.965 -1.6939 -0.0247 -0.7085
23146SOL    HW270572   6.915   7.864   6.015 -1.1561  0.1311  0.3270
23147SOL     OW70573   6.990   5.577   4.680  0.0406  0.2228 -0.4286
23147SOL    HW170574   6.934   5.572   4.757  0.2524 -0.4414 -0.3143
23147SOL    HW270575   6.938   5.537   4.610 -1.3538  3.3971 -1.3870
23148SOL     OW70576   5.241   0.345   7.308 -0.0263 -0.1009  0.1206
23148SOL    HW170577   5.195   0.312   7.231  0.3585  0.7138 -0.4761
23148SOL    HW270578   5.312   0.283   7.324 -0.1784 -0.3318 -0.1069
23149SOL     OW70579   7.173   6.156   2.910 -0.7700  0.1503  0.1135
23149SOL    HW170580   7.086   6.165   2.871 -0.5148  3.4493  0.0916
23149SOL    HW270581   7.198   6.066   2.891 -2.0717  0.5247 -4.3477
23150SOL     OW70582   4.689   0.778   6.404  0.0411 -0.4362  0.0079
23150SOL    HW170583   4.718   0.778   6.496 -0.6038  0.2823  0.2227
23150SOL    HW270584   4.636   0.857   6.396  1.5261  0.4751 -1.4518
23151SOL     OW70585   7.592   4.291   1.947 -0.2374 -0.4704  0.7862
23151SOL    HW170586   7.634   4.373   1.973 -1.0175 -0.2012  1.2066
23151SOL    HW270587   7.577   4.301   1.853  0.5251 -0.5297  0.6459
23152SOL     OW70588   5.163   4.275   9.030 -0.2633  0.1620  0.2256
23152SOL    HW170589   5.121   4.244   8.949  1.6311 -0.8277 -0.4398
23152SOL    HW270590   5.169   4.370   9.018 -0.7404  0.1202 -0.4280
23153SOL     OW70591   3.839   0.799   7.744 -0.2619 -0.2232  0.5778
23153SOL    HW170592   3.857   0.710   7.774 -1.1418 -0.4392  0.5038
23153SOL    HW270593   3.840   0.793   7.649 -0.9749 -0.3008  0.5713
23154SOL     OW70594   1.297   0.452   7.454 -0.4021  0.3110 -0.6969
23154SOL    HW170595   1.373   0.510   7.447  0.9820 -1.2688  0.2561
23154SOL    HW270596   1.312   0.404   7.536 -2.2495 -0.3246 -0.6927
23155SOL     OW70597   5.084   0.573   0.230 -0.0834 -0.0493  0.5547
23155SOL    HW170598   5.102   0.602   0.140 -0.8348 -0.2530  0.3368
23155SOL    HW270599   5.063   0.654   0.277  3.3368  0.5416  1.3490
23156SOL     OW70600   8.853   4.882   3.192  0.5233 -0.2597  0.6044
23156SOL    HW170601   8.822   4.838   3.271 -0.6917  1.0937  0.9184
23156SOL    HW270602   8.806   4.965   3.191 -4.1998 -2.3729 -4.6087
23157SOL     OW70603   8.254   5.670   1.667 -0.1715 -0.5958  0.2679
23157SOL    HW170604   8.294   5.751   1.696 -0.6969 -1.2979  3.3357
23157SOL    HW270605   8.327   5.614   1.642  0.2771  0.3596 -0.5906
23158SOL     OW70606   8.358   7.743   0.252  0.1407  0.3836  0.2476
23158SOL    HW170607   8.404   7.737   0.169  0.3985  0.2895  0.3974
23158SOL    HW270608   8.421   7.783   0.312 -0.3124  1.2067  0.1972
23159SOL     OW70609   7.311   8.582   7.147  0.0860 -0.2725 -0.7688
23159SOL    HW170610   7.304   8.490   7.175  0.0867 -0.7039 -2.1392
23159SOL    HW270611   7.352   8.626   7.221  1.1330 -1.6034 -0.5254
23160SOL     OW70612   3.215   3.986   2.099 -0.2552  0.2971 -0.3924
23160SOL    HW170613   3.195   4.036   2.179 -1.9824 -0.6602 -0.1903
23160SOL    HW270614   3.251   3.904   2.132 -1.8927 -0.4994 -0.5405
23161SOL     OW70615   8.955   2.049   2.893  0.5474  0.5316  0.3835
23161SOL    HW170616   8.892   2.104   2.847 -0.1202  0.5006  1.2247
23161SOL    HW270617   8.947   2.075   2.985  1.9099  0.6605  0.4915
23162SOL     OW70618   4.768   5.596   5.470  0.1248  0.0232 -0.2213
23162SOL    HW170619   4.674   5.597   5.452  0.0588  1.6902  0.0861
23162SOL    HW270620   4.809   5.611   5.385  0.0189  1.3520 -0.0633
23163SOL     OW70621   4.990   5.898   0.438  0.3360  0.0742  0.3555
23163SOL    HW170622   4.931   5.937   0.374 -0.1207 -0.0768  0.6787
23163SOL    HW270623   5.020   5.817   0.398 -0.5326 -0.3968  0.6265
23164SOL     OW70624   2.541   3.764   8.621  0.4002  0.1510  0.4958
23164SOL    HW170625   2.504   3.817   8.550  0.9476  0.9899  0.8221
23164SOL    HW270626   2.486   3.785   8.697  2.3704  2.5900  1.3754
23165SOL     OW70627   2.496   3.612   2.982 -0.5076  0.7416  0.2493
23165SOL    HW170628   2.406   3.623   3.012 -0.6265 -0.7849  0.5137
23165SOL    HW270629   2.489   3.588   2.890 -0.4672 -0.7970  0.6252
23166SOL     OW70630   7.802   4.430   0.537 -0.3544  0.7246 -0.4981
23166SOL    HW170631   7.849   4.508   0.507  0.3283  1.0275  1.2184
23166SOL    HW270632   7.855   4.357   0.506 -0.5107  0.9522 -1.3375
23167SOL     OW70633   0.461   3.354   3.264  0.0736  0.3593  0.0476
23167SOL    HW170634   0.378   3.396   3.289 -0.1506 -0.9176  1.5837
23167SOL    HW270635   0.447   3.261   3.281  0.4057 -0.5524 -3.6537
23168SOL     OW70636   8.873   6.863   2.193 -0.0371  0.0043 -0.5973
23168SOL    HW170637   8.942   6.822   2.141 -0.5494  0.9471 -2.0810
23168SOL    HW270638   8.796   6.861   2.136 -0.8353  0.3632  0.4404
23169SOL     OW70639   8.482   7.966   5.723 -0.1521 -0.5389  0.3911
23169SOL    HW170640   8.572   7.954   5.752  0.2383 -1.1665 -0.9909
23169SOL    HW270641   8.482   7.936   5.632 -2.2522 -2.7312  1.0131
23170SOL     OW70642   7.616   7.377   3.258 -0.3924 -0.4001  0.1177
23170SOL    HW170643   7.697   7.412   3.220 -1.3103  1.7153  0.0009
23170SOL    HW270644   7.603   7.294   3.213  0.8791 -0.0275 -1.0144
23171SOL     OW70645   1.128   1.351   2.036  0.5030 -0.2787 -0.2035
23171SOL    HW170646   1.187   1.348   1.961 -1.2687 -2.6767 -1.6645
23171SOL    HW270647   1.075   1.429   2.021  2.7883  1.5910  0.8401
23172SOL     OW70648   0.693   6.922   6.394 -0.0762  0.4241  0.0935
23172SOL    HW170649   0.784   6.950   6.382 -0.0495  0.5300  0.4943
23172SOL    HW270650   0.700   6.835   6.433 -0.1293  0.6934  0.7351
23173SOL     OW70651   3.146   3.979   4.291 -0.1310 -0.0065 -0.4758
23173SOL    HW170652   3.056   4.007   4.309 -0.3865 -0.0040 -1.6695
23173SOL    HW270653   3.140   3.883   4.289  0.1428 -0.0585  0.6191
23174SOL     OW70654   7.899   3.470   5.757 -0.2106  0.1322  0.3682
23174SOL    HW170655   7.985   3.506   5.734 -0.4722  1.3122  1.1170
23174SOL    HW270656   7.908   3.376   5.747  0.9844  0.2873 -0.1594
23175SOL     OW70657   4.995   1.541   5.270 -0.1034  0.4286  0.6272
23175SOL    HW170658   5.017   1.457   5.229  0.1063  0.8000 -0.0457
23175SOL    HW270659   5.064   1.556   5.334 -0.6745 -0.3740  1.4506
23176SOL     OW70660   1.083   7.690   3.016 -0.3526 -0.5782  0.4362
23176SOL    HW170661   1.082   7.706   2.921 -0.0422 -1.7597  0.2185
23176SOL    HW270662   1.031   7.610   3.027 -0.4476 -0.4101  1.2809
23177SOL     OW70663   6.147   8.678   8.744  0.5097  0.1042  0.2640
23177SOL    HW170664   6.085   8.675   8.671 -0.0440  1.2315  0.6603
23177SOL    HW270665   6.233   8.667   8.703  0.2181  0.8460 -0.5738
23178SOL     OW70666   1.552   0.148   8.231 -0.5562 -0.1055 -0.0176
23178SOL    HW170667   1.469   0.115   8.265 -1.0578 -0.5253 -1.5783
23178SOL    HW270668   1.618   0.090   8.269 -1.2509 -1.6474 -1.0590
23179SOL     OW70669   6.417   6.460   8.912  0.0031 -0.4234 -0.5127
23179SOL    HW170670   6.463   6.408   8.978  0.1451 -0.5386 -0.7011
23179SOL    HW270671   6.486   6.488   8.851 -0.0418  0.1457 -0.3070
23180SOL     OW70672   8.687   2.215   8.384  0.0893  0.2980 -0.0570
23180SOL    HW170673   8.745   2.257   8.448 -0.4186 -2.1260  2.1772
23180SOL    HW270674   8.725   2.128   8.371 -2.4419 -1.0166  0.7265
23181SOL     OW70675   1.884   8.673   0.842 -0.1356 -0.6246  0.0729
23181SOL    HW170676   1.882   8.580   0.817  1.3021 -0.5539 -0.4381
23181SOL    HW270677   1.978   8.693   0.851 -0.4286  0.7432  0.3164
23182SOL     OW70678   1.662   2.750   3.550  0.4983 -0.2647  0.0158
23182SOL    HW170679   1.690   2.771   3.460 -0.1764 -1.3044 -0.4505
23182SOL    HW270680   1.740   2.712   3.590  1.5328  2.3090  0.6535
23183SOL     OW70681   3.455   8.752   3.966 -0.2332 -0.0203 -0.2355
23183SOL    HW170682   3.374   8.707   3.942 -1.3546  1.1950  1.1003
23183SOL    HW270683   3.466   8.733   4.059 -0.2829  1.7161  0.1509
23184SOL     OW70684   1.873   6.995   7.972  0.7077 -0.2092 -0.5745
23184SOL    HW170685   1.879   6.950   8.056 -0.1263  0.5509 -0.0967
23184SOL    HW270686   1.828   7.077   7.991 -0.0407 -0.2894 -1.8650
23185SOL     OW70687   4.482   7.316   1.740  0.6071 -0.2133  0.0484
23185SOL    HW170688   4.455   7.287   1.652 -1.9077  1.0433  0.3157
23185SOL    HW270689   4.448   7.248   1.798  1.1817 -0.4211  0.1404
23186SOL     OW70690   5.590   7.626   4.162  0.0427 -0.2327 -0.0045
23186SOL    HW170691   5.596   7.659   4.072 -0.3371 -0.8060 -0.2417
23186SOL    HW270692   5.681   7.606   4.186  0.3973  1.6331  0.4098
23187SOL     OW70693   1.296   7.225   3.275  0.8888  0.5872 -0.4155
23187SOL    HW170694   1.382   7.254   3.244  0.5016  0.5943 -1.5199
23187SOL    HW270695   1.315   7.166   3.348  1.9388 -0.9826 -1.8734
23188SOL     OW70696   2.307   5.220   6.356  0.4303  0.0864 -0.0149
23188SOL    HW170697   2.267   5.299   6.392  0.1870  0.6322 -1.4266
23188SOL    HW270698   2.400   5.242   6.348  0.3679  0.2226 -0.3768
23189SOL     OW70699   2.460   0.811   6.640  0.1079 -0.1703 -0.6457
23189SOL    HW170700   2.467   0.906   6.635 -0.8694 -0.0384  0.2015
23189SOL    HW270701   2.375   0.795   6.680  1.5438 -1.3221  2.3016
23190SOL     OW70702   8.863   5.256   0.334  0.5576  0.2223 -0.1458
23190SOL    HW170703   8.848   5.303   0.416 -2.4029  1.9024 -1.4927
23190SOL    HW270704   8.892   5.324   0.273 -1.3237 -0.1101 -1.4857
23191SOL     OW70705   8.999   1.603   3.549 -0.1458  0.2612 -0.2920
23191SOL    HW170706   8.947   1.558   3.616 -1.1597 -0.8397 -1.7398
23191SOL    HW270707   9.082   1.623   3.592 -0.2456 -1.6137  0.9148
23192SOL     OW70708   8.585   3.368   4.270 -0.1908 -0.8370  0.1802
23192SOL    HW170709   8.645   3.307   4.313 -1.5935 -1.3628  1.4813
23192SOL    HW270710   8.510   3.314   4.245 -0.2317 -0.1592 -1.2614
23193SOL     OW70711   1.776   3.405   1.886  0.1490  0.7248 -0.5430
23193SOL    HW170712   1.703   3.435   1.831 -0.7441  1.0458  0.7650
23193SOL    HW270713   1.796   3.480   1.942  2.0807  0.9390 -1.4193
23194SOL     OW70714   4.723   6.832   6.924  0.2110  0.0162  0.3039
23194SOL    HW170715   4.633   6.854   6.900 -0.1481 -1.2980  0.4184
23194SOL    HW270716   4.717   6.746   6.966  1.1432  1.0574  2.8145
23195SOL     OW70717   2.693   1.601   2.928 -0.5427 -0.1884  0.3651
23195SOL    HW170718   2.695   1.581   2.835  3.0222  0.3034  0.1959
23195SOL    HW270719   2.647   1.685   2.934 -0.4233 -0.0115 -0.9992
23196SOL     OW70720   4.068   7.371   4.832  0.1512  0.1301  0.6990
23196SOL    HW170721   4.135   7.421   4.786 -0.7126 -0.2511 -1.0636
23196SOL    HW270722   4.075   7.282   4.796 -0.4463 -0.2341  1.4447
23197SOL     OW70723   2.751   8.854   1.455  0.5712 -0.1094 -0.0557
23197SOL    HW170724   2.768   8.809   1.538  1.7972 -1.3459 -0.9342
23197SOL    HW270725   2.656   8.864   1.453  0.5250  0.2083  1.6091
23198SOL     OW70726   7.582   2.205   5.345  0.3005 -0.2729 -0.2150
23198SOL    HW170727   7.559   2.178   5.434  1.6070 -0.2885  0.1413
23198SOL    HW270728   7.654   2.146   5.320  0.2183  0.0004 -1.1200
23199SOL     OW70729   7.432   8.670   0.969  0.0077  0.3128  0.0907
23199SOL    HW170730   7.519   8.633   0.952 -0.9568 -2.2346  0.4174
23199SOL    HW270731   7.415   8.650   1.061 -0.4409  1.9110  0.3834
23200SOL     OW70732   7.155   4.690   1.878  0.0740 -0.3312  0.2950
23200SOL    HW170733   7.137   4.644   1.797  1.6658 -2.6007  1.1363
23200SOL    HW270734   7.078   4.672   1.933 -1.2008  1.5577 -0.7521
23201SOL     OW70735   0.533   4.318   0.416 -0.4194  0.1800 -0.3665
23201SOL    HW170736   0.626   4.337   0.401 -0.4868 -0.7839 -2.3135
23201SOL    HW270737   0.495   4.402   0.443  0.9352  0.6688  0.1119
23202SOL     OW70738   3.989   2.337   2.222  0.2754  0.3140  0.2376
23202SOL    HW170739   4.032   2.321   2.138 -0.6528 -1.2309  0.0149
23202SOL    HW270740   4.028   2.273   2.282  1.1648  1.6165  1.1013
23203SOL     OW70741   8.108   8.560   1.479  0.0017  0.0569 -0.5355
23203SOL    HW170742   8.098   8.624   1.549 -1.2271 -0.0012 -0.6392
23203SOL    HW270743   8.082   8.607   1.399 -1.4098 -0.6711 -0.5483
23204SOL     OW70744   0.493   8.677   1.094 -0.3024  0.2753 -0.2337
23204SOL    HW170745   0.587   8.691   1.108  0.0245 -0.7700 -1.2522
23204SOL    HW270746   0.487   8.645   1.004 -1.3949 -1.9022  0.5439
23205SOL     OW70747   3.977   5.974   4.843 -0.6072  0.0955  0.3447
23205SOL    HW170748   3.925   6.051   4.821  0.3998  1.2458  1.7963
23205SOL    HW270749   4.065   5.995   4.814 -0.5003 -0.9617 -0.1605
23206SOL     OW70750   5.721   2.980   4.422 -0.5025 -0.0930  0.7871
23206SOL    HW170751   5.652   3.043   4.445 -0.1172  0.9330 -0.7405
23206SOL    HW270752   5.687   2.934   4.345  0.3980  0.2176  0.1999
23207SOL     OW70753   3.486   5.596   3.390 -0.4466 -0.4294  0.1006
23207SOL    HW170754   3.393   5.613   3.374 -0.6646  0.2964  1.8957
23207SOL    HW270755   3.509   5.527   3.328 -1.2038  1.8917 -2.9831
23208SOL     OW70756   4.198   6.111   5.979 -0.0758  0.2915 -0.5782
23208SOL    HW170757   4.121   6.106   5.923  0.4369  2.2465 -1.5155
23208SOL    HW270758   4.268   6.069   5.928 -0.0109  0.5173 -0.6764
23209SOL     OW70759   3.458   2.660   1.108 -0.4749  0.9065  0.1826
23209SOL    HW170760   3.513   2.611   1.047  1.8419 -0.7785  3.2915
23209SOL    HW270761   3.510   2.737   1.132  0.1957 -0.1003  2.2771
23210SOL     OW70762   1.999   4.080   0.994 -0.5364  0.4685  0.4052
23210SOL    HW170763   2.059   4.066   1.067  2.0297  0.3161 -1.5894
23210SOL    HW270764   1.920   4.117   1.034  0.0888 -1.1222  3.4068
23211SOL     OW70765   7.647   3.341   3.628  0.4050 -0.2596 -0.5172
23211SOL    HW170766   7.591   3.282   3.578  0.5353 -0.3722 -0.5332
23211SOL    HW270767   7.674   3.407   3.564 -1.8509  1.3676  0.0922
23212SOL     OW70768   4.887   0.267   4.535 -0.4113 -0.1873  0.3771
23212SOL    HW170769   4.881   0.211   4.458  1.5134  0.0207  0.0248
23212SOL    HW270770   4.852   0.352   4.506 -1.8023 -0.7035  0.4395
23213SOL     OW70771   1.592   6.672   2.875  0.4666  0.5031 -0.2714
23213SOL    HW170772   1.687   6.666   2.868  0.4306  0.7622 -1.3041
23213SOL    HW270773   1.568   6.735   2.806 -0.3265  1.5337  0.9126
23214SOL     OW70774   8.100   5.714   0.563  0.1583 -0.0093  0.6056
23214SOL    HW170775   8.130   5.803   0.544 -0.6672  0.4044  1.2087
23214SOL    HW270776   8.065   5.718   0.652  2.1126 -1.4546  1.5205
23215SOL     OW70777   7.393   2.082   8.066  0.2155  0.4645 -0.1236
23215SOL    HW170778   7.336   2.140   8.016  0.0752 -0.9788 -1.7562
23215SOL    HW270779   7.482   2.108   8.042  0.1527  0.0489 -0.8440
23216SOL     OW70780   3.877   0.657   8.803 -0.1035 -0.6102 -0.0671
23216SOL    HW170781   3.970   0.673   8.789 -0.5062  0.2753 -2.0273
23216SOL    HW270782   3.834   0.741   8.783 -1.3518 -1.1251  0.3396
23217SOL     OW70783   7.818   5.163   2.565 -0.0136  0.6103  0.5068
23217SOL    HW170784   7.819   5.116   2.648  2.2491 -0.2149  0.0683
23217SOL    HW270785   7.877   5.237   2.579 -0.5235  1.1287 -0.0303
23218SOL     OW70786   5.102   3.662   7.154 -0.2672 -0.7677 -0.3719
23218SOL    HW170787   5.055   3.621   7.226 -0.6811 -1.0398 -0.7868
23218SOL    HW270788   5.033   3.688   7.092  0.0214  0.1092 -0.3462
23219SOL     OW70789   1.962   2.329   7.573 -0.7395 -0.5023 -0.4147
23219SOL    HW170790   2.002   2.282   7.646 -0.0667 -0.9703 -1.0612
23219SOL    HW270791   2.030   2.391   7.545 -1.4211  0.4909  0.0873
23220SOL     OW70792   0.306   1.371   9.014  0.4096 -0.4663  0.1437
23220SOL    HW170793   0.397   1.342   9.004  0.6443  0.7568 -2.0663
23220SOL    HW270794   0.309   1.438   9.082  0.6366 -2.3206  2.0361
23221SOL     OW70795   5.522   7.021   7.007 -0.3191  0.1705  0.0481
23221SOL    HW170796   5.442   6.969   7.000 -0.5141  0.3889  0.6083
23221SOL    HW270797   5.585   6.962   7.049 -0.5159  0.3558  0.6093
23222SOL     OW70798   3.358   7.356   5.610  0.1804 -0.3257 -0.0740
23222SOL    HW170799   3.405   7.279   5.576  0.0137 -0.8032  0.7587
23222SOL    HW270800   3.426   7.407   5.654  0.2372 -0.1346 -0.3803
23223SOL     OW70801   1.234   4.837   4.622  0.3802  0.4157 -0.2353
23223SOL    HW170802   1.289   4.764   4.652 -0.4513  0.0345  0.4281
23223SOL    HW270803   1.145   4.802   4.625  0.0611  1.1439 -0.9076
23224SOL     OW70804   7.612   4.412   8.995  0.1618  0.6848 -0.3697
23224SOL    HW170805   7.554   4.373   9.060  1.5950 -1.0447 -0.0415
23224SOL    HW270806   7.571   4.495   8.972 -1.6618  0.1856  0.8950
23225SOL     OW70807   0.733   2.547   8.257 -0.3195 -0.1485 -0.2963
23225SOL    HW170808   0.725   2.495   8.177  0.2524  0.2311 -0.6140
23225SOL    HW270809   0.664   2.515   8.314 -0.4774 -0.7066 -0.7896
23226SOL     OW70810   2.769   4.158   0.152 -0.4215 -0.4664 -0.4374
23226SOL    HW170811   2.864   4.150   0.151 -0.3121  0.1234  1.5519
23226SOL    HW270812   2.738   4.084   0.099  1.0728 -2.3250  1.1540
23227SOL     OW70813   1.993   5.949   8.028 -0.2929  0.5130 -0.2956
23227SOL    HW170814   2.087   5.954   8.010 -0.4174  1.0824 -0.7953
23227SOL    HW270815   1.974   5.855   8.023  0.0682  0.4701 -1.1767
23228SOL     OW70816   1.317   8.434   8.464  0.3898  0.0058  0.0679
23228SOL    HW170817   1.364   8.390   8.535  0.1830 -1.3091 -0.5825
23228SOL    HW270818   1.348   8.390   8.385 -2.3917 -1.3728 -0.3476
23229SOL     OW70819   3.923   4.862   3.318 -0.2408  0.1899 -0.3308
23229SOL    HW170820   3.870   4.817   3.252  0.6687 -2.2674  0.4750
23229SOL    HW270821   3.994   4.903   3.268 -1.0295  0.6652 -1.0935
23230SOL     OW70822   9.057   3.525   8.626  0.4443  0.1095 -0.0603
23230SOL    HW170823   9.089   3.533   8.716 -0.8496  3.6843  0.2252
23230SOL    HW270824   9.074   3.434   8.602  2.4952 -0.4788  3.1353
23231SOL     OW70825   1.034   4.959   0.695  0.5133 -0.2234 -0.5017
23231SOL    HW170826   1.011   4.941   0.786 -0.8172 -0.1789 -0.8128
23231SOL    HW270827   1.101   4.894   0.674 -0.0212 -1.0013  0.1481
23232SOL     OW70828   7.680   5.414   1.560  0.0458  0.3440  0.1837
23232SOL    HW170829   7.659   5.326   1.528 -1.8431  1.0340 -0.6232
23232SOL    HW270830   7.753   5.442   1.505 -0.0641 -0.3071 -0.3130
23233SOL     OW70831   3.786   5.877   5.268 -0.0405 -0.5928 -0.0067
23233SOL    HW170832   3.861   5.905   5.215  2.3639 -2.5232  2.1289
23233SOL    HW270833   3.739   5.958   5.288  1.8909  0.8012 -0.8120
23234SOL     OW70834   3.335   3.513   5.570 -0.3611 -0.1412  0.1515
23234SOL    HW170835   3.276   3.454   5.616 -0.8710  0.9982  1.0102
23234SOL    HW270836   3.278   3.563   5.511 -0.1315  0.3822  0.3698
23235SOL     OW70837   5.159   3.223   7.524  0.0565 -0.0760  0.6062
23235SOL    HW170838   5.085   3.281   7.544 -0.5530 -0.1172 -1.3149
23235SOL    HW270839   5.234   3.266   7.563 -0.6013  1.3324  0.4037
23236SOL     OW70840   1.432   2.778   1.900 -0.7645  0.1082  0.6478
23236SOL    HW170841   1.400   2.688   1.899  0.1024 -0.2549 -1.7739
23236SOL    HW270842   1.513   2.774   1.949 -0.0523 -0.7427 -0.5479
23237SOL     OW70843   7.824   4.670   0.377 -0.0195 -0.3063 -0.2234
23237SOL    HW170844   7.769   4.745   0.356  0.8465 -0.1344 -2.0481
23237SOL    HW270845   7.786   4.597   0.329  0.2815 -0.6003 -0.0267
23238SOL     OW70846   6.800   0.120   1.948 -0.1573 -0.0005  0.2710
23238SOL    HW170847   6.741   0.064   1.897 -0.7930  0.5427  0.3903
23238SOL    HW270848   6.833   0.184   1.885 -0.1042  0.0165  0.3159
23239SOL     OW70849   2.481   1.333   2.555 -0.5632  0.2666 -0.1929
23239SOL    HW170850   2.394   1.315   2.589 -0.6483 -0.4221 -0.7520
23239SOL    HW270851   2.503   1.419   2.590 -0.7638 -0.2738  1.3618
23240SOL     OW70852   2.403   3.430   1.036  0.2243  0.5758 -0.4113
23240SOL    HW170853   2.337   3.459   1.100  2.3741  1.6434  1.4700
23240SOL    HW270854   2.485   3.429   1.086  1.9713  1.0863 -3.1134
23241SOL     OW70855   2.422   1.017   2.523 -0.1029  0.2409 -0.3436
23241SOL    HW170856   2.380   1.051   2.602  0.5558 -1.3126  0.7268
23241SOL    HW270857   2.481   1.086   2.494 -1.5883  1.5092 -0.4999
23242SOL     OW70858   6.446   5.255   0.987 -0.3634 -0.0999  0.1480
23242SOL    HW170859   6.387   5.180   0.983  1.4458 -1.5848 -0.1857
23242SOL    HW270860   6.394   5.325   1.027 -1.8201 -1.8094  1.3867
23243SOL     OW70861   1.418   8.096   2.406  0.5434  0.0454  0.4065
23243SOL    HW170862   1.412   8.128   2.316 -1.9588 -0.7430  0.2234
23243SOL    HW270863   1.400   8.002   2.399  2.4050 -0.4326  1.5292
23244SOL     OW70864   7.621   2.035   2.699 -0.3168 -0.1569 -0.1878
23244SOL    HW170865   7.537   2.000   2.727 -1.0289  0.9993 -0.7863
23244SOL    HW270866   7.649   1.977   2.628  0.0635 -1.3334  0.8906
23245SOL     OW70867   2.035   1.354   8.352 -0.0802  0.1722  0.4328
23245SOL    HW170868   2.092   1.430   8.340  0.9547 -0.1327  2.7175
23245SOL    HW270869   2.093   1.286   8.388 -1.2877 -1.1953 -0.0955
23246SOL     OW70870   5.516   1.442   1.347 -0.2082 -0.1685 -0.0468
23246SOL    HW170871   5.473   1.451   1.262 -0.9877 -0.3326  0.3231
23246SOL    HW270872   5.583   1.375   1.333  2.0875  2.2369 -1.4405
23247SOL     OW70873   8.101   3.064   7.936 -0.1347  0.0356 -0.4893
23247SOL    HW170874   8.128   3.128   7.870 -1.0303 -0.7825 -1.6841
23247SOL    HW270875   8.009   3.082   7.951  0.3120  0.9627  1.4516
23248SOL     OW70876   4.714   0.342   7.646  0.7338 -0.0517  0.2985
23248SOL    HW170877   4.672   0.352   7.731  0.3844 -1.5541  0.3145
23248SOL    HW270878   4.661   0.397   7.587 -0.0153 -0.2973  0.7291
23249SOL     OW70879   0.701   5.056   8.872  0.3701  0.0883  0.2425
23249SOL    HW170880   0.688   5.142   8.832 -0.6764  0.6911  1.7658
23249SOL    HW270881   0.686   4.994   8.801  2.3234  1.1511 -1.1780
23250SOL     OW70882   8.759   0.979   4.944 -0.1315  0.4253 -0.5833
23250SOL    HW170883   8.808   0.943   5.018 -1.0566  0.1530 -0.0879
23250SOL    HW270884   8.744   0.904   4.886 -1.3278  0.1512  0.0424
23251SOL     OW70885   7.028   8.149   7.820 -0.1955  0.2604  0.3899
23251SOL    HW170886   7.017   8.244   7.823  1.0208  0.5813 -2.3275
23251SOL    HW270887   6.981   8.122   7.740  1.9559 -0.9479 -0.5626
23252SOL     OW70888   3.772   4.095   8.141 -0.1636 -0.2982 -0.0566
23252SOL    HW170889   3.826   4.016   8.148  0.1698 -0.0201  0.5558
23252SOL    HW270890   3.834   4.166   8.124 -0.3933 -0.0698  0.0422
23253SOL     OW70891   2.051   5.946   6.625 -0.5540  0.1087  0.1602
23253SOL    HW170892   2.094   6.031   6.619  1.3195 -0.8854 -1.5720
23253SOL    HW270893   1.958   5.966   6.613 -0.0572  1.8282 -1.2493
23254SOL     OW70894   6.228   1.333   0.480  0.5274  0.2558 -0.0846
23254SOL    HW170895   6.214   1.356   0.388 -0.4641  1.0113  0.2406
23254SOL    HW270896   6.144   1.297   0.509  0.9329 -0.2933  0.4477
23255SOL     OW70897   5.254   8.500   7.151  0.1001 -0.6824 -0.1158
23255SOL    HW170898   5.228   8.417   7.109 -1.7950  0.3077 -1.0431
23255SOL    HW270899   5.313   8.474   7.222  1.6143 -2.6164 -1.9526
23256SOL     OW70900   8.775   6.204   6.021 -0.1736 -0.0138  0.2560
23256SOL    HW170901   8.718   6.129   6.005 -1.4283  1.2951 -1.9728
23256SOL    HW270902   8.720   6.280   6.000  1.3432  1.4970  1.5035
23257SOL     OW70903   6.107   4.095   9.037  0.0424 -0.1622 -0.4157
23257SOL    HW170904   6.067   4.163   9.092 -0.0211 -1.4646  1.2385
23257SOL    HW270905   6.075   4.012   9.074  1.6014 -1.1571 -1.1677
23258SOL     OW70906   0.393   1.748   1.530  0.8385 -0.1756 -0.0743
23258SOL    HW170907   0.405   1.798   1.449  1.2576 -0.4971 -0.2143
23258SOL    HW270908   0.313   1.697   1.516 -0.3731  1.4645  0.5967
23259SOL     OW70909   3.451   2.898   2.647  0.0858  0.1750 -0.0631
23259SOL    HW170910   3.456   2.933   2.558  1.0683  0.2843  0.0273
23259SOL    HW270911   3.532   2.928   2.689 -0.7386  0.8132  1.1185
23260SOL     OW70912   7.741   1.192   1.720  0.2073 -0.2764 -0.1350
23260SOL    HW170913   7.727   1.162   1.809 -1.4129 -1.8127 -0.8376
23260SOL    HW270914   7.785   1.118   1.677 -0.9500 -0.4314 -1.1036
23261SOL     OW70915   4.162   4.608   6.186 -0.4036  0.1041 -0.1398
23261SOL    HW170916   4.104   4.677   6.219 -1.6782 -1.4805  1.1206
23261SOL    HW270917   4.128   4.528   6.225  0.4123 -1.4011 -2.3103
23262SOL     OW70918   7.231   6.326   3.431  0.2062 -0.1982 -0.1141
23262SOL    HW170919   7.170   6.324   3.357  1.3641 -1.2363 -1.1012
23262SOL    HW270920   7.263   6.236   3.437  2.4371  0.5249 -0.3331
23263SOL     OW70921   7.418   2.356   4.484  0.2286 -0.6430 -0.1603
23263SOL    HW170922   7.365   2.337   4.406  0.7360  0.3773 -0.7890
23263SOL    HW270923   7.418   2.452   4.489  0.7866 -0.6836  0.6877
23264SOL     OW70924   5.067   5.498   3.199 -0.4349  0.0473  0.5607
23264SOL    HW170925   5.053   5.591   3.212 -0.0595  0.0628  0.8790
23264SOL    HW270926   5.008   5.455   3.261 -0.6150  0.0730  0.4070
23265SOL     OW70927   8.252   4.794   7.753 -0.2016 -0.1435  0.1112
23265SOL    HW170928   8.261   4.784   7.848 -2.5937  0.0766  0.4290
23265SOL    HW270929   8.160   4.816   7.740  0.4027  1.4265 -2.1552
23266SOL     OW70930   6.663   8.281   8.769 -0.2938  0.1345 -0.8551
23266SOL    HW170931   6.687   8.190   8.753 -1.1351 -0.2139 -0.2106
23266SOL    HW270932   6.731   8.332   8.725  1.7842 -0.7717  1.1071
23267SOL     OW70933   1.491   0.657   7.454  0.0355  0.5249 -0.1666
23267SOL    HW170934   1.496   0.673   7.359 -1.2503  0.1577 -0.3154
23267SOL    HW270935   1.546   0.726   7.492 -0.0934  1.2008 -1.1351
23268SOL     OW70936   6.413   8.259   0.738 -0.1113  0.0288  0.5045
23268SOL    HW170937   6.386   8.348   0.759 -1.2140 -0.0816 -0.3946
23268SOL    HW270938   6.496   8.269   0.692 -0.0312  0.5523  0.7531
23269SOL     OW70939   7.060   2.334   6.281 -0.0805 -0.5880 -0.1277
23269SOL    HW170940   7.129   2.309   6.343 -0.1032  0.6858  0.4386
23269SOL    HW270941   7.106   2.383   6.213 -0.2395 -0.9414 -0.4969
23270SOL     OW70942   4.169   7.889   5.775  0.3028 -0.2490 -0.3473
23270SOL    HW170943   4.183   7.915   5.684 -1.2598  1.9675 -0.0361
23270SOL    HW270944   4.205   7.961   5.826 -0.0031 -0.8618  0.7682
23271SOL     OW70945   7.568   4.714   2.305 -0.1262  0.3016  0.2205
23271SOL    HW170946   7.493   4.747   2.255 -0.0730  0.6664  0.3789
23271SOL    HW270947   7.618   4.792   2.328 -0.3068  0.1776  1.0959
23272SOL     OW70948   2.253   2.655   5.198  0.4755  0.0393  0.5546
23272SOL    HW170949   2.217   2.715   5.263  2.7158  1.4248  0.5967
23272SOL    HW270950   2.339   2.632   5.231  1.8730  1.1425 -2.0474
23273SOL     OW70951   0.261   6.726   6.174 -0.0932 -0.4426  0.0986
23273SOL    HW170952   0.314   6.804   6.182 -1.3294  0.3039  1.6992
23273SOL    HW270953   0.180   6.756   6.131  0.0408 -1.1851 -0.7061
23274SOL     OW70954   2.519   3.757   8.130 -0.0633  0.5282 -0.2580
23274SOL    HW170955   2.546   3.837   8.086  0.3541 -0.8680 -2.7084
23274SOL    HW270956   2.580   3.690   8.098 -1.8578 -1.2306 -0.1840
23275SOL     OW70957   8.969   5.693   2.547  0.2347  0.3127  0.2119
23275SOL    HW170958   8.931   5.658   2.466  0.2481 -0.0352  0.3510
23275SOL    HW270959   9.031   5.760   2.518 -0.6511  1.0421 -0.0015
23276SOL     OW70960   0.135   4.298   7.675  0.2678 -0.2130 -0.4766
23276SOL    HW170961   0.068   4.296   7.743  1.2118  0.4115  0.5083
23276SOL    HW270962   0.159   4.207   7.661 -0.9788 -0.4696 -1.0597
23277SOL     OW70963   6.667   4.557   2.361 -0.0570 -0.5240 -0.0885
23277SOL    HW170964   6.594   4.528   2.416  0.3436  0.2687  0.8860
23277SOL    HW270965   6.740   4.501   2.385 -0.3441 -1.3747 -1.1271
23278SOL     OW70966   3.290   6.859   1.470 -0.0266  0.0576 -0.3009
23278SOL    HW170967   3.358   6.862   1.536  1.5321  2.2184 -1.8452
23278SOL    HW270968   3.269   6.766   1.460  0.7070 -0.4258  2.1308
23279SOL     OW70969   6.777   1.896   6.318  0.0615 -0.3354 -0.5359
23279SOL    HW170970   6.778   1.814   6.368 -0.7196  0.2712  0.5116
23279SOL    HW270971   6.721   1.955   6.370  0.5642  0.8397 -1.3019
23280SOL     OW70972   2.832   7.616   8.289  0.7285  0.3053  0.2695
23280SOL    HW170973   2.858   7.558   8.361 -2.2824 -1.5174  0.0538
23280SOL    HW270974   2.805   7.697   8.331  1.4920  0.2362  0.9122
23281SOL     OW70975   6.676   5.104   6.609  0.5873 -0.1791  0.1207
23281SOL    HW170976   6.689   5.033   6.545 -1.2241  0.9629 -1.6249
23281SOL    HW270977   6.729   5.176   6.575 -0.8463  0.6293 -0.4898
23282SOL     OW70978   2.752   0.383   4.638 -0.2359 -0.2322  0.2697
23282SOL    HW170979   2.793   0.299   4.615  0.2580 -0.7885  2.9018
23282SOL    HW270980   2.677   0.359   4.692 -0.0281  1.0238  1.1456
23283SOL     OW70981   5.028   5.823   2.476  0.3012 -0.7947  0.3688
23283SOL    HW170982   5.055   5.900   2.526  0.7863 -1.1350  0.6421
23283SOL    HW270983   5.018   5.754   2.542 -2.0447 -0.4957  0.3977
23284SOL     OW70984   5.899   6.441   5.965  0.3521 -0.3315 -0.9311
23284SOL    HW170985   5.977   6.417   5.915  0.3899 -0.3550 -0.8622
23284SOL    HW270986   5.887   6.368   6.026 -0.1533 -0.6706 -1.4383
23285SOL     OW70987   1.336   7.304   1.981  0.0647  0.0718 -0.3160
23285SOL    HW170988   1.250   7.303   1.939  1.1444 -1.6744 -2.8061
23285SOL    HW270989   1.397   7.312   1.908  2.0593  0.3062  1.2982
23286SOL     OW70990   8.527   8.025   4.709  0.1274  0.0211  0.0276
23286SOL    HW170991   8.531   8.120   4.700 -1.0674 -0.0447 -1.6877
23286SOL    HW270992   8.471   7.997   4.637  2.1974 -2.1652 -0.8849
23287SOL     OW70993   4.908   4.242   6.943 -0.3389 -0.1283 -0.0037
23287SOL    HW170994   5.000   4.271   6.949 -0.4701  0.6400 -1.2384
23287SOL    HW270995   4.861   4.321   6.915 -1.1433 -0.8803 -0.8162
23288SOL     OW70996   8.284   4.400   8.121 -0.2413 -0.2780 -0.1845
23288SOL    HW170997   8.261   4.432   8.034  1.4876  0.4841 -0.4092
23288SOL    HW270998   8.283   4.478   8.176 -1.7429 -0.8146  0.6273
23289SOL     OW70999   7.717   0.260   5.380 -0.5932 -0.0567  0.4504
23289SOL    HW171000   7.781   0.327   5.407 -1.5185  0.7948  0.5829
23289SOL    HW271001   7.668   0.241   5.459 -0.4077 -0.8285  0.3830
23290SOL     OW71002   4.511   7.509   4.272  0.1518 -0.2823  0.3398
23290SOL    HW171003   4.445   7.579   4.270 -0.1316 -0.4879 -3.0549
23290SOL    HW271004   4.591   7.552   4.240  0.5571 -1.0042  0.3767
23291SOL     OW71005   7.083   3.514   0.479  0.0072  0.5141 -0.0135
23291SOL    HW171006   7.048   3.545   0.562  1.7283  1.6102  0.3319
23291SOL    HW271007   7.151   3.451   0.503 -0.3350 -0.1142 -0.6397
23292SOL     OW71008   6.746   3.464   2.930 -0.0403  0.0134  0.0086
23292SOL    HW171009   6.678   3.401   2.905 -0.4113 -0.7831  2.6957
23292SOL    HW271010   6.825   3.432   2.887 -0.7801 -0.7176 -0.8466
23293SOL     OW71011   6.037   8.417   1.227  0.0939  0.1201  0.4123
23293SOL    HW171012   6.110   8.382   1.279  1.4071 -1.1594 -2.0922
23293SOL    HW271013   5.988   8.339   1.200 -3.9776  0.9918  4.0948
23294SOL     OW71014   6.276   3.554   6.122  0.1812 -0.2494  0.3153
23294SOL    HW171015   6.336   3.618   6.161  0.5920 -0.4955  0.0877
23294SOL    HW271016   6.200   3.555   6.180 -0.2826  1.2277 -0.2602
23295SOL     OW71017   2.535   4.458   5.854  0.2668 -0.5733 -0.1727
23295SOL    HW171018   2.579   4.470   5.938 -1.3413 -0.4302  0.6674
23295SOL    HW271019   2.565   4.371   5.824 -0.1385 -1.1943  1.1665
23296SOL     OW71020   1.228   7.688   0.167 -0.0028  0.0485  0.0033
23296SOL    HW171021   1.196   7.777   0.149  0.7676  0.1167 -1.0764
23296SOL    HW271022   1.163   7.631   0.126  0.3199  0.1531 -0.6666
23297SOL     OW71023   8.101   4.407   5.664  0.0501 -0.6371  0.4199
23297SOL    HW171024   8.189   4.384   5.694 -0.3872 -0.5261  1.8274
23297SOL    HW271025   8.076   4.334   5.608  1.1418 -0.5245 -0.2669
23298SOL     OW71026   7.896   5.393   5.088  0.4666  0.2880  0.1752
23298SOL    HW171027   7.821   5.426   5.040  0.0020 -2.6229 -1.3556
23298SOL    HW271028   7.860   5.362   5.171 -0.0874 -1.0467 -0.5297
23299SOL     OW71029   0.506   8.849   5.521 -0.3733 -0.4147 -0.0754
23299SOL    HW171030   0.438   8.876   5.460  0.5043  0.9057 -0.5174
23299SOL    HW271031   0.584   8.896   5.492  0.7897 -2.0475  0.2987
23300SOL     OW71032   6.017   7.618   4.799  0.6661  0.0185  0.3125
23300SOL    HW171033   6.039   7.705   4.833  1.1801  0.3845 -0.8729
23300SOL    HW271034   6.016   7.630   4.704 -0.7617 -0.9332  0.1736
23301SOL     OW71035   5.691   5.571   6.981 -0.5531 -0.1656  0.0156
23301SOL    HW171036   5.675   5.482   7.014  1.5428 -1.1629 -1.4085
23301SOL    HW271037   5.748   5.611   7.046 -1.8009  0.3009  0.8455
23302SOL     OW71038   0.075   8.746   1.297  0.3551 -0.5073 -0.3045
23302SOL    HW171039   0.151   8.803   1.294 -0.5176  0.7480  0.4989
23302SOL    HW271040   0.079   8.697   1.215  1.7820 -0.1716 -0.4637
23303SOL     OW71041   5.029   7.584   2.675  0.2609  0.2587  0.6769
23303SOL    HW171042   5.008   7.651   2.610  0.7781 -0.6830 -0.4972
23303SOL    HW271043   5.040   7.632   2.757 -0.1074  1.5101  0.0128
23304SOL     OW71044   8.752   7.012   7.454 -0.4162  0.6310 -0.2445
23304SOL    HW171045   8.790   7.088   7.410  1.3090 -0.4230 -0.7134
23304SOL    HW271046   8.680   6.985   7.397 -1.7787  2.5346  0.5093
23305SOL     OW71047   8.514   5.711   8.334  0.5500  0.2515  0.3670
23305SOL    HW171048   8.516   5.627   8.379  0.0467 -0.0939 -0.2316
23305SOL    HW271049   8.605   5.729   8.312  0.5572 -0.6608 -0.4287
23306SOL     OW71050   8.917   7.220   7.368  0.2980  0.3662 -0.5660
23306SOL    HW171051   8.972   7.229   7.290  0.7949  0.7793 -0.1734
23306SOL    HW271052   8.836   7.265   7.345  0.7538  1.2010 -0.5529
23307SOL     OW71053   4.564   3.456   5.710  0.1338 -0.1921  0.8235
23307SOL    HW171054   4.558   3.451   5.805  0.5221 -1.6449  0.8009
23307SOL    HW271055   4.547   3.366   5.680  0.0495  0.2306 -0.4749
23308SOL     OW71056   1.430   7.471   8.806 -0.2262  0.5903  0.0410
23308SOL    HW171057   1.356   7.410   8.805  0.0414  0.2562 -0.0432
23308SOL    HW271058   1.488   7.437   8.874  0.3640  0.1994 -0.6317
23309SOL     OW71059   3.005   3.858   1.476  0.1695 -0.4712  0.3573
23309SOL    HW171060   3.014   3.814   1.561 -0.3093 -0.4948  0.4011
23309SOL    HW271061   3.046   3.943   1.488  0.7959 -0.7708  0.3783
23310SOL     OW71062   5.719   5.353   2.664  0.6002  0.1557  0.5371
23310SOL    HW171063   5.635   5.383   2.631 -0.2314 -1.0662  1.4620
23310SOL    HW271064   5.704   5.262   2.689  2.2000 -0.0931  0.7203
23311SOL     OW71065   8.723   3.974   4.820  0.1484 -0.3696 -0.1411
23311SOL    HW171066   8.688   3.887   4.838  1.4564 -1.3042 -1.8529
23311SOL    HW271067   8.744   4.010   4.907 -0.8615 -1.5424  0.6153
23312SOL     OW71068   4.110   3.240   1.119 -0.0915 -0.0892 -0.1634
23312SOL    HW171069   4.071   3.154   1.135  1.2006 -0.7567 -0.5137
23312SOL    HW271070   4.203   3.223   1.107  0.1921  1.3662 -0.2357
23313SOL     OW71071   1.286   2.104   3.502 -0.3203 -0.3687 -0.2952
23313SOL    HW171072   1.360   2.055   3.467  0.0447  0.1091 -0.2017
23313SOL    HW271073   1.284   2.185   3.451  0.2787  0.3795  0.8079
23314SOL     OW71074   7.549   0.486   6.887  0.0413 -0.2719 -0.4658
23314SOL    HW171075   7.633   0.507   6.929  0.0179 -0.5362 -0.2829
23314SOL    HW271076   7.567   0.491   6.793  0.4994 -1.2288 -0.4395
23315SOL     OW71077   1.609   7.772   2.598 -0.3664 -0.2415  0.2299
23315SOL    HW171078   1.634   7.820   2.519 -0.1251 -1.7149 -0.6255
23315SOL    HW271079   1.687   7.721   2.620 -0.5121 -0.0282  1.2966
23316SOL     OW71080   2.692   1.105   8.784 -0.2893  0.4290 -0.3210
23316SOL    HW171081   2.663   1.196   8.795 -1.0526  0.3453 -1.3913
23316SOL    HW271082   2.772   1.099   8.836 -0.7110  1.4579  0.5023
23317SOL     OW71083   5.933   3.242   2.066 -0.2147  0.6643 -0.2140
23317SOL    HW171084   6.006   3.182   2.080 -1.7179 -1.5362 -1.1874
23317SOL    HW271085   5.974   3.327   2.049  2.2252 -0.7883 -2.3700
23318SOL     OW71086   4.743   6.418   4.397 -0.1803  0.5280 -0.0908
23318SOL    HW171087   4.766   6.488   4.335  0.1193  1.0527  0.6062
23318SOL    HW271088   4.668   6.453   4.446 -0.0122  0.3724  0.2809
23319SOL     OW71089   0.464   6.566   6.835 -0.0399  0.6508  0.2616
23319SOL    HW171090   0.467   6.596   6.925 -1.4165 -1.3766  1.0456
23319SOL    HW271091   0.507   6.635   6.785  2.2326  1.1153  2.6351
23320SOL     OW71092   4.629   1.823   3.460  0.4929 -0.0270  0.4850
23320SOL    HW171093   4.558   1.837   3.397 -0.2681  1.1949  1.5590
23320SOL    HW271094   4.589   1.839   3.545  1.9945  0.4639  1.1341
23321SOL     OW71095   4.353   0.686   7.362 -0.3453  0.4089 -0.3727
23321SOL    HW171096   4.363   0.741   7.284 -0.0746  2.1799  0.8371
23321SOL    HW271097   4.271   0.639   7.347 -1.1929  1.9889 -1.0249
23322SOL     OW71098   2.729   8.137   7.677  0.2429 -0.1026  0.4765
23322SOL    HW171099   2.670   8.116   7.750 -0.2746 -0.6464 -0.0781
23322SOL    HW271100   2.800   8.186   7.716  1.2419 -2.4392  1.8064
23323SOL     OW71101   6.141   5.502   6.602 -0.4450 -0.0328 -0.0054
23323SOL    HW171102   6.103   5.438   6.662 -1.3742 -1.1702 -1.7275
23323SOL    HW271103   6.067   5.553   6.570  0.1312  1.0879  0.3902
23324SOL     OW71104   8.364   3.016   8.681  0.3820 -0.4027 -0.4127
23324SOL    HW171105   8.278   2.999   8.643  0.4493 -0.9952 -0.3043
23324SOL    HW271106   8.357   3.104   8.719 -0.6317 -1.0132  0.8762
23325SOL     OW71107   8.204   0.488   1.421 -0.4985 -0.5768 -0.0504
23325SOL    HW171108   8.296   0.513   1.407 -1.2637  2.4842 -0.3988
23325SOL    HW271109   8.201   0.463   1.514  0.8510 -1.8481 -0.3016
23326SOL     OW71110   2.603   2.685   1.088  0.5119 -0.2323 -0.4038
23326SOL    HW171111   2.574   2.749   1.023 -0.3492  0.5509  0.7175
23326SOL    HW271112   2.698   2.694   1.089  0.3318  3.1600  1.7502
23327SOL     OW71113   1.747   0.076   7.536  0.4166  0.9738  0.6756
23327SOL    HW171114   1.814   0.041   7.477  0.8143  1.1952  0.9943
23327SOL    HW271115   1.726   0.163   7.500  0.0891  0.7884  0.4113
23328SOL     OW71116   3.018   5.804   3.957 -0.0128 -0.5602  0.1460
23328SOL    HW171117   2.972   5.888   3.954  1.2785  0.1787  0.3459
23328SOL    HW271118   3.046   5.788   3.867  0.2163 -0.4940  0.2039
23329SOL     OW71119   5.372   6.269   7.613 -0.2240 -0.2160 -0.2960
23329SOL    HW171120   5.312   6.195   7.605 -0.2854  0.0155 -2.4031
23329SOL    HW271121   5.452   6.231   7.650 -0.1532 -1.4143 -1.6216
23330SOL     OW71122   2.743   6.339   5.213  0.4118 -0.1968  0.3185
23330SOL    HW171123   2.661   6.326   5.165 -0.7118  0.1342  2.0218
23330SOL    HW271124   2.802   6.380   5.151 -0.8277 -0.1702 -0.8861
23331SOL     OW71125   8.156   7.017   1.561  0.0733  0.2228  0.2917
23331SOL    HW171126   8.232   7.072   1.541  1.1084 -0.1663  2.7110
23331SOL    HW271127   8.160   7.006   1.656 -3.9648  1.5506  0.8106
23332SOL     OW71128   7.306   4.680   8.052  0.0246  0.1967  0.4965
23332SOL    HW171129   7.226   4.634   8.025 -0.1700  1.0620 -0.4282
23332SOL    HW271130   7.303   4.678   8.148 -1.2374  0.4411  0.4771
23333SOL     OW71131   4.991   0.872   8.358  0.3109  0.1990  0.2847
23333SOL    HW171132   5.066   0.811   8.364 -1.8796 -2.7002  0.2897
23333SOL    HW271133   4.981   0.905   8.448  0.0440 -1.4448  0.8978
23334SOL     OW71134   8.107   7.330   3.949 -0.1006  0.3344 -0.2171
23334SOL    HW171135   8.063   7.394   4.005 -2.4690 -2.4587  1.3784
23334SOL    HW271136   8.038   7.296   3.892  1.2589 -0.3420 -1.5409
23335SOL     OW71137   2.526   4.923   1.866  0.6242  0.3642 -0.6184
23335SOL    HW171138   2.444   4.874   1.859  1.3844 -1.0315 -0.1718
23335SOL    HW271139   2.594   4.856   1.868  1.6366  1.3605  1.2134
23336SOL     OW71140   7.618   6.059   7.168 -0.0221 -0.0168 -0.8426
23336SOL    HW171141   7.544   6.119   7.162 -2.2095 -2.3654  0.5544
23336SOL    HW271142   7.651   6.071   7.257 -1.6898 -2.0414  0.1383
23337SOL     OW71143   7.487   8.266   1.763 -0.5336  0.1729  0.5493
23337SOL    HW171144   7.582   8.265   1.757 -0.5231  1.4258  0.1656
23337SOL    HW271145   7.461   8.175   1.746  0.5216  0.0555 -0.5801
23338SOL     OW71146   2.077   1.066   2.214  0.3716  0.0850  0.2638
23338SOL    HW171147   2.016   1.037   2.145  1.1306 -2.3540  0.5316
23338SOL    HW271148   2.053   1.158   2.230 -0.9437  0.2230 -2.0378
23339SOL     OW71149   4.104   7.981   8.847 -0.0440  0.3202  0.3058
23339SOL    HW171150   4.091   7.948   8.758  1.5284  0.3813  0.0164
23339SOL    HW271151   4.041   7.933   8.901 -0.5775 -0.1739 -0.7339
23340SOL     OW71152   7.693   3.855   5.600 -0.0992 -0.0411 -0.1911
23340SOL    HW171153   7.650   3.831   5.682  1.3814 -1.9503  0.0968
23340SOL    HW271154   7.622   3.881   5.542 -1.2889  0.1777  1.3191
23341SOL     OW71155   1.737   5.910   6.349 -0.0204  0.4403  0.0234
23341SOL    HW171156   1.667   5.856   6.312  2.2454 -1.1742 -2.2587
23341SOL    HW271157   1.708   6.000   6.336 -1.7179 -0.1740 -0.6951
23342SOL     OW71158   3.988   3.420   5.599  0.2155  0.0786 -0.4228
23342SOL    HW171159   4.063   3.386   5.648 -0.4231  0.0603  0.5850
23342SOL    HW271160   4.024   3.447   5.515  0.9157 -2.1735 -0.8973
23343SOL     OW71161   3.064   7.459   4.358  0.3350 -0.1255  0.0789
23343SOL    HW171162   3.068   7.494   4.447 -1.3994 -0.0628  0.1600
23343SOL    HW271163   3.123   7.515   4.307 -2.0647  2.8164  0.2600
23344SOL     OW71164   3.736   6.758   8.481  0.4343  0.1668 -0.7350
23344SOL    HW171165   3.795   6.831   8.498  0.3389 -0.1243  1.0078
23344SOL    HW271166   3.663   6.772   8.541  0.2406 -1.1715 -0.6319
23345SOL     OW71167   0.151   8.501   2.128  0.4709 -0.2547 -0.3059
23345SOL    HW171168   0.218   8.567   2.147 -0.1396  0.9243 -1.9743
23345SOL    HW271169   0.201   8.425   2.097  1.0901  0.4263 -1.0402
23346SOL     OW71170   7.663   3.289   6.466  0.1845 -0.0527 -0.3146
23346SOL    HW171171   7.748   3.250   6.445  0.1650  0.4415 -1.3723
23346SOL    HW271172   7.677   3.383   6.457 -0.7180 -0.0135 -1.4936
23347SOL     OW71173   6.363   4.102   0.185 -0.3037 -0.2763 -0.2533
23347SOL    HW171174   6.297   4.135   0.245 -0.7012  1.1435 -1.4083
23347SOL    HW271175   6.326   4.020   0.152 -0.9238 -0.1266  0.0451
23348SOL     OW71176   6.402   5.570   2.025 -0.4709  0.3213  0.9404
23348SOL    HW171177   6.367   5.483   2.005  1.3489 -0.2216 -0.0859
23348SOL    HW271178   6.448   5.560   2.109  1.3761 -0.2513 -0.0852
23349SOL     OW71179   5.617   6.394   6.095  0.2113  0.1305  0.0644
23349SOL    HW171180   5.654   6.363   6.178  0.5020 -1.4688 -0.6300
23349SOL    HW271181   5.623   6.489   6.101 -0.1839  0.0904  2.0619
23350SOL     OW71182   4.833   9.032   6.049 -0.0505  0.0062  0.2236
23350SOL    HW171183   4.894   9.073   6.109 -1.7996  1.8131  0.8982
23350SOL    HW271184   4.748   9.039   6.093 -1.2715  0.6471 -2.0605
23351SOL     OW71185   6.278   7.370   1.945  0.1277 -0.0971 -0.0387
23351SOL    HW171186   6.208   7.435   1.951 -1.4886 -1.6914 -0.5847
23351SOL    HW271187   6.358   7.421   1.937 -1.0036  1.8057  0.1805
23352SOL     OW71188   3.601   3.395   8.413 -0.8034 -0.3458  0.2214
23352SOL    HW171189   3.542   3.361   8.346 -0.4612  1.1319 -0.8772
23352SOL    HW271190   3.615   3.321   8.472 -3.0944 -0.9870  0.0785
23353SOL     OW71191   4.470   8.353   0.163 -0.0724  1.1669  0.1941
23353SOL    HW171192   4.446   8.261   0.170 -0.6653  1.3800  1.1526
23353SOL    HW271193   4.527   8.357   0.086  1.0533 -0.2324  0.8857
23354SOL     OW71194   8.632   0.185   1.368  0.0547 -0.1681 -0.2410
23354SOL    HW171195   8.628   0.253   1.435  0.7645 -0.4304  0.0806
23354SOL    HW271196   8.654   0.232   1.288  0.3913  0.0099 -0.0501
23355SOL     OW71197   7.570   1.692   2.900 -0.2059 -0.4161 -0.0030
23355SOL    HW171198   7.635   1.741   2.950 -0.5589  1.6389 -1.4107
23355SOL    HW271199   7.491   1.696   2.954  0.2986 -1.2164  0.8149
23356SOL     OW71200   1.467   8.998   5.402 -0.1449 -0.2964 -0.6623
23356SOL    HW171201   1.403   9.007   5.472  0.3971 -1.2679 -0.0203
23356SOL    HW271202   1.427   8.937   5.340 -0.2654 -0.1135 -0.7632
23357SOL     OW71203   3.037   2.357   6.284  0.4236  0.2024 -0.0009
23357SOL    HW171204   3.107   2.313   6.237 -1.3465 -0.1982 -2.4264
23357SOL    HW271205   3.075   2.439   6.313  1.9487 -0.0881 -1.0886
23358SOL     OW71206   6.275   8.094   6.895  0.3409  0.1876 -0.2322
23358SOL    HW171207   6.191   8.086   6.850 -0.0072  0.0130  0.4308
23358SOL    HW271208   6.326   8.020   6.863  1.6280  2.2553 -3.4310
23359SOL     OW71209   3.279   6.189   0.146  0.5029 -0.3519 -0.4717
23359SOL    HW171210   3.188   6.159   0.148  1.1342 -2.5241 -0.7340
23359SOL    HW271211   3.318   6.139   0.074  1.9667  0.3510 -0.1962
23360SOL     OW71212   8.475   3.382   0.274  0.3512  0.0908 -0.1567
23360SOL    HW171213   8.428   3.465   0.264 -1.3598 -0.7259  0.6114
23360SOL    HW271214   8.495   3.376   0.367 -0.8059 -0.9635  0.0552
23361SOL     OW71215   2.709   2.993   0.255 -0.0655  0.4478  0.1521
23361SOL    HW171216   2.751   2.976   0.339 -0.6256  1.5638  0.6831
23361SOL    HW271217   2.621   2.958   0.264  0.1979 -0.3873 -0.3662
23362SOL     OW71218   3.253   0.725   5.818  0.3340  0.3518  0.1107
23362SOL    HW171219   3.213   0.771   5.744 -0.3238 -1.2438 -0.5625
23362SOL    HW271220   3.346   0.722   5.797  0.3127  0.9031 -0.0881
23363SOL     OW71221   1.528   7.833   5.815  0.0516 -0.5298  0.4159
23363SOL    HW171222   1.597   7.900   5.819 -1.7142  1.4335 -0.1749
23363SOL    HW271223   1.454   7.872   5.860 -0.5008 -2.9071  1.7258
23364SOL     OW71224   3.058   7.249   8.074 -0.6357 -0.0605 -0.1787
23364SOL    HW171225   3.144   7.284   8.097 -0.6319 -1.0578  1.4096
23364SOL    HW271226   3.073   7.156   8.057 -1.4155 -0.2759  0.2491
23365SOL     OW71227   4.651   8.867   3.666 -0.0768 -0.4088 -0.0756
23365SOL    HW171228   4.654   8.960   3.690  1.3165 -0.5899  0.5490
23365SOL    HW271229   4.679   8.821   3.744 -1.9627 -1.4765  0.0313
23366SOL     OW71230   6.856   1.600   1.972  0.1780 -0.0904  0.3701
23366SOL    HW171231   6.798   1.633   2.041  0.3769  0.2608  0.3733
23366SOL    HW271232   6.929   1.662   1.971 -0.3952  0.5965 -0.9649
23367SOL     OW71233   1.883   6.102   5.028 -0.0944 -0.5377  0.2673
23367SOL    HW171234   1.880   6.043   5.104 -0.5470  0.6187  1.1695
23367SOL    HW271235   1.960   6.072   4.979 -0.1278 -1.6747  0.8612
23368SOL     OW71236   7.153   7.675   6.875  0.2985 -0.5038  0.0564
23368SOL    HW171237   7.151   7.660   6.780 -2.9371 -0.8906  0.0571
23368SOL    HW271238   7.186   7.592   6.911  0.1848 -0.8813 -0.6836
23369SOL     OW71239   2.758   3.038   7.682 -0.6616  0.4830  0.2551
23369SOL    HW171240   2.734   3.072   7.595 -1.1812  0.4429  0.3788
23369SOL    HW271241   2.841   2.994   7.668 -2.4239 -2.7668 -1.0624
23370SOL     OW71242   4.506   1.648   0.667 -0.0821  0.0871  0.9563
23370SOL    HW171243   4.413   1.656   0.648  0.0055  2.3966  1.2322
23370SOL    HW271244   4.549   1.661   0.582  0.0153  0.1976  1.0220
23371SOL     OW71245   5.179   8.078   8.299 -0.3770 -0.0165 -0.4399
23371SOL    HW171246   5.274   8.084   8.293 -0.4647  0.4554 -1.4525
23371SOL    HW271247   5.158   8.117   8.384  0.2509  0.8967 -0.6855
23372SOL     OW71248   3.570   7.326   8.292 -0.4578 -0.5074  0.1042
23372SOL    HW171249   3.577   7.409   8.340 -0.1143 -0.5677  0.1656
23372SOL    HW271250   3.653   7.281   8.310  1.0075  0.7024 -2.7987
23373SOL     OW71251   8.289   8.453   1.738  0.4198 -0.2615  0.2265
23373SOL    HW171252   8.375   8.495   1.744  0.3952 -0.3445  1.4938
23373SOL    HW271253   8.271   8.448   1.644  1.6023  0.1533 -0.0409
23374SOL     OW71254   6.480   3.259   5.265 -0.3689  0.5384  0.5082
23374SOL    HW171255   6.485   3.256   5.361 -0.3305 -0.3201  0.4932
23374SOL    HW271256   6.440   3.175   5.242 -1.2599  1.1311 -0.1776
23375SOL     OW71257   1.854   5.000   8.160  0.3604  0.2861 -0.0675
23375SOL    HW171258   1.807   4.933   8.110  1.4341 -0.0712 -0.6218
23375SOL    HW271259   1.827   5.083   8.120 -1.0906  0.2313  0.7186
23376SOL     OW71260   0.174   1.114   9.027 -0.0070 -0.4804 -0.0341
23376SOL    HW171261   0.203   1.201   9.002 -0.6697 -0.3126 -0.2452
23376SOL    HW271262   0.166   1.117   9.122 -1.3100  0.1037 -0.1494
23377SOL     OW71263   5.118   3.095   0.024 -0.5222 -0.2940  0.0619
23377SOL    HW171264   5.199   3.096   0.074 -1.3812 -0.6883  1.5168
23377SOL    HW271265   5.119   3.177  -0.025 -0.5199  1.0454  2.1921
23378SOL     OW71266   8.849   5.570   1.165 -0.4951 -0.2090  0.0013
23378SOL    HW171267   8.784   5.538   1.227 -0.8922  1.8131  0.6716
23378SOL    HW271268   8.882   5.651   1.203  3.0010 -1.4707  0.0585
23379SOL     OW71269   4.380   6.198   1.675 -0.6956  0.0021  0.3992
23379SOL    HW171270   4.298   6.160   1.643 -0.1435  0.2129 -1.3281
23379SOL    HW271271   4.440   6.124   1.681 -0.9720 -0.1511  1.6576
23380SOL     OW71272   5.133   3.404   8.166  0.6173  0.1816 -0.0506
23380SOL    HW171273   5.130   3.380   8.073 -0.6551 -0.1449  0.0535
23380SOL    HW271274   5.180   3.487   8.168 -1.7930  1.6719 -1.3383
23381SOL     OW71275   0.337   6.105   5.878 -0.3138 -0.1654  0.6589
23381SOL    HW171276   0.252   6.065   5.858 -1.0296  1.2342  0.8077
23381SOL    HW271277   0.316   6.196   5.899  0.9254 -0.3436  3.0226
23382SOL     OW71278   3.017   7.678   0.214 -0.1423 -0.3665 -0.1410
23382SOL    HW171279   2.946   7.667   0.278  0.7874  1.1514  1.2426
23382SOL    HW271280   2.985   7.744   0.153 -0.3084 -0.4549 -0.1520
23383SOL     OW71281   4.856   5.075   2.674 -0.0884 -0.1088 -0.0859
23383SOL    HW171282   4.884   5.164   2.654 -0.1613 -0.0884 -0.0970
23383SOL    HW271283   4.786   5.057   2.611 -0.3280 -0.0393  0.1568
23384SOL     OW71284   3.516   4.275   3.859 -0.5316  0.1591 -0.1245
23384SOL    HW171285   3.608   4.302   3.857 -1.3693  3.4167 -2.5689
23384SOL    HW271286   3.474   4.337   3.920 -1.7554  1.7329 -2.4294
23385SOL     OW71287   4.698   2.286   2.747  0.5419  0.1448  0.5295
23385SOL    HW171288   4.666   2.202   2.780  1.4485 -0.3134  0.2796
23385SOL    HW271289   4.778   2.303   2.797  0.8226  0.4434 -0.0103
23386SOL     OW71290   1.433   1.962   7.609  0.4127 -0.2379 -0.4787
23386SOL    HW171291   1.505   1.945   7.548 -0.2874 -1.8351 -0.9048
23386SOL    HW271292   1.354   1.960   7.555 -0.1679 -1.0757  0.3752
23387SOL     OW71293   4.041   3.709   6.890  0.0454  0.1809  0.1500
23387SOL    HW171294   4.083   3.772   6.949  0.6055  0.3373 -0.4145
23387SOL    HW271295   4.002   3.644   6.949  1.9633 -0.5478  0.6832
23388SOL     OW71296   3.281   4.387   0.300 -0.3428 -0.2369 -0.0097
23388SOL    HW171297   3.330   4.450   0.248  0.2093 -0.2894  0.4401
23388SOL    HW271298   3.290   4.418   0.390  1.2706 -1.8122  0.4236
23389SOL     OW71299   7.997   0.988   8.547  0.3345  0.2447  0.3359
23389SOL    HW171300   7.914   1.028   8.520 -0.2154 -0.3499  1.0653
23389SOL    HW271301   8.063   1.054   8.530 -0.1317  0.3386 -1.2923
23390SOL     OW71302   5.524   4.773   6.076  0.2797  0.2020 -0.4360
23390SOL    HW171303   5.444   4.779   6.129 -0.4400 -0.2839 -1.4290
23390SOL    HW271304   5.550   4.864   6.060  0.8939  0.3562  1.2795
23391SOL     OW71305   6.208   5.216   1.762 -0.9068  0.2946  0.0625
23391SOL    HW171306   6.250   5.133   1.739 -0.9099  0.5527 -0.9141
23391SOL    HW271307   6.121   5.212   1.721 -0.9770  0.6938  0.1659
23392SOL     OW71308   4.713   0.046   3.135  0.4537 -0.0533  0.0242
23392SOL    HW171309   4.727  -0.017   3.065  0.5481  0.2635 -0.2440
23392SOL    HW271310   4.700  -0.007   3.213 -2.4554 -0.5264 -0.6602
23393SOL     OW71311   7.166   5.058   2.467  0.0763  0.0641 -0.4831
23393SOL    HW171312   7.195   5.099   2.548 -0.8504  1.3169 -0.7565
23393SOL    HW271313   7.191   5.121   2.399 -0.7784 -0.1182 -0.9787
23394SOL     OW71314   9.009   4.158   8.687  0.4772  0.1671 -0.3282
23394SOL    HW171315   9.049   4.229   8.739 -0.1720 -0.9329  1.7918
23394SOL    HW271316   9.061   4.081   8.709  0.2047 -0.3217 -1.3799
23395SOL     OW71317   4.165   7.747   4.779  0.5932  0.1722  0.3053
23395SOL    HW171318   4.193   7.837   4.768 -0.6149  0.6089  0.5750
23395SOL    HW271319   4.069   7.752   4.780  0.5081 -1.0989  0.4148
23396SOL     OW71320   0.581   6.727   3.168 -0.1730  0.1695 -0.2156
23396SOL    HW171321   0.629   6.788   3.113 -1.5293  2.6424  1.1891
23396SOL    HW271322   0.649   6.678   3.215  0.9547  1.5224 -0.3934
23397SOL     OW71323   8.161   8.256   5.071 -0.2998 -0.3099 -0.1060
23397SOL    HW171324   8.147   8.305   4.990 -1.6105 -0.1315  0.2087
23397SOL    HW271325   8.256   8.255   5.083 -0.1223  0.0625 -1.3920
23398SOL     OW71326   8.459   4.152   6.014  0.1765  0.1083 -0.0309
23398SOL    HW171327   8.503   4.104   5.944 -0.5458  0.0227 -0.4366
23398SOL    HW271328   8.450   4.088   6.085  1.2299  0.2951  0.2949
23399SOL     OW71329   8.230   5.971   2.088  0.3346  0.7249  0.0158
23399SOL    HW171330   8.315   5.978   2.046  0.0588 -1.5037 -1.0544
23399SOL    HW271331   8.179   6.044   2.052  1.4137  1.3612 -0.2464
23400SOL     OW71332   3.018   6.950   5.950 -0.1594 -0.9228  0.1862
23400SOL    HW171333   2.937   6.898   5.952  0.3908 -1.8203 -0.0369
23400SOL    HW271334   2.994   7.030   5.905 -0.6223 -1.7530 -1.1148
23401SOL     OW71335   0.758   1.882   1.446 -0.0477  0.5925  0.1882
23401SOL    HW171336   0.850   1.901   1.432 -0.2132  1.1746 -0.1643
23401SOL    HW271337   0.741   1.804   1.392  0.4218 -0.0249  0.9087
23402SOL     OW71338   1.385   5.706   7.997  0.0182  0.4129 -0.3229
23402SOL    HW171339   1.335   5.720   8.077  0.6043 -0.8422  0.3002
23402SOL    HW271340   1.476   5.700   8.026  0.4567  1.7170 -1.3180
23403SOL     OW71341   3.292   8.722   6.060  0.3601  0.8317 -0.0169
23403SOL    HW171342   3.340   8.757   6.135 -0.4526 -1.5149  1.7192
23403SOL    HW271343   3.329   8.635   6.045 -1.6401 -0.0607 -0.1814
23404SOL     OW71344   8.573   2.372   5.584 -0.5895  0.1620  0.1663
23404SOL    HW171345   8.553   2.460   5.617  0.6890  0.1914  0.9242
23404SOL    HW271346   8.583   2.384   5.489 -0.7240  0.7766  0.2267
23405SOL     OW71347   4.625   8.660   0.343 -0.1579 -0.2108  0.5845
23405SOL    HW171348   4.588   8.745   0.316  1.7028  0.2923 -0.5577
23405SOL    HW271349   4.628   8.609   0.262  1.3560 -0.3107  0.6723
23406SOL     OW71350   9.077   8.261   0.461  0.4810 -0.0074  0.1274
23406SOL    HW171351   9.079   8.238   0.553 -1.4012 -1.4768 -0.1421
23406SOL    HW271352   9.054   8.180   0.416  0.0406  0.9718 -1.5064
23407SOL     OW71353   5.422   5.658   8.856 -0.1248 -0.2677 -0.1268
23407SOL    HW171354   5.490   5.621   8.799  0.4982 -2.2044  1.7380
23407SOL    HW271355   5.464   5.733   8.897  0.8976 -1.3410  0.8708
23408SOL     OW71356   8.090   3.178   0.839  0.2070  0.0809  0.2850
23408SOL    HW171357   8.106   3.139   0.753  2.4134  1.9431 -0.2183
23408SOL    HW271358   8.013   3.234   0.825  0.0505 -0.2472 -0.2370
23409SOL     OW71359   2.711   2.539   2.261  0.1623  0.3425 -0.0623
23409SOL    HW171360   2.706   2.631   2.285 -0.2194  0.6900 -1.4026
23409SOL    HW271361   2.754   2.538   2.175 -1.9723 -0.4946 -1.2069
23410SOL     OW71362   5.674   6.662   5.631  0.7210 -0.3933  0.5807
23410SOL    HW171363   5.704   6.571   5.630  1.3812 -0.1829  0.2423
23410SOL    HW271364   5.672   6.685   5.723 -3.9178 -2.1298  1.1513
23411SOL     OW71365   0.120   2.290   1.427  0.5763 -0.0721  0.0456
23411SOL    HW171366   0.087   2.380   1.425 -1.3533 -0.7324 -0.1718
23411SOL    HW271367   0.206   2.294   1.385 -0.3326  1.3561 -1.7940
23412SOL     OW71368   4.879   6.160   7.924 -0.0336 -0.1728 -0.1558
23412SOL    HW171369   4.894   6.188   8.014 -1.2105 -1.0715  0.3447
23412SOL    HW271370   4.811   6.093   7.930 -1.2700  0.8388 -1.8641
23413SOL     OW71371   5.949   3.766   5.295  0.0162 -0.3399 -0.1065
23413SOL    HW171372   6.005   3.724   5.231 -0.1371  0.7701 -0.9886
23413SOL    HW271373   5.965   3.859   5.284 -0.5119 -0.1000  1.0158
23414SOL     OW71374   6.128   0.876   0.970 -0.0339 -0.2049 -0.1573
23414SOL    HW171375   6.097   0.963   0.942 -1.8671 -0.2907  1.3230
23414SOL    HW271376   6.057   0.817   0.945  0.8590 -1.1620 -0.4526
23415SOL     OW71377   2.162   5.591   7.023  0.4318 -0.3001 -0.4512
23415SOL    HW171378   2.163   5.526   7.093  0.2566 -0.0326 -0.2029
23415SOL    HW271379   2.123   5.669   7.062  0.7577 -0.0028 -0.7130
23416SOL     OW71380   4.274   8.643   7.638  0.0993 -0.3239  0.3822
23416SOL    HW171381   4.203   8.591   7.602  0.1984 -1.2416  1.4638
23416SOL    HW271382   4.273   8.724   7.587 -2.3199  0.0780  0.9387
23417SOL     OW71383   6.174   3.910   4.434 -0.3327  0.5499 -0.7968
23417SOL    HW171384   6.090   3.864   4.436 -0.5003  0.8831 -0.0524
23417SOL    HW271385   6.163   3.976   4.365 -0.6819  0.5988 -0.6954
23418SOL     OW71386   1.576   2.787   4.663  0.0519  0.4611  0.1669
23418SOL    HW171387   1.488   2.822   4.654 -0.2370 -0.6386 -2.2871
23418SOL    HW271388   1.631   2.848   4.613  0.1292 -0.4897 -0.9639
23419SOL     OW71389   0.577   3.869   2.836  0.2582  0.2919  0.6397
23419SOL    HW171390   0.532   3.873   2.751  2.0707 -1.2708 -0.4770
23419SOL    HW271391   0.646   3.936   2.829  1.7450 -1.2424 -0.0190
23420SOL     OW71392   3.206   3.969   6.090  0.3907  0.0823 -0.3440
23420SOL    HW171393   3.300   3.980   6.078  0.3961  0.6995  0.1974
23420SOL    HW271394   3.198   3.905   6.161  0.4010 -0.0389 -0.4523
23421SOL     OW71395   7.501   8.519   5.241 -0.2826 -0.8231  0.5224
23421SOL    HW171396   7.552   8.489   5.316 -0.6860 -2.3476  0.2221
23421SOL    HW271397   7.482   8.440   5.191 -1.5956 -0.0964 -0.2084
23422SOL     OW71398   4.933   4.797   1.681 -0.2526  0.6127  0.8943
23422SOL    HW171399   4.855   4.844   1.651 -0.5809  1.2266  2.5515
23422SOL    HW271400   4.966   4.850   1.754  1.0585 -0.2390  0.9634
23423SOL     OW71401   8.315   6.249   1.623 -0.4734  0.2338 -0.1922
23423SOL    HW171402   8.355   6.273   1.706  0.5862 -0.8063 -0.3920
23423SOL    HW271403   8.287   6.333   1.586 -0.4612  0.7606  0.9410
23424SOL     OW71404   5.527   1.020   3.111  0.2402 -0.0708 -0.4699
23424SOL    HW171405   5.492   0.981   3.191  0.9825  0.3739  0.0883
23424SOL    HW271406   5.462   1.085   3.086  0.3294  0.2794  0.1750
23425SOL     OW71407   8.360   5.430   6.439  0.3619 -0.5880 -0.1636
23425SOL    HW171408   8.326   5.343   6.460  0.7401 -0.5356  0.7118
23425SOL    HW271409   8.392   5.423   6.350  0.5958 -1.4110 -0.0178
23426SOL     OW71410   0.383   3.883   7.769  0.4349  0.0130  0.1360
23426SOL    HW171411   0.403   3.793   7.744  0.1270  0.1353 -0.5952
23426SOL    HW271412   0.324   3.914   7.700 -0.2109  0.4733  0.8777
23427SOL     OW71413   5.955   6.153   1.600  0.7685 -0.3050 -0.3343
23427SOL    HW171414   6.018   6.092   1.638 -1.0414 -0.5096  2.5916
23427SOL    HW271415   5.988   6.239   1.625  1.7332 -0.1660 -1.9286
23428SOL     OW71416   8.593   0.260   4.038  0.3898  0.2936 -0.3997
23428SOL    HW171417   8.576   0.261   3.944  0.0130  1.6527 -0.3348
23428SOL    HW271418   8.568   0.348   4.068  0.4697 -0.1314  0.9727
23429SOL     OW71419   0.447   2.873   6.033  0.2784 -0.0699  0.5406
23429SOL    HW171420   0.416   2.816   5.963  1.1964  0.2209 -0.1200
23429SOL    HW271421   0.465   2.815   6.107 -0.8673 -0.3561  0.6104
23430SOL     OW71422   3.461   8.908   0.413 -0.0620 -0.1915 -0.1788
23430SOL    HW171423   3.440   8.979   0.351 -2.4060 -0.5393  0.1136
23430SOL    HW271424   3.380   8.896   0.462  1.7232  0.0999  3.0485
23431SOL     OW71425   1.004   6.702   2.346 -0.1694 -0.7406 -0.2780
23431SOL    HW171426   1.035   6.720   2.257 -2.7175  0.2792 -1.0470
23431SOL    HW271427   0.931   6.641   2.335 -1.7247  0.7925  0.8550
23432SOL     OW71428   6.945   7.053   6.821  0.3412  0.0386  0.4943
23432SOL    HW171429   6.911   7.065   6.732  0.1957  0.5116  0.6064
23432SOL    HW271430   7.022   7.111   6.825  1.3304 -1.2031  0.1659
23433SOL     OW71431   7.608   8.314   2.718 -0.2648 -0.8769 -0.2810
23433SOL    HW171432   7.583   8.229   2.754 -0.1400 -0.3057  1.1963
23433SOL    HW271433   7.526   8.362   2.710 -0.1386 -0.5261  0.5158
23434SOL     OW71434   1.315   6.320   1.513 -0.0616  0.1534 -0.4057
23434SOL    HW171435   1.390   6.379   1.515  3.1237 -3.5150  0.9085
23434SOL    HW271436   1.328   6.267   1.434  0.4215 -2.3400  1.2393
23435SOL     OW71437   6.238   5.300   2.022 -0.7802  0.3593 -0.3551
23435SOL    HW171438   6.192   5.241   2.082 -1.6704 -0.8319 -2.1448
23435SOL    HW271439   6.219   5.266   1.935  0.7321  1.8620 -1.3320
23436SOL     OW71440   3.041   2.918   5.757  0.7354 -0.1984  0.0297
23436SOL    HW171441   3.115   2.935   5.698  0.1728 -1.5267 -1.1266
23436SOL    HW271442   2.984   2.994   5.747  1.1749  0.0921 -0.3101
23437SOL     OW71443   2.860   7.223   7.852 -0.5249  0.2557  0.4317
23437SOL    HW171444   2.766   7.212   7.871 -0.9033  1.7909 -0.3668
23437SOL    HW271445   2.900   7.240   7.937 -1.1580  0.6891  0.6535
23438SOL     OW71446   5.193   2.917   7.092  0.4932 -0.5698  0.6979
23438SOL    HW171447   5.262   2.962   7.042 -0.1405 -0.9556 -0.5607
23438SOL    HW271448   5.179   2.835   7.044 -0.4281 -0.7652  1.2903
23439SOL     OW71449   1.005   7.210   7.053 -0.3599 -0.7379  0.3361
23439SOL    HW171450   0.996   7.128   7.005  0.2705  0.0874 -1.2619
23439SOL    HW271451   1.056   7.187   7.130 -0.2254 -1.8532 -0.0592
23440SOL     OW71452   3.180   1.426   8.102  0.2446  0.2465 -0.0268
23440SOL    HW171453   3.113   1.382   8.154  1.6450 -1.4877  0.3920
23440SOL    HW271454   3.165   1.397   8.013 -0.1185  0.5886 -0.0781
23441SOL     OW71455   3.751   1.725   3.837  0.0305  0.8225 -0.6632
23441SOL    HW171456   3.803   1.752   3.913 -1.0693 -0.7493  0.7043
23441SOL    HW271457   3.711   1.806   3.806 -0.1360  1.3979  0.9439
23442SOL     OW71458   2.657   0.232   8.646  0.1610  0.1961  0.1675
23442SOL    HW171459   2.624   0.307   8.598  1.5233  0.3037 -0.6416
23442SOL    HW271460   2.601   0.159   8.618 -1.0245  0.8304  0.7903
23443SOL     OW71461   1.969   8.253   6.499 -0.2561  0.6336  0.6749
23443SOL    HW171462   1.986   8.161   6.517  0.7085  0.8010  0.6855
23443SOL    HW271463   2.012   8.300   6.570  1.1312  1.1734 -0.4714
23444SOL     OW71464   4.587   6.309   6.902  0.0982 -0.2480 -0.7296
23444SOL    HW171465   4.565   6.399   6.876 -0.0657 -0.3272 -0.8687
23444SOL    HW271466   4.675   6.315   6.938 -0.0734  0.0415 -0.3547
23445SOL     OW71467   8.056   4.633   3.056 -0.2021  0.7872 -0.5951
23445SOL    HW171468   8.103   4.703   3.010 -0.1028  0.9028 -0.3176
23445SOL    HW271469   8.079   4.644   3.148 -0.7485  0.8259 -0.4579
23446SOL     OW71470   8.551   1.398   3.856  0.4077 -0.2767 -0.4263
23446SOL    HW171471   8.509   1.376   3.939 -0.2716 -1.2340 -0.9956
23446SOL    HW271472   8.546   1.493   3.850 -1.2955 -0.3362 -0.2649
23447SOL     OW71473   6.334   1.532   6.438 -0.0438 -0.0122 -0.6928
23447SOL    HW171474   6.403   1.577   6.391  1.9733 -1.6381  0.5316
23447SOL    HW271475   6.334   1.443   6.403  0.3808 -0.7925  1.1454
23448SOL     OW71476   4.601   1.266   8.353  0.1745  0.1103 -0.3003
23448SOL    HW171477   4.584   1.271   8.259 -0.3785 -0.6111 -0.2434
23448SOL    HW271478   4.696   1.277   8.361  0.3963 -1.1741 -1.0501
23449SOL     OW71479   5.426   7.679   1.659  0.0728  0.1205  0.2662
23449SOL    HW171480   5.430   7.587   1.634 -1.7184  0.1936 -0.4417
23449SOL    HW271481   5.505   7.718   1.623  1.5441 -1.3765  1.7190
23450SOL     OW71482   4.807   7.792   6.629  0.4278  0.6221  0.2467
23450SOL    HW171483   4.789   7.699   6.641  1.0706  0.5671  0.8389
23450SOL    HW271484   4.820   7.802   6.535  0.0093  0.1790  0.1392
23451SOL     OW71485   0.993   0.154   7.515 -0.1690  0.6856 -0.6410
23451SOL    HW171486   1.041   0.230   7.481  1.0497 -0.0564 -0.6437
23451SOL    HW271487   1.017   0.150   7.608  1.3101 -0.7584 -1.0290
23452SOL     OW71488   7.657   7.327   8.671 -0.3188 -0.3647  0.0365
23452SOL    HW171489   7.585   7.282   8.716 -0.0858  1.0532  1.9605
23452SOL    HW271490   7.690   7.389   8.736  0.0799  1.8069 -2.1072
23453SOL     OW71491   7.023   6.043   1.917  0.4563 -0.4001 -0.1560
23453SOL    HW171492   7.082   6.106   1.958 -1.3415  0.7690  0.7710
23453SOL    HW271493   6.993   5.988   1.989 -1.5801  0.7272 -0.0617
23454SOL     OW71494   7.928   8.920   6.979 -0.5908  0.3601 -0.7636
23454SOL    HW171495   7.937   8.930   6.884  0.5630  2.2663 -0.4953
23454SOL    HW271496   8.017   8.932   7.013 -0.8140 -1.2263  0.5307
23455SOL     OW71497   2.155   8.106   5.431  0.2560  0.4199 -0.4274
23455SOL    HW171498   2.213   8.058   5.371  2.0045  1.7706  0.0858
23455SOL    HW271499   2.214   8.163   5.480 -1.5270  1.7486  0.2661
23456SOL     OW71500   2.268   2.863   9.110 -0.1627  0.2770 -0.0345
23456SOL    HW171501   2.355   2.842   9.076  0.8447  0.3974  2.2892
23456SOL    HW271502   2.257   2.956   9.091  0.7483  0.5483  0.7204
23457SOL     OW71503   7.125   8.452   4.146  0.2311 -0.0559  0.6062
23457SOL    HW171504   7.040   8.414   4.166  0.9755 -1.3789  1.3931
23457SOL    HW271505   7.187   8.400   4.196  1.6695 -0.1465 -1.1657
23458SOL     OW71506   6.194   0.450   4.180  0.4203 -0.4277  0.0226
23458SOL    HW171507   6.218   0.376   4.237  1.8642 -1.6963 -2.1016
23458SOL    HW271508   6.107   0.428   4.147  0.4457 -0.6934  0.1307
23459SOL     OW71509   7.198   5.365   0.299  0.2878 -0.2841  0.2651
23459SOL    HW171510   7.184   5.441   0.243 -1.6828 -0.3697  0.5808
23459SOL    HW271511   7.249   5.305   0.244  0.4022  0.5654 -0.5909
23460SOL     OW71512   0.448   8.854   6.727  0.0637  0.5679 -0.2795
23460SOL    HW171513   0.379   8.880   6.666 -0.5157 -0.5333 -0.1215
23460SOL    HW271514   0.506   8.798   6.674 -0.0059  0.2606 -0.0370
23461SOL     OW71515   7.029   5.363   2.207  0.1010 -0.9792 -0.2147
23461SOL    HW171516   7.091   5.373   2.279  2.2709  1.1028 -2.2057
23461SOL    HW271517   7.070   5.302   2.147 -0.9868 -1.5367 -0.4196
23462SOL     OW71518   7.435   3.938   4.590 -0.0448 -0.6883  0.5239
23462SOL    HW171519   7.445   3.908   4.680  1.0505 -0.8340  0.3740
23462SOL    HW271520   7.524   3.939   4.556 -0.0171  2.2514  0.3717
23463SOL     OW71521   2.942   0.936   4.291 -0.0509 -0.0334  0.3071
23463SOL    HW171522   2.928   0.845   4.265  2.0338 -0.3505  0.0958
23463SOL    HW271523   3.000   0.930   4.367  0.9684  1.1176 -0.3426
23464SOL     OW71524   0.874   2.387   1.804 -0.1185  0.0677  0.0098
23464SOL    HW171525   0.862   2.480   1.790  1.8161  0.4263  0.4369
23464SOL    HW271526   0.831   2.345   1.730  0.4105  1.3821 -1.0800
23465SOL     OW71527   9.028   8.117   4.667  0.2632 -0.3335 -0.1515
23465SOL    HW171528   9.071   8.095   4.750  0.2265 -0.4781 -0.1710
23465SOL    HW271529   8.936   8.098   4.683  0.2112 -0.0662 -0.1248
23466SOL     OW71530   3.162   0.267   4.981 -0.2291  0.7927  0.5737
23466SOL    HW171531   3.107   0.342   4.959 -0.5839  0.4152  0.1588
23466SOL    HW271532   3.133   0.241   5.069 -1.6966 -0.2528 -0.1706
23467SOL     OW71533   5.971   7.907   9.086 -0.4897 -0.2114 -0.0831
23467SOL    HW171534   6.002   7.822   9.116  2.0660  0.8726  0.6231
23467SOL    HW271535   5.962   7.897   8.992 -1.0768 -1.4940  0.0881
23468SOL     OW71536   0.358   5.006   8.756  0.2173 -0.5551  0.5994
23468SOL    HW171537   0.328   5.007   8.847  0.8553  0.1412  0.8168
23468SOL    HW271538   0.413   5.084   8.748  0.5733 -0.8755 -0.2479
23469SOL     OW71539   7.322   1.299   3.417 -0.6346  0.6361  0.3993
23469SOL    HW171540   7.364   1.383   3.399 -1.0298  0.3855 -2.0165
23469SOL    HW271541   7.387   1.248   3.465  0.0531  1.8721  0.8095
23470SOL     OW71542   4.093   8.607   2.606  0.4129  0.1649  0.4970
23470SOL    HW171543   4.115   8.522   2.568  1.5944  1.2626 -1.4482
23470SOL    HW271544   4.031   8.646   2.544 -2.0916 -0.1890  2.6026
23471SOL     OW71545   6.055   5.690   3.378 -0.0181  0.2891  0.3617
23471SOL    HW171546   6.016   5.604   3.394 -0.1387  0.1357 -0.6728
23471SOL    HW271547   5.985   5.740   3.334  0.0767  0.8890  0.8892
23472SOL     OW71548   4.772   7.759   5.519 -0.1780 -0.2623 -0.3538
23472SOL    HW171549   4.792   7.853   5.512  1.1141 -0.2068  2.4833
23472SOL    HW271550   4.858   7.716   5.517 -0.6314 -1.2161  0.0595
23473SOL     OW71551   4.279   0.975   8.388  0.2395 -0.0337 -0.0308
23473SOL    HW171552   4.293   1.041   8.320  1.4197 -1.2235 -1.0020
23473SOL    HW271553   4.360   0.975   8.439 -0.6658  0.9117  1.5116
23474SOL     OW71554   1.122   7.976   0.550 -0.3047  0.3382  0.3561
23474SOL    HW171555   1.183   8.048   0.568  0.8641 -0.3476 -0.7199
23474SOL    HW271556   1.064   8.012   0.483 -0.0853  0.4745  0.2347
23475SOL     OW71557   3.704   1.552   7.345  0.5612  0.3276 -0.0898
23475SOL    HW171558   3.730   1.475   7.294  0.9324 -0.3933  1.1440
23475SOL    HW271559   3.633   1.592   7.294  0.3380 -0.8520 -0.7324
23476SOL     OW71560   2.791   0.954   1.247 -0.0823  0.8477  0.1156
23476SOL    HW171561   2.879   0.962   1.210  0.3135 -0.6308  0.6593
23476SOL    HW271562   2.790   0.867   1.287 -1.9272  0.6905 -0.2101
23477SOL     OW71563   7.622   0.762   4.024 -0.4683 -0.1823 -0.5439
23477SOL    HW171564   7.641   0.715   4.105 -0.2703  1.6953  0.5461
23477SOL    HW271565   7.553   0.825   4.047  0.7743  1.5718 -1.3517
23478SOL     OW71566   2.379   0.562   7.173  0.1983  0.0025  0.2157
23478SOL    HW171567   2.315   0.495   7.151  0.2963  0.5699 -2.1197
23478SOL    HW271568   2.346   0.603   7.252 -1.9725 -0.1946 -0.5418
23479SOL     OW71569   6.972   7.331   1.411  0.1275 -0.0793 -0.1125
23479SOL    HW171570   6.887   7.372   1.396  0.0994  0.5903  1.6257
23479SOL    HW271571   6.965   7.295   1.500  1.0837 -1.5353 -0.5886
23480SOL     OW71572   5.295   8.674   4.749 -0.2287 -0.2689  0.2542
23480SOL    HW171573   5.217   8.619   4.744  0.0907 -0.6724 -0.3493
23480SOL    HW271574   5.301   8.697   4.842 -1.6433  0.6253  0.1605
23481SOL     OW71575   7.638   6.987   3.347 -0.3079  0.2172  0.4182
23481SOL    HW171576   7.681   6.981   3.433 -0.3499 -0.7988  0.3866
23481SOL    HW271577   7.710   6.985   3.284 -0.3051  0.3563  0.4180
23482SOL     OW71578   0.953   3.728   2.631  0.4894 -0.2475 -0.2569
23482SOL    HW171579   0.903   3.648   2.640  1.9892 -1.4480 -1.8950
23482SOL    HW271580   0.942   3.753   2.539  0.5008  1.1238  0.0896
23483SOL     OW71581   0.123   3.760   4.326  0.2163  0.2610  0.5822
23483SOL    HW171582   0.148   3.718   4.408 -1.0381  0.4522  1.0818
23483SOL    HW271583   0.151   3.698   4.258  3.0147  0.9516  0.9835
23484SOL     OW71584   3.996   1.664   4.354 -0.4025  0.1549  0.0582
23484SOL    HW171585   4.032   1.752   4.346  0.5142  0.0024  1.8817
23484SOL    HW271586   4.060   1.617   4.409 -1.8310 -1.0602  0.7632
23485SOL     OW71587   0.320   3.797   8.060 -0.4877  0.2640 -0.2118
23485SOL    HW171588   0.345   3.876   8.108  0.6380 -0.4159  0.3460
23485SOL    HW271589   0.360   3.807   7.974  2.0580 -0.9033  0.7265
23486SOL     OW71590   2.802   7.463   7.736  0.2336  0.2231 -0.2861
23486SOL    HW171591   2.821   7.388   7.792 -0.3489 -0.9499 -1.5772
23486SOL    HW271592   2.863   7.531   7.763  1.2885 -0.9835  0.4290
23487SOL     OW71593   7.970   5.954   6.200 -0.6424 -0.1422  0.0713
23487SOL    HW171594   7.943   5.997   6.119  1.0838 -0.7932 -0.9234
23487SOL    HW271595   8.009   5.871   6.171  0.9709  0.0758  1.4515
23488SOL     OW71596   4.062   5.234   2.990  0.1103 -0.7370  0.1524
23488SOL    HW171597   3.994   5.167   2.992 -0.2874 -0.3991 -1.0253
23488SOL    HW271598   4.088   5.239   2.898  0.7969  0.0686  0.3744
23489SOL     OW71599   3.317   4.387   5.195 -0.1355 -0.1442 -0.3466
23489SOL    HW171600   3.336   4.296   5.174  1.7192 -0.3875  1.9769
23489SOL    HW271601   3.351   4.436   5.120  0.4778 -1.2614 -0.8292
23490SOL     OW71602   1.748   3.479   8.984 -0.2288  0.0069  0.1692
23490SOL    HW171603   1.692   3.489   8.907 -0.6212  1.3201  0.6005
23490SOL    HW271604   1.837   3.478   8.949 -0.4315 -0.0783 -0.3528
23491SOL     OW71605   5.571   2.640   8.480  0.3212 -0.1892 -1.5075
23491SOL    HW171606   5.490   2.597   8.508  0.1633  1.6284  1.3515
23491SOL    HW271607   5.639   2.575   8.494 -0.2690 -0.6031 -0.3916
23492SOL     OW71608   3.152   7.402   7.615 -0.3842 -1.2837 -0.1597
23492SOL    HW171609   3.238   7.433   7.643 -0.8870  1.0752 -0.9866
23492SOL    HW271610   3.090   7.454   7.665 -1.2950 -1.0700 -1.4474
23493SOL     OW71611   5.110   1.348   1.022 -0.4757 -0.4512 -0.0126
23493SOL    HW171612   5.057   1.293   1.079 -0.3743 -1.5170 -0.8952
23493SOL    HW271613   5.110   1.301   0.938 -2.4176  2.0937 -1.5884
23494SOL     OW71614   0.460   8.845   7.477  0.5777  0.1927 -0.0167
23494SOL    HW171615   0.532   8.861   7.416  1.0367 -0.3996  0.3595
23494SOL    HW271616   0.448   8.929   7.522  0.0419  0.7187 -1.0981
23495SOL     OW71617   1.373   1.903   1.864  0.7163  0.1859 -0.8838
23495SOL    HW171618   1.457   1.939   1.892  0.3621  0.5488 -0.2692
23495SOL    HW271619   1.314   1.921   1.936  0.3687 -1.0626 -0.8394
23496SOL     OW71620   3.530   6.631   0.118 -0.1550  0.1081  0.1441
23496SOL    HW171621   3.453   6.632   0.061 -1.0672  1.0134  1.3331
23496SOL    HW271622   3.517   6.706   0.177  0.6599 -0.8692  1.6297
23497SOL     OW71623   3.155   3.295   0.898  0.0046  0.5018 -0.0560
23497SOL    HW171624   3.191   3.217   0.855 -1.1103  0.9324 -1.8884
23497SOL    HW271625   3.181   3.286   0.990  0.8440 -1.4519 -0.4303
23498SOL     OW71626   4.002   5.217   6.130  0.0642 -0.2762  0.0883
23498SOL    HW171627   4.044   5.297   6.162 -0.3305  1.1184 -2.5936
23498SOL    HW271628   3.976   5.169   6.209  2.0703  1.2731  1.7844
23499SOL     OW71629   7.207   5.418   8.473 -0.5161  0.1408 -0.2695
23499SOL    HW171630   7.157   5.423   8.555  0.3037 -0.0106  0.2449
23499SOL    HW271631   7.170   5.342   8.427  1.2312 -1.8527  1.4720
23500SOL     OW71632   8.478   2.588   0.793  0.0047  0.1206  0.5682
23500SOL    HW171633   8.529   2.558   0.718  0.2932  0.3664  0.6676
23500SOL    HW271634   8.529   2.562   0.869 -0.0445  0.3228  0.6701
23501SOL     OW71635   1.204   1.534   4.975  0.1943 -0.1071  0.4103
23501SOL    HW171636   1.221   1.440   4.983 -1.1894 -0.3311  0.9089
23501SOL    HW271637   1.151   1.555   5.052 -0.8823  0.7465 -0.5425
23502SOL     OW71638   1.574   7.825   3.470 -0.4347  0.0067 -0.0158
23502SOL    HW171639   1.508   7.895   3.474 -1.8243 -1.2835  1.0160
23502SOL    HW271640   1.533   7.757   3.417 -0.0441 -0.9291  0.8625
23503SOL     OW71641   3.971   7.960   4.122 -0.1710  0.0752  0.2283
23503SOL    HW171642   3.928   8.044   4.108 -1.8123 -0.5218  1.3078
23503SOL    HW271643   4.063   7.981   4.137 -0.5884  1.6908  0.6450
23504SOL     OW71644   1.945   1.653   5.553 -0.0966 -0.2620  0.0202
23504SOL    HW171645   1.910   1.708   5.482  0.0003  0.9918  0.9103
23504SOL    HW271646   2.040   1.657   5.542 -0.0309  0.9200  0.9175
23505SOL     OW71647   3.802   1.058   7.738 -0.3996  0.0981 -0.0742
23505SOL    HW171648   3.716   1.070   7.777 -0.1069 -0.2878  0.7222
23505SOL    HW271649   3.817   0.964   7.739 -0.0029  0.1539 -0.2767
23506SOL     OW71650   8.457   5.268   1.821  0.3766 -0.0758 -0.2592
23506SOL    HW171651   8.487   5.188   1.864 -0.2837 -1.2567 -1.8897
23506SOL    HW271652   8.374   5.290   1.865 -0.1762 -1.1304 -0.7533
23507SOL     OW71653   6.142   3.686   1.365 -0.0473  0.9790  0.2656
23507SOL    HW171654   6.234   3.705   1.381  0.4443 -0.8897 -0.1363
23507SOL    HW271655   6.098   3.706   1.447  1.2074 -0.9464  1.4845
23508SOL     OW71656   6.475   1.480   0.274 -0.0819 -0.1816  0.1427
23508SOL    HW171657   6.517   1.395   0.286 -1.0672 -1.0203 -1.8697
23508SOL    HW271658   6.383   1.459   0.260 -0.8144  1.4353  2.0554
23509SOL     OW71659   8.471   7.856   7.674  0.2986  0.3376 -0.1352
23509SOL    HW171660   8.416   7.790   7.630 -0.8843 -0.7043  2.6410
23509SOL    HW271661   8.419   7.937   7.669 -0.5461 -0.1384  0.6301
23510SOL     OW71662   6.944   5.036   1.796 -0.0271  0.3861 -0.0916
23510SOL    HW171663   6.873   4.989   1.753  1.2358 -1.6571 -0.0436
23510SOL    HW271664   6.908   5.123   1.813 -1.6405  0.2353 -2.3492
23511SOL     OW71665   1.620   3.142   8.774 -0.5022 -0.1167  0.3079
23511SOL    HW171666   1.576   3.067   8.735  1.0154  0.4746 -2.9438
23511SOL    HW271667   1.553   3.211   8.777 -0.8951 -0.4497 -0.5269
23512SOL     OW71668   3.162   3.625   0.992  0.4772  0.1292 -0.3059
23512SOL    HW171669   3.116   3.578   0.922  0.4947 -0.9135  0.3640
23512SOL    HW271670   3.254   3.621   0.967  0.2486  2.9378 -2.0845
23513SOL     OW71671   5.687   1.874   7.143  0.2802  0.4758 -0.6460
23513SOL    HW171672   5.669   1.873   7.237  0.4678 -1.2682 -0.5983
23513SOL    HW271673   5.663   1.962   7.114 -1.1709  0.5680  0.7606
23514SOL     OW71674   3.883   6.939   4.657  0.1094 -0.0391  0.0226
23514SOL    HW171675   3.805   6.896   4.623  0.7638 -1.8654  0.7328
23514SOL    HW271676   3.859   6.968   4.745 -0.7964  2.4662 -0.9752
23515SOL     OW71677   8.551   3.967   1.666 -0.6747 -0.1253  0.6368
23515SOL    HW171678   8.575   3.875   1.666 -0.2529 -0.0356  2.2893
23515SOL    HW271679   8.633   4.014   1.652 -0.4441  0.0495  2.3383
23516SOL     OW71680   3.512   0.832   8.281 -0.1133 -0.0435 -0.0400
23516SOL    HW171681   3.476   0.815   8.194  0.2078 -0.4566 -0.0935
23516SOL    HW271682   3.596   0.875   8.265 -0.3769  0.5226  0.0786
23517SOL     OW71683   2.093   2.767   5.368 -0.2631  0.1768 -0.1014
23517SOL    HW171684   2.109   2.860   5.355 -0.0601  0.3171  1.0561
23517SOL    HW271685   2.069   2.759   5.461 -1.2317 -0.7975 -0.4090
23518SOL     OW71686   7.516   6.324   6.778  0.0934  0.2502 -0.3027
23518SOL    HW171687   7.431   6.334   6.821 -0.0666  0.4891 -0.6648
23518SOL    HW271688   7.531   6.229   6.775  0.2429  0.2364  0.5264
23519SOL     OW71689   4.904   4.446   6.276 -0.1314 -0.3042  0.0740
23519SOL    HW171690   4.831   4.430   6.336  0.2125 -1.7805  0.1211
23519SOL    HW271691   4.898   4.376   6.212  0.1740  0.6235 -0.9886
23520SOL     OW71692   3.130   0.607   7.781  0.0455 -0.0007 -0.1520
23520SOL    HW171693   3.195   0.595   7.850  0.2894 -0.4293 -0.4503
23520SOL    HW271694   3.068   0.536   7.794  1.1380 -1.2888 -1.5269
23521SOL     OW71695   1.045   7.182   0.694 -0.0010 -0.0882  0.1730
23521SOL    HW171696   1.135   7.170   0.661 -0.8412 -0.5872 -2.1166
23521SOL    HW271697   0.990   7.179   0.615 -2.2508 -1.9414  1.7050
23522SOL     OW71698   5.908   2.675   0.654  0.5878  0.0762  0.6282
23522SOL    HW171699   5.903   2.594   0.705 -1.7372 -0.5035 -0.3745
23522SOL    HW271700   5.881   2.650   0.566 -2.0921  2.1776  0.7036
23523SOL     OW71701   3.784   8.035   2.199 -0.5113  0.5935  0.7198
23523SOL    HW171702   3.856   8.092   2.173 -0.1107  0.7585  2.0772
23523SOL    HW271703   3.757   8.069   2.285 -0.4077 -1.0964  1.4665
23524SOL     OW71704   8.714   5.240   8.004  0.0369 -0.1435  0.2336
23524SOL    HW171705   8.671   5.200   7.928  0.5725  1.7678 -1.1833
23524SOL    HW271706   8.764   5.170   8.044  0.5541 -1.0260 -1.8239
23525SOL     OW71707   1.723   6.571   4.339 -0.0245  0.2213  0.1881
23525SOL    HW171708   1.800   6.583   4.284  0.1265  1.1113  0.5811
23525SOL    HW271709   1.659   6.528   4.283 -0.0065  1.4412 -0.7993
23526SOL     OW71710   2.547   8.634   2.413 -0.0150 -0.0797 -0.0200
23526SOL    HW171711   2.580   8.714   2.453 -1.0620  0.3060  0.0837
23526SOL    HW271712   2.573   8.565   2.474  1.1793  0.1237 -0.2697
23527SOL     OW71713   3.235   8.319   6.402  0.3277 -0.3379  0.5232
23527SOL    HW171714   3.313   8.328   6.456 -0.2673  0.2324  1.3158
23527SOL    HW271715   3.168   8.368   6.449 -0.1229  0.4842 -0.9132
23528SOL     OW71716   1.219   7.299   1.306 -0.0561  0.3012  0.1474
23528SOL    HW171717   1.132   7.290   1.345 -0.4600  0.0717 -0.8008
23528SOL    HW271718   1.226   7.227   1.245  1.5232 -0.7683  1.5045
23529SOL     OW71719   9.081   7.416   8.381  0.1486  0.0381  0.2140
23529SOL    HW171720   9.171   7.390   8.402  0.3474  1.8429  2.0107
23529SOL    HW271721   9.091   7.498   8.333 -0.5036  1.2637  2.0692
23530SOL     OW71722   7.831   5.614   3.649 -0.0251 -0.6523 -0.0508
23530SOL    HW171723   7.862   5.604   3.559 -1.1327  0.9377 -0.6571
23530SOL    HW271724   7.883   5.685   3.685 -0.6281 -0.2603  0.0545
23531SOL     OW71725   8.409   0.496   6.359 -0.4821  0.3514 -0.6980
23531SOL    HW171726   8.428   0.480   6.451  2.5069 -0.5055 -1.3453
23531SOL    HW271727   8.469   0.566   6.333  0.8825 -1.3683 -2.5869
23532SOL     OW71728   6.190   0.873   7.655 -0.1778 -0.0069  0.1524
23532SOL    HW171729   6.202   0.852   7.563 -1.5639 -2.9015  0.4997
23532SOL    HW271730   6.114   0.930   7.658  0.5519  1.0202 -0.5440
23533SOL     OW71731   0.666   1.567   0.175  0.3145 -0.4061  0.1534
23533SOL    HW171732   0.669   1.477   0.142  0.7716 -0.5991  0.7032
23533SOL    HW271733   0.684   1.621   0.098  1.4544 -0.8539  0.0795
23534SOL     OW71734   4.409   8.141   3.467  0.1808 -0.1126  0.0834
23534SOL    HW171735   4.390   8.203   3.397  1.2684 -1.0860 -1.1173
23534SOL    HW271736   4.360   8.062   3.444  1.1975 -0.7225 -0.0504
23535SOL     OW71737   7.765   0.691   0.752 -0.2192 -0.2535  0.2239
23535SOL    HW171738   7.817   0.666   0.828  0.8077  0.4842 -0.2228
23535SOL    HW271739   7.826   0.687   0.679 -0.2108  2.5664 -0.0244
23536SOL     OW71740   1.986   7.686   1.080  0.0514  0.0083 -0.2037
23536SOL    HW171741   1.953   7.730   1.002 -0.8983 -1.1159 -0.4750
23536SOL    HW271742   2.015   7.601   1.049  0.0347 -0.2988  0.6003
23537SOL     OW71743   7.743   1.299   1.076 -0.1169 -0.7857  0.0558
23537SOL    HW171744   7.747   1.376   1.132  2.0474 -0.9354  0.1630
23537SOL    HW271745   7.756   1.225   1.135  0.1092 -1.0825 -0.3560
23538SOL     OW71746   2.241   6.437   5.492 -0.1342 -0.0100 -0.2969
23538SOL    HW171747   2.187   6.359   5.506  2.7115 -2.3538 -1.4658
23538SOL    HW271748   2.200   6.480   5.416 -1.5472 -0.5053  0.1465
23539SOL     OW71749   2.013   5.710   3.786  0.2441  0.2936 -0.0694
23539SOL    HW171750   2.016   5.614   3.788  0.5543  0.3141  1.1459
23539SOL    HW271751   1.925   5.731   3.818  0.6569  0.4258  1.0185
23540SOL     OW71752   7.392   3.015   7.467  0.1026  0.1918 -0.2805
23540SOL    HW171753   7.445   3.070   7.526  0.5752  2.0297 -2.3031
23540SOL    HW271754   7.440   3.016   7.384 -2.2879  0.6002 -1.7370
23541SOL     OW71755   6.786   4.391   6.073  0.1419  0.6929  0.0534
23541SOL    HW171756   6.813   4.318   6.129 -0.1783  0.5992  0.0894
23541SOL    HW271757   6.824   4.370   5.987  1.5620  1.3883  0.4777
23542SOL     OW71758   2.580   0.351   0.950  0.4112 -0.5248 -0.9244
23542SOL    HW171759   2.492   0.368   0.917  0.2347 -0.2968 -0.3549
23542SOL    HW271760   2.611   0.436   0.982  0.5785 -0.7271 -0.5275
23543SOL     OW71761   3.485   6.594   1.019 -0.1536 -0.3827  0.4409
23543SOL    HW171762   3.497   6.560   1.107 -0.0445 -0.9044  0.2320
23543SOL    HW271763   3.405   6.553   0.988  0.7953 -1.7181 -0.3804
23544SOL     OW71764   8.076   7.069   0.881 -0.1558 -0.1887  0.1263
23544SOL    HW171765   8.111   7.157   0.869  1.0605 -0.5733  0.7037
23544SOL    HW271766   8.103   7.044   0.969 -1.8576 -0.5462  0.5927
23545SOL     OW71767   3.355   4.052   1.690  0.0608 -0.1553  0.5055
23545SOL    HW171768   3.309   4.017   1.766  0.0373 -0.9485  0.1348
23545SOL    HW271769   3.371   3.976   1.634  1.1514  0.2208  0.2727
23546SOL     OW71770   0.230   4.619   6.908 -0.0695  0.0802  0.0109
23546SOL    HW171771   0.291   4.628   6.835  0.1150 -1.2318 -0.0224
23546SOL    HW271772   0.228   4.706   6.949  0.4029  0.6269 -1.0882
23547SOL     OW71773   4.453   2.477   4.036 -0.3078 -0.2818  0.2628
23547SOL    HW171774   4.522   2.508   4.096 -0.9969  1.8445  0.0367
23547SOL    HW271775   4.372   2.496   4.082 -0.8525  1.3572 -1.2814
23548SOL     OW71776   7.317   6.972   1.639 -0.2699 -0.4418 -0.2382
23548SOL    HW171777   7.323   7.018   1.555 -0.6158  0.4336  0.2069
23548SOL    HW271778   7.329   6.879   1.616  2.3471 -0.0168 -0.9272
23549SOL     OW71779   7.998   2.073   6.050 -0.3252 -0.1144 -0.4588
23549SOL    HW171780   7.939   2.117   6.111  0.6251  1.0871 -0.3493
23549SOL    HW271781   8.062   2.029   6.106 -0.5095 -0.5300 -0.5768
23550SOL     OW71782   1.262   5.740   5.066  0.2061  0.1722 -0.3003
23550SOL    HW171783   1.212   5.789   5.131  0.9493  3.2521 -1.8838
23550SOL    HW271784   1.217   5.757   4.983  0.7055 -1.6372 -1.0009
23551SOL     OW71785   1.245   2.150   3.897  0.2350 -0.0642 -0.6327
23551SOL    HW171786   1.340   2.164   3.907  0.1548 -1.0495  2.6528
23551SOL    HW271787   1.237   2.057   3.877 -0.0596 -0.1364 -0.1829
23552SOL     OW71788   8.618   1.143   5.118 -0.4411  0.0836 -0.4465
23552SOL    HW171789   8.688   1.149   5.184  0.2935  1.7864 -1.3114
23552SOL    HW271790   8.653   1.083   5.052  0.0577  0.6094 -0.6740
23553SOL     OW71791   0.042   1.270   3.725  0.4005 -0.5863 -0.1259
23553SOL    HW171792  -0.008   1.220   3.661 -1.3973  1.3888 -0.3758
23553SOL    HW271793  -0.025   1.304   3.785  1.5874  1.0279  0.3338
23554SOL     OW71794   9.038   2.296   4.790 -0.0420  0.3705 -0.0887
23554SOL    HW171795   9.006   2.311   4.701 -0.2280 -0.9809 -0.2722
23554SOL    HW271796   9.046   2.201   4.797  1.8273  0.5566  0.6997
23555SOL     OW71797   8.647   0.648   5.449 -0.3743  0.0094 -0.5543
23555SOL    HW171798   8.580   0.638   5.516  0.8111  0.7874  0.8149
23555SOL    HW271799   8.714   0.702   5.490  1.1929 -0.9024 -1.7922
23556SOL     OW71800   7.158   0.338   1.096  0.0939  0.3194  0.5690
23556SOL    HW171801   7.072   0.333   1.055 -1.0473  1.4934  2.6440
23556SOL    HW271802   7.219   0.350   1.023 -1.2612 -1.9759 -1.0913
23557SOL     OW71803   4.258   2.521   5.082  0.5079 -0.0217 -0.3744
23557SOL    HW171804   4.352   2.541   5.089  0.0827  1.5662  1.3798
23557SOL    HW271805   4.225   2.528   5.172 -1.4673  0.3092 -1.0802
23558SOL     OW71806   7.346   6.461   4.077  0.1576  0.6897 -0.0673
23558SOL    HW171807   7.349   6.464   4.173 -1.3456 -1.8054  0.1491
23558SOL    HW271808   7.274   6.401   4.057  0.7921  0.7000 -2.7548
23559SOL     OW71809   5.638   1.527   5.117 -0.4559  0.4292  0.5070
23559SOL    HW171810   5.689   1.503   5.041 -0.3618 -1.9618  1.2304
23559SOL    HW271811   5.629   1.622   5.112 -1.4380  0.2876 -3.0759
23560SOL     OW71812   0.892   6.687   3.394 -0.3430  0.7492  0.1621
23560SOL    HW171813   0.912   6.610   3.340  2.0490  2.9472 -2.3812
23560SOL    HW271814   0.948   6.678   3.470  1.6987  1.0004 -1.2315
23561SOL     OW71815   7.333   1.801   1.994 -0.2824 -0.3363 -0.6358
23561SOL    HW171816   7.409   1.850   2.027 -0.3280 -1.3193  1.0360
23561SOL    HW271817   7.355   1.783   1.902  1.5470 -0.6040 -0.1969
23562SOL     OW71818   6.144   3.329   8.826  0.5521  0.4413  0.8098
23562SOL    HW171819   6.136   3.424   8.825 -0.8792  0.3439  1.0406
23562SOL    HW271820   6.073   3.300   8.883 -0.7695 -0.9249 -1.4372
23563SOL     OW71821   3.673   0.446   6.287 -0.0144  0.4515 -0.6652
23563SOL    HW171822   3.758   0.484   6.267  1.1304 -1.9410 -0.7054
23563SOL    HW271823   3.656   0.472   6.377  0.2785  1.7425 -0.9600
23564SOL     OW71824   0.064   7.454   8.745  0.1841  0.5845 -0.0719
23564SOL    HW171825   0.077   7.545   8.716  0.9009  0.6203  0.3536
23564SOL    HW271826   0.144   7.409   8.720 -0.7257 -0.2986 -1.5925
23565SOL     OW71827   7.708   6.552   1.294 -0.3036  0.4379  0.9204
23565SOL    HW171828   7.682   6.467   1.259 -2.0340  0.8605  1.0619
23565SOL    HW271829   7.791   6.536   1.340 -0.0328 -0.9201 -0.0100
23566SOL     OW71830   3.306   4.104   7.292 -0.1593  0.6245  0.4441
23566SOL    HW171831   3.260   4.129   7.212 -0.5265  0.1858  0.5203
23566SOL    HW271832   3.266   4.158   7.360 -0.0981  0.7277  0.4002
23567SOL     OW71833   8.645   8.088   6.201  0.1925  0.7704 -0.4931
23567SOL    HW171834   8.658   8.010   6.147  0.6954  0.6267 -0.1760
23567SOL    HW271835   8.552   8.110   6.191  0.2350  0.6243 -1.2452
23568SOL     OW71836   8.747   6.481   1.505 -0.3163  0.3152  0.4879
23568SOL    HW171837   8.808   6.420   1.463 -1.7684 -1.4313  0.8331
23568SOL    HW271838   8.691   6.512   1.434 -0.7019 -0.1287  0.5955
23569SOL     OW71839   5.249   4.128   4.292  0.0092 -0.2132  0.1112
23569SOL    HW171840   5.171   4.156   4.246 -0.1698 -1.6032 -0.4944
23569SOL    HW271841   5.314   4.196   4.275 -1.1401  1.1301  0.9080
23570SOL     OW71842   3.697   2.783   6.973  0.4359 -0.7637  0.3172
23570SOL    HW171843   3.640   2.849   7.012 -0.2053 -1.0561 -0.1067
23570SOL    HW271844   3.770   2.775   7.034 -0.1531 -0.6371  1.0535
23571SOL     OW71845   3.659   3.638   5.147  0.4717 -0.0028  0.7594
23571SOL    HW171846   3.683   3.706   5.210 -0.1384  0.5581  0.4029
23571SOL    HW271847   3.637   3.686   5.067  0.6315 -0.6626  0.3128
23572SOL     OW71848   1.194   5.086   5.636  0.3303  0.3318  0.2911
23572SOL    HW171849   1.209   5.000   5.674  0.7408  0.2277 -0.1047
23572SOL    HW271850   1.234   5.147   5.697 -2.2462  0.4869  1.9795
23573SOL     OW71851   2.642   7.299   4.232 -0.5044  0.0913 -0.1165
23573SOL    HW171852   2.630   7.277   4.325  0.2631  0.2823  0.0361
23573SOL    HW271853   2.703   7.373   4.233 -0.5649  0.1547 -0.7717
23574SOL     OW71854   7.157   2.610   2.757 -0.0757  0.3235 -0.8361
23574SOL    HW171855   7.102   2.584   2.831  2.8829 -3.1227  0.4640
23574SOL    HW271856   7.111   2.577   2.680 -0.8455 -0.5975 -0.0061
23575SOL     OW71857   3.957   2.729   5.855 -0.0306 -0.3062 -0.4918
23575SOL    HW171858   4.041   2.769   5.835  1.2513 -1.3747  2.1905
23575SOL    HW271859   3.919   2.707   5.770  2.6552 -0.2661 -1.7811
23576SOL     OW71860   5.242   8.897   3.522 -0.1125 -0.3996  0.6970
23576SOL    HW171861   5.213   8.809   3.548 -1.3099 -0.9987 -2.2966
23576SOL    HW271862   5.336   8.889   3.511 -0.3029 -1.5925 -0.3424
23577SOL     OW71863   6.409   1.040   4.527  0.8285  0.1293  0.0378
23577SOL    HW171864   6.464   0.984   4.582 -0.7671 -1.1941  0.3734
23577SOL    HW271865   6.355   0.979   4.477 -1.2302  1.3364  0.6681
23578SOL     OW71866   4.769   6.058   0.868  0.4584 -0.1129 -0.2115
23578SOL    HW171867   4.782   6.109   0.788  1.2342  2.8351  1.6298
23578SOL    HW271868   4.690   6.094   0.907  0.9730 -0.3767  1.1206
23579SOL     OW71869   4.485   1.596   3.890  0.5450 -0.4519  0.2757
23579SOL    HW171870   4.574   1.559   3.882  1.3698  1.5306 -0.1916
23579SOL    HW271871   4.498   1.690   3.893 -1.5416 -0.1316  0.7735
23580SOL     OW71872   2.860   3.657   4.529 -0.0420  0.3230 -0.0673
23580SOL    HW171873   2.782   3.693   4.485  0.6928  1.0218 -0.8271
23580SOL    HW271874   2.870   3.570   4.490  0.0367  0.5567 -0.5821
23581SOL     OW71875   2.022   2.804   4.305  0.1024  0.2143  0.1896
23581SOL    HW171876   2.046   2.712   4.295  0.1580 -0.0042  2.0030
23581SOL    HW271877   2.058   2.847   4.227  0.3124 -1.2357 -0.5508
23582SOL     OW71878   4.337   1.346   5.983  0.0825 -0.6309  0.3900
23582SOL    HW171879   4.404   1.402   5.944  0.2929 -0.0249  1.5588
23582SOL    HW271880   4.384   1.266   6.007 -0.2564 -1.4303 -1.4494
23583SOL     OW71881   3.431   2.073   0.194  0.1419 -0.1921 -0.3723
23583SOL    HW171882   3.403   2.156   0.157  1.7331 -0.1986 -1.6833
23583SOL    HW271883   3.482   2.097   0.272  0.3131  0.0381 -0.5562
23584SOL     OW71884   4.550   7.540   2.163 -0.1472  0.4846  0.2847
23584SOL    HW171885   4.492   7.473   2.200  0.6186  0.7265  2.0026
23584SOL    HW271886   4.501   7.622   2.174 -0.5120  0.3941 -0.5764
23585SOL     OW71887   0.756   5.047   3.993  0.0402  0.3575  0.6271
23585SOL    HW171888   0.789   5.108   3.926  0.7893 -0.7637 -0.0463
23585SOL    HW271889   0.763   4.961   3.953 -1.2593 -0.1728  1.4772
23586SOL     OW71890   6.396   5.283   3.815  1.0447  0.3217 -0.0401
23586SOL    HW171891   6.329   5.216   3.824  0.2922  1.3017  2.6824
23586SOL    HW271892   6.477   5.234   3.801  0.0675 -0.9505 -1.6187
23587SOL     OW71893   8.626   0.728   9.049  0.0219  0.4195 -0.3695
23587SOL    HW171894   8.669   0.781   8.982 -2.0297  1.2242 -1.1678
23587SOL    HW271895   8.534   0.757   9.047 -1.2475 -3.0958 -0.7732
23588SOL     OW71896   3.282   8.720   4.645 -0.3586  0.2740  0.2191
23588SOL    HW171897   3.271   8.630   4.613 -1.8648  0.1290  1.0663
23588SOL    HW271898   3.335   8.711   4.723  0.2289  0.2259 -0.1791
23589SOL     OW71899   3.727   5.438   8.389 -0.0558 -0.6197 -0.0868
23589SOL    HW171900   3.761   5.360   8.433 -0.3568 -0.9289 -0.3874
23589SOL    HW271901   3.632   5.423   8.384 -0.0645 -0.4344 -0.5282
23590SOL     OW71902   1.163   2.147   8.578  0.1442  0.0822 -0.0935
23590SOL    HW171903   1.216   2.100   8.513  2.0037  0.5985  0.9855
23590SOL    HW271904   1.157   2.086   8.652  1.1291  0.8277  0.6402
23591SOL     OW71905   4.757   8.923   0.151  0.0855 -0.6986 -0.9327
23591SOL    HW171906   4.711   8.862   0.209  0.4788 -0.3826 -0.2689
23591SOL    HW271907   4.709   8.918   0.069 -1.4717  0.0139 -0.1170
23592SOL     OW71908   6.003   0.176   7.678  0.1365 -0.0039  0.5919
23592SOL    HW171909   6.077   0.194   7.736  0.7920  1.8903 -0.7386
23592SOL    HW271910   5.935   0.237   7.706 -0.0803 -0.1140  0.3091
23593SOL     OW71911   4.301   1.566   5.709  0.1628 -0.0490  0.2263
23593SOL    HW171912   4.265   1.599   5.627  0.1118 -2.4290 -0.7786
23593SOL    HW271913   4.249   1.488   5.728  1.6555 -0.8259  1.3132
23594SOL     OW71914   1.046   1.102   7.047  0.3561 -0.3923  0.0926
23594SOL    HW171915   1.035   1.158   6.970  0.3002 -0.6957 -0.1247
23594SOL    HW271916   0.957   1.086   7.078  0.1596 -2.2857 -1.2567
23595SOL     OW71917   2.219   2.080   3.818  0.4669 -0.0483  0.0541
23595SOL    HW171918   2.196   2.120   3.735  0.8267 -1.1460 -0.5886
23595SOL    HW271919   2.292   2.133   3.851  1.2330 -0.4243 -0.9967
23596SOL     OW71920   7.507   4.484   6.646  0.8775 -0.4950  0.4574
23596SOL    HW171921   7.566   4.425   6.599 -1.1441 -2.1529 -0.1239
23596SOL    HW271922   7.488   4.554   6.584  2.7497  0.5096  0.9153
23597SOL     OW71923   1.917   2.293   6.990 -0.2352  0.0240  0.3039
23597SOL    HW171924   1.855   2.221   7.002 -0.4268  0.0952 -0.2394
23597SOL    HW271925   1.933   2.296   6.896  1.9351 -1.1018  0.5677
23598SOL     OW71926   2.846   2.057   6.681  0.1734  0.3261 -0.4006
23598SOL    HW171927   2.819   2.120   6.747 -2.6790 -0.4733 -0.6668
23598SOL    HW271928   2.899   2.108   6.619  0.1190  1.8251  0.7299
23599SOL     OW71929   6.921   5.331   1.796 -0.5526  0.1652  0.3983
23599SOL    HW171930   6.902   5.413   1.752  1.1860  0.5961  0.3998
23599SOL    HW271931   6.868   5.334   1.876 -3.4570 -0.4691 -1.3646
23600SOL     OW71932   0.839   4.151   3.945  0.1067  0.2487  0.2526
23600SOL    HW171933   0.904   4.164   4.015  0.5126 -1.3571  0.2205
23600SOL    HW271934   0.784   4.079   3.977  0.3337 -0.5523 -1.0893
23601SOL     OW71935   7.801   7.855   0.572  0.2959  0.6630 -0.6745
23601SOL    HW171936   7.734   7.915   0.539  1.1115  0.5496 -2.7052
23601SOL    HW271937   7.882   7.905   0.564  0.7947 -0.1812 -0.9929
23602SOL     OW71938   3.583   8.053   5.536  0.5612 -0.5331 -0.3714
23602SOL    HW171939   3.524   7.978   5.538 -0.4756  0.2351  2.1211
23602SOL    HW271940   3.535   8.119   5.484 -0.8895  0.0747  1.6017
23603SOL     OW71941   1.467   1.728   6.416  0.1676 -0.4211  0.4946
23603SOL    HW171942   1.457   1.690   6.504  0.8475  1.5084  1.4641
23603SOL    HW271943   1.416   1.671   6.359  0.5885 -2.3618  1.9617
23604SOL     OW71944   2.823   3.556   4.123  0.5841  0.5269 -0.4816
23604SOL    HW171945   2.758   3.595   4.064  0.9058  0.2667 -1.0110
23604SOL    HW271946   2.864   3.486   4.071  3.1395  2.3503 -1.1217
23605SOL     OW71947   0.141   7.210   7.667 -0.0561 -0.1954 -0.6581
23605SOL    HW171948   0.145   7.170   7.580 -0.3642 -1.0240 -0.3065
23605SOL    HW271949   0.069   7.273   7.661 -0.1479 -0.3271 -0.9811
23606SOL     OW71950   1.082   8.017   7.515  0.5436  0.1535  0.5632
23606SOL    HW171951   1.032   7.949   7.470 -2.3925  2.2412  0.3466
23606SOL    HW271952   1.128   8.064   7.445  0.6741 -0.1573  0.4396
23607SOL     OW71953   6.843   0.365   9.014  0.7470 -0.6185  0.3069
23607SOL    HW171954   6.771   0.319   8.971  0.2562  0.5624 -0.1655
23607SOL    HW271955   6.829   0.457   8.993  1.2286 -0.1436  1.9353
23608SOL     OW71956   3.957   0.181   1.301 -0.4200  0.6697  0.4310
23608SOL    HW171957   3.951   0.276   1.292  1.2363  0.8600  0.8641
23608SOL    HW271958   3.883   0.156   1.355 -1.0377  1.6707  0.0603
23609SOL     OW71959   3.636   9.050   3.650 -0.1084 -0.6161  0.3739
23609SOL    HW171960   3.724   9.013   3.648  0.0029 -0.3488  0.2543
23609SOL    HW271961   3.580   8.979   3.617  0.1169 -0.6402  0.0352
23610SOL     OW71962   5.829   3.030   7.310  0.6341 -0.3865  0.4524
23610SOL    HW171963   5.890   3.093   7.348  2.3105 -1.9009  0.3907
23610SOL    HW271964   5.837   3.043   7.216 -1.1298  1.1769  0.4732
23611SOL     OW71965   4.893   7.831   4.886  0.2876  0.4609  0.0144
23611SOL    HW171966   4.864   7.757   4.833  1.3250  0.4841 -0.6047
23611SOL    HW271967   4.891   7.799   4.976  0.0112 -0.0755 -0.1800
23612SOL     OW71968   3.485   5.257   0.776  0.2734  0.0058 -0.8432
23612SOL    HW171969   3.454   5.279   0.688  0.9715 -1.6294 -1.5430
23612SOL    HW271970   3.576   5.286   0.778  0.1557  0.3592 -0.5338
23613SOL     OW71971   5.671   7.978   2.613  0.9262  0.2169 -0.2009
23613SOL    HW171972   5.750   7.936   2.578  0.0927 -1.0862 -0.5730
23613SOL    HW271973   5.599   7.928   2.575 -0.0694  0.9670  0.6679
23614SOL     OW71974   6.311   3.051   5.358 -0.4535  0.0854  0.4011
23614SOL    HW171975   6.247   3.118   5.380 -1.3014  0.2627 -2.2897
23614SOL    HW271976   6.322   3.000   5.439 -1.5614  1.9823  1.8103
23615SOL     OW71977   1.835   6.335   4.462 -0.1299 -0.2762 -0.0880
23615SOL    HW171978   1.774   6.401   4.427  2.5520  2.0291 -0.8164
23615SOL    HW271979   1.859   6.282   4.386 -0.4453 -0.5151 -0.0206
23616SOL     OW71980   0.003   3.832   6.941  0.1104 -0.1377  0.2053
23616SOL    HW171981   0.094   3.823   6.914  0.6637 -0.0828  1.9060
23616SOL    HW271982   0.001   3.914   6.991 -0.7889 -0.3258  0.4968
23617SOL     OW71983   4.299   5.329   5.357 -0.4248  0.1298 -0.0886
23617SOL    HW171984   4.367   5.319   5.290  1.0139 -2.2153  1.5412
23617SOL    HW271985   4.236   5.260   5.337  1.4155 -2.5076  2.3030
23618SOL     OW71986   0.324   8.357   6.974 -0.1643 -0.3151 -0.4062
23618SOL    HW171987   0.340   8.362   7.069  1.0909  0.1309 -0.6244
23618SOL    HW271988   0.354   8.269   6.949 -1.0978 -0.6813 -0.3088
23619SOL     OW71989   2.707   7.857   6.833 -0.0393  0.2402 -0.3113
23619SOL    HW171990   2.669   7.940   6.802  0.2096  0.1824 -0.7889
23619SOL    HW271991   2.651   7.790   6.794 -0.5109  0.1855  0.4423
23620SOL     OW71992   2.425   8.202   3.928  0.0872  0.4918  0.4049
23620SOL    HW171993   2.482   8.137   3.888  0.3032  1.2546 -0.5592
23620SOL    HW271994   2.478   8.282   3.931 -0.4431  0.8367  0.8428
23621SOL     OW71995   7.454   1.526   3.394 -0.1893  0.6120 -0.0672
23621SOL    HW171996   7.430   1.616   3.375  0.8577  0.7138 -1.0058
23621SOL    HW271997   7.541   1.532   3.435 -0.2191  0.0484  0.0908
23622SOL     OW71998   3.325   2.890   2.182  0.5688 -0.4488 -0.0942
23622SOL    HW171999   3.371   2.879   2.265 -0.3172 -2.1905  0.1870
23622SOL    HW272000   3.388   2.859   2.116  0.7643 -0.3502  0.0447
23623SOL     OW72001   7.776   0.719   1.402  0.5500  0.1928  0.1063
23623SOL    HW172002   7.790   0.808   1.371 -0.2972  0.6533  0.9793
23623SOL    HW272003   7.769   0.727   1.497 -1.4572 -0.5065  0.0703
23624SOL     OW72004   7.730   3.883   4.478  0.0092 -0.2849  0.2813
23624SOL    HW172005   7.675   3.808   4.455 -1.1564  0.1092  1.5999
23624SOL    HW272006   7.806   3.875   4.421 -0.7711 -1.6307 -0.6531
23625SOL     OW72007   2.549   8.428   2.005  0.5499 -0.3583  0.0967
23625SOL    HW172008   2.502   8.453   2.085  1.2265  0.9742  0.1032
23625SOL    HW272009   2.481   8.419   1.939 -0.0579 -1.7882  0.8728
23626SOL     OW72010   2.641   6.181   6.351 -0.2717  0.5423 -0.1955
23626SOL    HW172011   2.696   6.125   6.296 -0.0285  1.0647 -0.4933
23626SOL    HW272012   2.640   6.137   6.436  1.4085  1.0230  0.1066
23627SOL     OW72013   5.195   0.686   1.125 -0.0403 -0.5738  0.3840
23627SOL    HW172014   5.170   0.736   1.048 -1.5660 -1.6054  0.1653
23627SOL    HW272015   5.112   0.656   1.162  0.7504 -1.5426  1.4408
23628SOL     OW72016   0.905   2.323   0.267 -0.2994 -0.1662 -0.1455
23628SOL    HW172017   0.822   2.302   0.224 -0.0055 -1.0685 -0.2915
23628SOL    HW272018   0.965   2.344   0.196 -0.0331 -0.8633 -0.1319
23629SOL     OW72019   4.375   1.386   5.268  0.0035  0.2153 -0.7685
23629SOL    HW172020   4.420   1.360   5.349 -1.7675 -2.3370 -0.4975
23629SOL    HW272021   4.290   1.419   5.298 -0.2620  0.2430 -1.5476
23630SOL     OW72022   7.621   3.145   5.838 -0.4832 -0.1526  0.3016
23630SOL    HW172023   7.601   3.053   5.856 -2.0190  0.1194  0.1466
23630SOL    HW272024   7.702   3.142   5.787 -0.7070 -1.4391 -0.0221
23631SOL     OW72025   5.539   3.817   7.742 -0.0625 -0.3309  0.5087
23631SOL    HW172026   5.482   3.783   7.810 -1.7125  1.0932 -0.0820
23631SOL    HW272027   5.628   3.803   7.775 -0.7242 -2.6014  1.4544
23632SOL     OW72028   8.732   3.982   5.101 -0.1166  0.1577  0.1040
23632SOL    HW172029   8.665   3.929   5.143 -0.4029  0.8499  0.5323
23632SOL    HW272030   8.724   4.069   5.142  1.8127 -0.0499  1.0416
23633SOL     OW72031   1.537   8.839   7.339  0.1502 -0.2272 -0.6728
23633SOL    HW172032   1.564   8.803   7.423  1.2242 -2.3722 -1.8329
23633SOL    HW272033   1.444   8.819   7.333  0.4125 -1.6073 -0.6361
23634SOL     OW72034   1.610   3.779   6.820 -0.0753  0.0128 -0.0046
23634SOL    HW172035   1.664   3.795   6.898  0.7725 -1.1198 -0.3398
23634SOL    HW272036   1.620   3.859   6.768  0.7419  0.0884  0.2572
23635SOL     OW72037   7.143   6.529   3.131 -0.5686  0.2424  0.1852
23635SOL    HW172038   7.143   6.603   3.191 -0.4556  0.9671 -0.6768
23635SOL    HW272039   7.224   6.539   3.081 -0.2308 -0.8365  0.4862
23636SOL     OW72040   5.448   0.804   8.012 -0.4563 -0.1980  0.4620
23636SOL    HW172041   5.422   0.895   7.999  0.1104 -0.0826  0.0953
23636SOL    HW272042   5.437   0.788   8.106  0.9148  0.7175  0.8007
23637SOL     OW72043   2.973   8.496   1.815 -0.6138  0.3781  0.1214
23637SOL    HW172044   2.891   8.448   1.831 -0.0140 -0.5362  0.5401
23637SOL    HW272045   3.017   8.498   1.900  0.1828  0.1301 -0.2751
23638SOL     OW72046   4.546   6.105   0.158 -0.2856  0.2779 -0.3316
23638SOL    HW172047   4.640   6.118   0.155 -0.2678 -0.0307 -1.7039
23638SOL    HW272048   4.520   6.092   0.067 -1.7307  0.8590 -0.0374
23639SOL     OW72049   8.702   7.534   0.906  0.1231  0.3943  0.0548
23639SOL    HW172050   8.769   7.535   0.837 -0.1825  1.4729 -0.2529
23639SOL    HW272051   8.679   7.626   0.917 -1.2807  0.0375  0.1938
23640SOL     OW72052   8.267   8.378   8.355  0.0246  0.1960  0.3074
23640SOL    HW172053   8.220   8.305   8.315  1.0479 -0.2806 -0.0653
23640SOL    HW272054   8.218   8.398   8.435 -0.1884 -1.0002  0.4933
23641SOL     OW72055   8.818   1.995   7.870  0.0600  0.4131  0.0195
23641SOL    HW172056   8.868   2.021   7.948  0.0118 -1.4901  0.7455
23641SOL    HW272057   8.729   1.984   7.901  0.2118 -1.2927 -0.0188
23642SOL     OW72058   6.289   5.320   2.415  0.0948 -0.1540  0.3388
23642SOL    HW172059   6.248   5.407   2.423  0.7323  0.0859  1.2351
23642SOL    HW272060   6.233   5.273   2.353 -1.0985  0.4119  0.9365
23643SOL     OW72061   1.192   6.632   8.095 -0.2630 -0.3116  0.5368
23643SOL    HW172062   1.150   6.642   8.010  2.3444 -1.4716 -0.9979
23643SOL    HW272063   1.171   6.543   8.123 -0.2227 -0.3032  0.5957
23644SOL     OW72064   7.436   8.204   2.930 -0.3936  0.2452  0.1801
23644SOL    HW172065   7.479   8.218   3.015 -0.6537  2.0112  0.0610
23644SOL    HW272066   7.418   8.110   2.928 -0.8991  0.2382  2.3296
23645SOL     OW72067   4.985   3.680   6.653  0.4767  0.2252  0.1918
23645SOL    HW172068   5.001   3.731   6.733  0.2283  1.0271 -0.2537
23645SOL    HW272069   5.027   3.731   6.584  0.4325 -0.3087 -0.2328
23646SOL     OW72070   4.911   2.863   5.108 -0.2814  0.0132 -0.1376
23646SOL    HW172071   4.927   2.873   5.014  0.4052 -0.8659 -0.1362
23646SOL    HW272072   4.851   2.789   5.114 -1.9936  1.3594  0.0308
23647SOL     OW72073   5.521   4.728   2.946  0.1514  1.0284  0.0139
23647SOL    HW172074   5.551   4.779   3.021 -0.9687  1.9971 -0.1675
23647SOL    HW272075   5.436   4.765   2.924  0.1120  0.2544 -1.2612
23648SOL     OW72076   4.558   4.134   3.230  0.1005 -0.4934 -0.0946
23648SOL    HW172077   4.536   4.116   3.321 -1.0455  0.9032 -0.0609
23648SOL    HW272078   4.507   4.071   3.180 -1.3016  0.3999  0.1498
23649SOL     OW72079   6.444   4.222   2.238  0.1058  0.5780  0.0220
23649SOL    HW172080   6.512   4.171   2.282  0.8944  0.6031 -1.1243
23649SOL    HW272081   6.366   4.208   2.291  0.6626 -0.6117  0.5701
23650SOL     OW72082   0.080   2.109   3.196 -0.2142 -0.3151  0.1871
23650SOL    HW172083   0.099   2.202   3.190 -1.5346 -0.1022 -1.2198
23650SOL    HW272084  -0.014   2.102   3.184 -0.0762 -1.8718 -0.2972
23651SOL     OW72085   4.151   1.937   0.941 -0.5590  0.0573 -0.3432
23651SOL    HW172086   4.090   1.872   0.907 -0.2970  0.2254 -1.1618
23651SOL    HW272087   4.198   1.968   0.864  0.8898 -0.4109  0.3087
23652SOL     OW72088   4.149   2.460   8.691 -0.3524  0.0090  0.1141
23652SOL    HW172089   4.128   2.371   8.719 -0.4338  0.0192  0.0851
23652SOL    HW272090   4.177   2.450   8.600 -1.2240  0.1270 -0.1762
23653SOL     OW72091   4.328   4.451   0.201 -0.4780 -0.1291  0.3525
23653SOL    HW172092   4.406   4.504   0.182 -1.1339  0.3251 -1.2184
23653SOL    HW272093   4.322   4.453   0.297  2.7882 -2.1777  0.7738
23654SOL     OW72094   7.290   8.781   6.528  0.0278  0.7264  0.4441
23654SOL    HW172095   7.213   8.750   6.576 -0.4540 -0.6800 -1.1117
23654SOL    HW272096   7.334   8.701   6.500  0.6349  1.4818 -0.8501
23655SOL     OW72097   0.708   4.931   3.508  0.0160  0.2778  0.0330
23655SOL    HW172098   0.782   4.990   3.495  0.0727  0.2048  0.0224
23655SOL    HW272099   0.665   4.963   3.587 -1.0284  1.4591 -0.9624
23656SOL     OW72100   7.438   5.188   1.004 -0.0506  0.2968 -0.0813
23656SOL    HW172101   7.435   5.092   0.996  0.1705  0.3039 -0.2327
23656SOL    HW272102   7.509   5.215   0.946 -0.8203  0.6511 -0.8748
23657SOL     OW72103   3.165   1.922   6.965  0.3008 -0.0171  0.0203
23657SOL    HW172104   3.249   1.877   6.971  0.6370  0.7217  1.0516
23657SOL    HW272105   3.115   1.870   6.903  0.9353 -1.3872  0.6188
23658SOL     OW72106   8.065   7.994   1.671 -0.5990  0.2770  0.0496
23658SOL    HW172107   8.087   7.994   1.765  0.4283 -1.2017 -0.1557
23658SOL    HW272108   7.996   7.928   1.663 -0.1776 -0.1297 -0.3196
23659SOL     OW72109   6.316   3.415   4.030  0.3719 -0.2450  0.7137
23659SOL    HW172110   6.305   3.510   4.028 -0.1681 -0.3139 -0.5130
23659SOL    HW272111   6.274   3.385   3.950  1.6832 -1.4086  0.4447
23660SOL     OW72112   0.142   5.560   7.131  0.1173  0.1744  0.4674
23660SOL    HW172113   0.147   5.475   7.175  0.9500  0.4729  0.9790
23660SOL    HW272114   0.056   5.594   7.153 -0.6945 -1.0285 -0.6849
23661SOL     OW72115   3.370   8.797   2.516  0.1996 -0.6576  0.2760
23661SOL    HW172116   3.304   8.865   2.513 -1.0394 -1.8387 -1.2392
23661SOL    HW272117   3.454   8.844   2.517 -0.6213  0.8714 -0.3773
23662SOL     OW72118   8.947   7.223   0.841  0.0056  0.0634  0.3320
23662SOL    HW172119   8.972   7.306   0.881 -0.9952 -0.2897  1.7944
23662SOL    HW272120   8.903   7.247   0.760  0.4617  0.9123  0.3280
23663SOL     OW72121   4.945   5.500   0.144 -0.1641 -0.2296  0.7523
23663SOL    HW172122   4.875   5.535   0.088  1.3121  1.2818 -0.2540
23663SOL    HW272123   4.972   5.574   0.198  2.0344 -0.1450 -0.3680
23664SOL     OW72124   1.735   5.118   5.990 -0.0731  0.4678  0.1754
23664SOL    HW172125   1.653   5.085   5.951 -0.8423 -2.2910  3.5397
23664SOL    HW272126   1.738   5.210   5.966 -1.8322 -0.2831 -3.7192
23665SOL     OW72127   6.713   0.842   8.356 -0.1145 -0.1849 -0.1768
23665SOL    HW172128   6.644   0.776   8.351  1.1218 -1.5986  0.6454
23665SOL    HW272129   6.771   0.812   8.426  0.5842  1.7069  0.1378
23666SOL     OW72130   4.963   8.518   8.430  0.8849  0.4788 -0.2180
23666SOL    HW172131   4.951   8.594   8.373 -1.2812 -0.5233 -1.2251
23666SOL    HW272132   4.890   8.522   8.491  0.7659 -0.7360 -0.2493
23667SOL     OW72133   0.936   1.295   4.386 -0.1145  0.2454 -0.4229
23667SOL    HW172134   0.922   1.219   4.330 -0.3851 -0.9321  1.1963
23667SOL    HW272135   1.031   1.300   4.397 -0.1141 -0.0384 -0.2947
23668SOL     OW72136   0.077   8.026   7.344 -0.4817  0.0715  0.0296
23668SOL    HW172137   0.167   8.033   7.313 -0.2491  0.3752  0.7335
23668SOL    HW272138   0.036   8.108   7.316 -0.1725  0.5071  0.7955
23669SOL     OW72139   7.908   5.403   6.572  0.1676 -0.0888 -0.3783
23669SOL    HW172140   7.817   5.433   6.579 -0.2347 -1.3859  0.0869
23669SOL    HW272141   7.958   5.464   6.626 -0.6559 -0.3355  0.6728
23670SOL     OW72142   4.898   0.459   8.778 -0.0628  0.0103  0.0163
23670SOL    HW172143   4.871   0.541   8.737  0.8339  0.9542  1.2402
23670SOL    HW272144   4.985   0.442   8.742  0.4844  0.5394  1.0476
23671SOL     OW72145   8.407   6.187   6.971 -0.2046  0.2377 -0.1388
23671SOL    HW172146   8.385   6.102   7.007 -1.1615 -0.5194 -2.3299
23671SOL    HW272147   8.482   6.217   7.023 -1.5779 -0.6308  2.4872
23672SOL     OW72148   8.515   6.570   8.732  0.5356 -0.1050 -0.3946
23672SOL    HW172149   8.542   6.661   8.741  0.7319 -0.2111  0.1312
23672SOL    HW272150   8.445   6.559   8.796  0.9956 -0.5063  0.0546
23673SOL     OW72151   3.174   9.100   5.415  0.3633  0.1784  0.4258
23673SOL    HW172152   3.196   9.008   5.399 -0.5023  0.1028 -0.4027
23673SOL    HW272153   3.202   9.115   5.505 -1.3097 -1.4770  1.2859
23674SOL     OW72154   5.091   0.325   3.547 -0.3329 -0.5620 -0.2745
23674SOL    HW172155   5.090   0.299   3.455 -4.4939  1.1325 -0.9591
23674SOL    HW272156   5.077   0.420   3.545 -2.7827 -0.7529  1.9884
23675SOL     OW72157   1.804   3.045   6.398  0.0464  0.1851 -0.3213
23675SOL    HW172158   1.792   3.058   6.493  1.3397  1.6872 -0.3204
23675SOL    HW272159   1.830   2.953   6.390 -0.4076 -0.0601  0.7372
23676SOL     OW72160   8.398   7.812   1.238  0.2880 -0.3665 -0.5036
23676SOL    HW172161   8.411   7.753   1.164  0.3844 -0.0120 -0.7775
23676SOL    HW272162   8.310   7.847   1.227  0.0222 -0.8832 -0.0300
23677SOL     OW72163   0.158   7.131   0.114 -0.1828 -0.0347  0.0493
23677SOL    HW172164   0.192   7.079   0.188  1.6792  0.6653 -0.2533
23677SOL    HW272165   0.181   7.222   0.137 -0.2408  0.2614 -1.0411
23678SOL     OW72166   8.952   5.908   0.472  0.0239 -0.0689 -0.5128
23678SOL    HW172167   8.963   5.821   0.509 -0.6549 -0.2503 -0.7074
23678SOL    HW272168   8.862   5.907   0.437 -0.5607  1.2285  0.8694
23679SOL     OW72169   4.727   6.588   7.055 -0.0773  0.0960 -0.4131
23679SOL    HW172170   4.768   6.504   7.035 -0.4178 -0.0855 -0.3540
23679SOL    HW272171   4.679   6.572   7.137 -1.5214 -0.1230 -1.2654
23680SOL     OW72172   3.401   6.635   4.455  0.0053 -0.4178 -0.9856
23680SOL    HW172173   3.422   6.688   4.378  0.7326  1.0933  0.2012
23680SOL    HW272174   3.360   6.697   4.516  0.7494 -1.2378  0.3908
23681SOL     OW72175   2.544   6.635   0.919 -0.2969  0.8878  0.1248
23681SOL    HW172176   2.456   6.674   0.919 -0.8980 -0.3804  1.6471
23681SOL    HW272177   2.578   6.654   1.006 -0.0519 -0.7287  0.4086
23682SOL     OW72178   7.714   6.944   7.719 -0.0732  0.0029 -0.6037
23682SOL    HW172179   7.711   6.895   7.637 -0.1531  0.6058 -0.9653
23682SOL    HW272180   7.631   6.990   7.723 -0.5448 -0.8955  0.3746
23683SOL     OW72181   7.502   4.657   5.272 -0.1719 -0.2088  0.4641
23683SOL    HW172182   7.554   4.586   5.310  0.5908 -0.4151 -0.9179
23683SOL    HW272183   7.413   4.642   5.306  0.1374 -1.3562  0.8143
23684SOL     OW72184   6.364   5.314   1.560 -0.4104  0.0051  0.0223
23684SOL    HW172185   6.343   5.259   1.636 -0.4466  0.4486  0.3391
23684SOL    HW272186   6.441   5.363   1.587 -1.1667  1.0977  0.2607
23685SOL     OW72187   1.911   7.908   2.439 -0.3439  0.1203  0.0802
23685SOL    HW172188   1.912   7.938   2.530 -0.6003  0.7271 -0.1169
23685SOL    HW272189   1.838   7.955   2.399  0.7471  1.0720 -0.8547
23686SOL     OW72190   0.123   1.547   5.816 -0.5231 -0.7795 -0.0402
23686SOL    HW172191   0.036   1.587   5.821 -1.0113 -1.8299  0.1126
23686SOL    HW272192   0.150   1.560   5.726  0.3070  1.8477  0.5055
23687SOL     OW72193   4.072   7.364   7.583 -0.0776 -0.1556  0.6546
23687SOL    HW172194   4.125   7.285   7.592  1.4567  0.8788  1.1857
23687SOL    HW272195   4.035   7.379   7.670  0.7072  0.4096  0.9019
23688SOL     OW72196   1.377   6.430   6.534 -0.3079  0.1406 -0.6844
23688SOL    HW172197   1.453   6.373   6.545  1.7533  2.1789 -2.9526
23688SOL    HW272198   1.331   6.393   6.458 -0.4277  0.0593 -0.5724
23689SOL     OW72199   7.615   1.615   5.730 -0.1167  0.4504  0.3012
23689SOL    HW172200   7.637   1.704   5.757 -0.8879 -0.0045  2.6319
23689SOL    HW272201   7.584   1.572   5.810  0.0380 -1.8668 -0.7947
23690SOL     OW72202   5.799   5.582   4.052  0.1770 -0.2090 -0.7649
23690SOL    HW172203   5.885   5.620   4.072 -0.4029  0.0282  1.6095
23690SOL    HW272204   5.741   5.657   4.040 -0.3617 -0.2698  1.0719
23691SOL     OW72205   0.205   4.312   3.154 -0.9945 -0.0257  0.2261
23691SOL    HW172206   0.163   4.248   3.097 -0.2484  0.3413 -0.7758
23691SOL    HW272207   0.151   4.391   3.145 -0.4525  0.2683 -0.6060
23692SOL     OW72208   1.808   8.757   6.218 -0.1744  0.7023  0.4075
23692SOL    HW172209   1.800   8.678   6.272 -0.3416  0.7340  0.4280
23692SOL    HW272210   1.771   8.827   6.273 -0.3754  0.7291  0.2388
23693SOL     OW72211   7.929   7.094   6.149  0.4180 -0.8009 -0.0333
23693SOL    HW172212   7.945   7.087   6.243 -0.3810 -1.4408  0.0659
23693SOL    HW272213   8.016   7.101   6.110  0.7948 -1.3230  0.6921
23694SOL     OW72214   2.008   1.714   2.912  0.9436  0.0196  0.0714
23694SOL    HW172215   1.938   1.654   2.936 -0.5624  1.4019 -0.7206
23694SOL    HW272216   1.999   1.787   2.973  0.2010  1.2604 -1.4426
23695SOL     OW72217   0.210   1.370   7.414  0.2069 -0.1597  0.2726
23695SOL    HW172218   0.282   1.371   7.352 -0.3362 -0.4982 -0.3738
23695SOL    HW272219   0.251   1.385   7.499  1.0597 -0.6118 -0.0554
23696SOL     OW72220   8.279   7.508   2.794  0.0367  0.1609 -0.3094
23696SOL    HW172221   8.254   7.416   2.792  0.3317 -0.0486  2.4911
23696SOL    HW272222   8.343   7.516   2.723  0.6261 -1.9898 -0.0910
23697SOL     OW72223   2.581   7.684   3.362  0.0726 -0.5303  0.6758
23697SOL    HW172224   2.665   7.698   3.407  0.0067  0.8492  0.4079
23697SOL    HW272225   2.569   7.762   3.308 -0.0036 -1.9973 -1.5413
23698SOL     OW72226   4.998   0.131   0.789 -0.0630  0.0728  0.2909
23698SOL    HW172227   5.028   0.158   0.875 -0.6685  0.9167  0.2529
23698SOL    HW272228   4.903   0.136   0.794 -0.0785  1.4126 -0.8061
23699SOL     OW72229   8.876   5.088   5.550 -0.3581  0.7490  0.2803
23699SOL    HW172230   8.969   5.107   5.548 -0.5657  1.9293  0.9376
23699SOL    HW272231   8.855   5.060   5.461 -0.1940  4.6723 -1.1858
23700SOL     OW72232   8.893   2.810   1.500 -0.2302 -0.2192  0.4042
23700SOL    HW172233   8.931   2.759   1.571  0.9156  1.4436  1.0692
23700SOL    HW272234   8.946   2.789   1.423  0.5551  0.2958  0.7875
23701SOL     OW72235   4.083   6.395   1.678  0.2257  0.1667 -0.4090
23701SOL    HW172236   4.019   6.438   1.734 -0.0631 -1.2977  0.4379
23701SOL    HW272237   4.114   6.320   1.729  1.0567 -0.3673 -1.6310
23702SOL     OW72238   4.995   5.251   4.974 -0.0662  0.1816 -0.0217
23702SOL    HW172239   5.087   5.259   4.948 -0.1094 -0.3328 -0.3412
23702SOL    HW272240   4.946   5.259   4.892 -0.4049  1.8927  0.3035
23703SOL     OW72241   2.140   7.352   1.247  0.2970 -0.2594 -0.2922
23703SOL    HW172242   2.154   7.275   1.303  0.6010 -0.4747 -0.6493
23703SOL    HW272243   2.047   7.351   1.227  0.1335 -0.0167  0.4359
23704SOL     OW72244   6.882   8.965   1.298 -0.1327  0.2967 -0.3329
23704SOL    HW172245   6.823   8.890   1.296  0.3772 -0.1747  1.1566
23704SOL    HW272246   6.967   8.930   1.272 -0.3203  0.8091 -1.6948
23705SOL     OW72247   2.439   2.304   6.662 -0.1708  0.2820 -0.3921
23705SOL    HW172248   2.481   2.220   6.681 -1.5845 -0.2238  0.6021
23705SOL    HW272249   2.512   2.366   6.658  0.6435 -0.3367  2.4889
23706SOL     OW72250   4.913   9.033   3.535 -0.1421  0.4899  0.6802
23706SOL    HW172251   4.979   9.028   3.466 -1.0653  0.3991 -0.2196
23706SOL    HW272252   4.954   8.990   3.610  0.9486  0.7514  0.2607
23707SOL     OW72253   1.362   0.139   4.864 -0.0910 -0.5229 -0.1650
23707SOL    HW172254   1.400   0.227   4.874  2.1269 -1.2913 -1.1735
23707SOL    HW272255   1.306   0.146   4.787 -0.1450  0.0902 -0.0773
23708SOL     OW72256   2.560   4.672   1.418  0.0812  0.4807 -0.1096
23708SOL    HW172257   2.531   4.581   1.415 -0.2266  0.5363  0.7107
23708SOL    HW272258   2.655   4.668   1.415  0.0441  0.2024 -1.2525
23709SOL     OW72259   0.279   8.018   7.722  1.2601 -0.1701 -0.1953
23709SOL    HW172260   0.272   8.042   7.814  1.1563  1.0754 -0.5158
23709SOL    HW272261   0.362   8.056   7.694  1.5060 -0.9247 -0.5139
23710SOL     OW72262   2.391   3.236   0.209  0.2860  0.0610 -0.0561
23710SOL    HW172263   2.440   3.161   0.242 -0.9281 -0.3938  0.7908
23710SOL    HW272264   2.442   3.267   0.134  0.8715 -1.5146 -0.3405
23711SOL     OW72265   1.905   0.526   6.047  0.1812  0.1648  0.0089
23711SOL    HW172266   1.961   0.524   6.125  0.5171  1.3599 -0.1831
23711SOL    HW272267   1.819   0.549   6.080  0.7492  2.8463 -0.1461
23712SOL     OW72268   6.937   4.405   3.956  0.2934  1.2075  0.0660
23712SOL    HW172269   6.992   4.429   4.031 -1.0850 -2.1336  2.3988
23712SOL    HW272270   6.946   4.310   3.950 -1.7683  1.0830 -2.3392
23713SOL     OW72271   3.942   0.522   3.227 -0.6769 -0.4093 -1.0647
23713SOL    HW172272   4.037   0.521   3.239 -0.7929 -2.7709  0.2861
23713SOL    HW272273   3.930   0.517   3.132  0.5468 -0.4297 -1.2383
23714SOL     OW72274   5.942   8.460   3.336 -0.2234 -0.0502 -0.0538
23714SOL    HW172275   5.969   8.368   3.330  2.9891  0.8486 -1.4534
23714SOL    HW272276   6.018   8.504   3.376 -1.0086  2.2319 -0.9505
23715SOL     OW72277   4.209   6.459   6.956 -0.0616  0.0430  0.1041
23715SOL    HW172278   4.180   6.467   7.047  1.6254  0.1902  0.6776
23715SOL    HW272279   4.268   6.383   6.957  0.6836  0.5892 -0.6523
23716SOL     OW72280   8.328   5.330   4.274  0.3549  0.6576 -0.2103
23716SOL    HW172281   8.391   5.261   4.296 -0.5218  0.1755  0.8608
23716SOL    HW272282   8.282   5.298   4.197  0.6368  0.4937 -0.3101
23717SOL     OW72283   4.678   7.248   7.885 -0.7461 -0.0521  0.1079
23717SOL    HW172284   4.616   7.281   7.950  0.1410  2.2406 -0.1422
23717SOL    HW272285   4.754   7.220   7.937 -1.4401 -1.7455  0.3042
23718SOL     OW72286   3.971   7.324   8.450 -0.2038  0.2790  0.5721
23718SOL    HW172287   4.000   7.332   8.541  0.7244 -1.0475  0.4184
23718SOL    HW272288   4.052   7.325   8.398 -0.7704  2.6779 -0.4359
23719SOL     OW72289   6.956   4.769   8.108  0.1509  0.0532  0.1494
23719SOL    HW172290   6.954   4.797   8.017 -1.1854  2.1672  0.7535
23719SOL    HW272291   6.877   4.807   8.147 -1.3550 -3.7664  1.3909
23720SOL     OW72292   1.727   2.213   6.721 -0.1031  0.1527 -0.4897
23720SOL    HW172293   1.822   2.220   6.722 -0.1155  0.4473  0.6919
23720SOL    HW272294   1.696   2.302   6.739 -0.5752 -0.0616 -0.2022
23721SOL     OW72295   8.531   1.693   3.503  0.1018 -0.1278  0.0141
23721SOL    HW172296   8.516   1.690   3.597 -1.6998  0.7283 -0.1997
23721SOL    HW272297   8.549   1.602   3.479 -0.9509 -0.6313  0.9870
23722SOL     OW72298   3.970   8.032   7.687 -0.0242  0.1924  0.7164
23722SOL    HW172299   4.044   8.057   7.742  1.4613 -1.9273 -0.1645
23722SOL    HW272300   4.000   7.953   7.641 -3.0036 -1.0015  0.6173
23723SOL     OW72301   2.499   0.978   1.802  0.0477 -0.4876 -0.2038
23723SOL    HW172302   2.481   0.884   1.793 -1.0844 -0.3556  0.4407
23723SOL    HW272303   2.479   1.014   1.715 -0.1522 -0.7489 -0.2683
23724SOL     OW72304   6.244   6.644   6.656  0.1309  0.9180 -0.2489
23724SOL    HW172305   6.339   6.646   6.655  0.1369  2.2247 -1.8346
23724SOL    HW272306   6.219   6.677   6.742  1.1390  2.7038 -0.5917
23725SOL     OW72307   4.465   5.868   7.871 -0.2799  0.4068 -0.4827
23725SOL    HW172308   4.457   5.959   7.901 -0.7314  0.1330  0.2636
23725SOL    HW272309   4.377   5.844   7.844 -0.2754  0.0172 -0.1559
23726SOL     OW72310   4.922   3.519   8.329 -0.2178 -0.3665  0.0030
23726SOL    HW172311   4.827   3.525   8.337 -0.1397  0.1801  0.6424
23726SOL    HW272312   4.941   3.552   8.241 -0.8349 -3.2998 -1.3652
23727SOL     OW72313   5.423   5.260   0.034  0.2017  0.5912 -0.3499
23727SOL    HW172314   5.382   5.189  -0.016 -0.4470  1.0437 -0.4809
23727SOL    HW272315   5.471   5.311  -0.032 -0.8025  1.2924 -0.5686
23728SOL     OW72316   4.166   8.561   1.284 -0.0732  0.1424 -0.0516
23728SOL    HW172317   4.159   8.579   1.378  0.5413  0.5442 -0.0739
23728SOL    HW272318   4.220   8.483   1.278 -3.0383 -2.0806  0.0602
23729SOL     OW72319   1.555   7.586   0.390  0.2801 -0.3487 -0.2658
23729SOL    HW172320   1.461   7.604   0.402  0.1769 -0.4184 -0.9387
23729SOL    HW272321   1.566   7.496   0.421  0.4663  0.2281  1.4570
23730SOL     OW72322   8.886   0.485   5.937 -0.1702  0.8272 -0.1841
23730SOL    HW172323   8.900   0.579   5.929  1.2383  0.8568  1.8637
23730SOL    HW272324   8.793   0.476   5.959 -0.4617  1.6616 -0.9967
23731SOL     OW72325   0.233   0.383   3.664 -0.2824 -0.0888  0.2484
23731SOL    HW172326   0.232   0.462   3.719 -0.7036 -0.1335  0.3093
23731SOL    HW272327   0.243   0.416   3.575 -1.1097  0.0808  0.2070
23732SOL     OW72328   2.865   5.501   0.032  0.7001  0.2268 -0.5327
23732SOL    HW172329   2.847   5.537   0.119  1.0507 -0.0407 -0.3450
23732SOL    HW272330   2.886   5.578  -0.021  0.0909  0.4287 -0.4820
23733SOL     OW72331   8.500   5.590   6.812 -0.6209  0.0787  0.7527
23733SOL    HW172332   8.565   5.535   6.855  0.7363  2.6984  2.2991
23733SOL    HW272333   8.534   5.604   6.723  0.8154  1.1393  1.4356
23734SOL     OW72334   0.704   5.409   8.976  0.2809 -0.3824  0.1534
23734SOL    HW172335   0.685   5.320   9.005 -0.6697 -0.3430 -0.2829
23734SOL    HW272336   0.720   5.400   8.882  2.6357 -0.4162  0.4938
23735SOL     OW72337   4.714   1.847   1.735 -0.4126 -0.3027 -0.1266
23735SOL    HW172338   4.707   1.855   1.831 -0.1453  1.4879 -0.2093
23735SOL    HW272339   4.797   1.801   1.721 -1.4336 -2.4374  0.4999
23736SOL     OW72340   3.865   7.723   2.790  0.3910  0.5051 -0.2928
23736SOL    HW172341   3.862   7.722   2.695 -1.8032  0.5382 -0.2681
23736SOL    HW272342   3.942   7.670   2.812  0.4062 -0.2777 -2.0579
23737SOL     OW72343   2.582   5.934   8.086 -0.2320  0.2258  0.4305
23737SOL    HW172344   2.553   6.002   8.147 -0.0544  1.1514 -0.4862
23737SOL    HW272345   2.645   5.979   8.029  2.7489 -1.5236  2.0346
23738SOL     OW72346   2.847   5.698   4.863 -0.2970 -0.4878 -0.3130
23738SOL    HW172347   2.921   5.759   4.876  0.6229 -1.3825 -1.2458
23738SOL    HW272348   2.770   5.749   4.889  0.4956  0.9305 -0.6356
23739SOL     OW72349   1.874   7.214   7.634  0.5121 -0.2925 -0.0846
23739SOL    HW172350   1.928   7.164   7.695  2.6557 -0.4669 -1.9696
23739SOL    HW272351   1.917   7.202   7.549 -1.4020  1.2457 -1.3588
23740SOL     OW72352   3.977   0.856   5.418 -0.3448  0.0856 -0.0445
23740SOL    HW172353   3.959   0.791   5.351 -0.9645 -0.2714  0.4600
23740SOL    HW272354   4.008   0.805   5.493 -2.1559  0.2084  0.8347
23741SOL     OW72355   4.734   6.430   2.531 -0.3243 -0.1386  0.4486
23741SOL    HW172356   4.813   6.482   2.523 -0.4133  0.4551  2.8802
23741SOL    HW272357   4.663   6.494   2.531 -0.6953 -0.5393  0.0801
23742SOL     OW72358   1.708   7.543   1.194  0.4302 -0.4303  0.2707
23742SOL    HW172359   1.680   7.597   1.119 -0.6376 -0.3511  0.7169
23742SOL    HW272360   1.777   7.595   1.236 -0.0939  0.2692  0.2831
23743SOL     OW72361   0.747   2.403   3.739 -0.1853 -0.3607  0.0092
23743SOL    HW172362   0.721   2.495   3.727  1.6513  0.6052  2.5280
23743SOL    HW272363   0.815   2.389   3.673  0.1592  0.4035  0.1885
23744SOL     OW72364   7.186   5.515   0.966  0.3295  0.2403  0.2313
23744SOL    HW172365   7.237   5.442   0.932  2.1697  2.0192 -1.0638
23744SOL    HW272366   7.096   5.494   0.943  1.1071 -0.3194 -2.7473
23745SOL     OW72367   7.356   0.757   2.772  0.4037 -0.0575  0.0776
23745SOL    HW172368   7.372   0.693   2.703  0.1266 -0.2126  0.1563
23745SOL    HW272369   7.365   0.708   2.854 -2.0101 -0.5356  0.1109
23746SOL     OW72370   6.886   5.629   3.365  0.0090  0.3605 -0.9218
23746SOL    HW172371   6.824   5.681   3.416  2.1947  0.6447  1.6901
23746SOL    HW272372   6.839   5.548   3.345 -1.2326  0.5370  1.0322
23747SOL     OW72373   5.882   7.699   1.564 -0.3520  0.3069 -0.2467
23747SOL    HW172374   5.902   7.651   1.644  0.8735 -0.3300 -0.9085
23747SOL    HW272375   5.927   7.783   1.575 -1.3046  0.7617  0.2932
23748SOL     OW72376   6.131   8.400   6.945 -0.4422  0.6091  0.6006
23748SOL    HW172377   6.150   8.471   7.007 -0.4181  1.7891 -0.6964
23748SOL    HW272378   6.172   8.323   6.983  3.1636  2.0924  0.1357
23749SOL     OW72379   6.701   1.161   0.535 -0.1182 -0.2070 -0.6999
23749SOL    HW172380   6.730   1.246   0.503 -0.0927 -0.2340 -0.7487
23749SOL    HW272381   6.630   1.181   0.595  2.1814  0.1233  2.1297
23750SOL     OW72382   7.627   4.611   4.545  0.2340  0.0745 -0.1612
23750SOL    HW172383   7.544   4.576   4.578  0.2924  0.6608  0.6320
23750SOL    HW272384   7.664   4.539   4.494 -0.7547 -0.2026 -0.5220
23751SOL     OW72385   1.349   0.142   7.836  0.4772  0.2544  0.1980
23751SOL    HW172386   1.335   0.059   7.790  1.2429 -0.0292  0.4617
23751SOL    HW272387   1.270   0.155   7.888 -0.2212  0.3594 -0.8557
23752SOL     OW72388   7.328   3.587   1.487 -0.2728 -0.5105 -0.6636
23752SOL    HW172389   7.386   3.602   1.412 -0.3425  0.8955 -0.4557
23752SOL    HW272390   7.240   3.582   1.450 -0.2070 -0.9084 -0.7793
23753SOL     OW72391   4.662   6.570   9.041 -0.2347 -0.0580  0.3740
23753SOL    HW172392   4.587   6.513   9.032  1.1047 -2.0320  1.0246
23753SOL    HW272393   4.725   6.537   8.977  0.9343  0.0150  1.4414
23754SOL     OW72394   5.835   0.960   2.878 -0.7501 -0.0162 -0.0647
23754SOL    HW172395   5.816   1.021   2.806  0.2851  0.9353  0.4279
23754SOL    HW272396   5.830   1.014   2.957  1.1447 -0.3085  0.3030
23755SOL     OW72397   1.770   8.573   6.678  0.3204 -0.7107  0.4895
23755SOL    HW172398   1.765   8.584   6.772  0.9813 -0.9651  0.5623
23755SOL    HW272399   1.863   8.579   6.658  0.0649  0.9282 -0.3560
23756SOL     OW72400   4.302   8.356   2.289 -0.3146 -0.2001  0.1367
23756SOL    HW172401   4.312   8.330   2.197  0.1366  0.5978 -0.0527
23756SOL    HW272402   4.295   8.452   2.286  1.2830 -0.0176  1.0437
23757SOL     OW72403   4.632   0.493   1.378  0.2006 -0.1668 -0.3309
23757SOL    HW172404   4.662   0.560   1.440 -2.6228 -0.5060  1.5798
23757SOL    HW272405   4.709   0.438   1.363  1.0818 -0.0184  2.8494
23758SOL     OW72406   0.666   6.834   3.507 -0.1696 -0.2230  0.6563
23758SOL    HW172407   0.704   6.758   3.462 -0.3134 -0.3764  0.7882
23758SOL    HW272408   0.693   6.909   3.455 -0.5265 -0.4185  0.1796
23759SOL     OW72409   8.455   0.132   3.155 -0.1454 -0.6100 -0.0284
23759SOL    HW172410   8.453   0.074   3.231  2.6743 -0.1328  0.5265
23759SOL    HW272411   8.522   0.094   3.097  0.4490  1.0440 -0.4851
23760SOL     OW72412   3.255   1.615   2.235 -0.3170  0.1458 -0.2477
23760SOL    HW172413   3.169   1.575   2.252 -0.0557 -0.9472 -1.3929
23760SOL    HW272414   3.234   1.706   2.211 -1.1248  0.0127 -0.1031
23761SOL     OW72415   5.160   4.319   6.992 -0.3779 -0.0859  0.1548
23761SOL    HW172416   5.171   4.335   7.086  0.3909  0.7846 -0.0713
23761SOL    HW272417   5.238   4.357   6.952 -1.3428  0.7859 -0.9675
23762SOL     OW72418   1.062   3.336   1.664  0.0746 -0.0842  0.6274
23762SOL    HW172419   1.132   3.284   1.703 -0.2271  0.3005  1.7192
23762SOL    HW272420   1.080   3.425   1.692 -0.4956  0.1141  0.3803
23763SOL     OW72421   0.525   7.488   5.875 -0.4971  0.2163  0.0383
23763SOL    HW172422   0.473   7.532   5.942 -1.7336  0.5044 -1.0667
23763SOL    HW272423   0.603   7.457   5.922 -1.6749 -0.2926  1.7562
23764SOL     OW72424   6.721   8.431   6.956  0.3325  0.2354 -0.7587
23764SOL    HW172425   6.659   8.487   7.004 -0.8414 -0.5580 -1.3135
23764SOL    HW272426   6.699   8.444   6.864  1.9130  0.9817 -1.0709
23765SOL     OW72427   0.864   5.334   2.296 -0.1140  0.1083  0.5416
23765SOL    HW172428   0.878   5.351   2.203 -0.4782 -0.8126  0.3016
23765SOL    HW272429   0.810   5.406   2.327 -0.0131  0.4019  0.0333
23766SOL     OW72430   4.085   5.530   1.124 -0.1313  0.0245 -0.0638
23766SOL    HW172431   4.102   5.476   1.201 -0.3647 -2.4417 -1.6565
23766SOL    HW272432   4.108   5.475   1.050 -5.0282  0.1560 -2.0292
23767SOL     OW72433   5.835   4.403   1.279  0.6450  0.3686 -0.0451
23767SOL    HW172434   5.912   4.348   1.291  0.7674  0.9010  2.0063
23767SOL    HW272435   5.770   4.367   1.340  0.3133  1.7225  0.4400
23768SOL     OW72436   7.917   7.633   6.987  0.2939  0.3429 -0.1269
23768SOL    HW172437   7.835   7.612   7.032  1.0084 -1.4466  0.4505
23768SOL    HW272438   7.900   7.715   6.942 -1.3711  0.7228  1.1062
23769SOL     OW72439   6.299   8.433   7.957 -0.2276 -0.0931 -0.2147
23769SOL    HW172440   6.333   8.365   7.898 -0.3791 -0.2320 -0.1438
23769SOL    HW272441   6.204   8.428   7.947 -0.2780 -0.4464  0.4048
23770SOL     OW72442   6.836   1.319   2.030 -0.2318  0.4545 -0.3372
23770SOL    HW172443   6.869   1.398   1.988 -1.2121  1.4972  0.7720
23770SOL    HW272444   6.814   1.346   2.119 -1.5868 -0.7929 -0.2409
23771SOL     OW72445   7.440   0.053   1.348 -0.4961 -0.4780  0.1023
23771SOL    HW172446   7.438   0.141   1.386 -0.1059 -0.3971 -0.0550
23771SOL    HW272447   7.506   0.006   1.399  0.2238 -0.2920 -0.6171
23772SOL     OW72448   8.892   6.720   6.471 -0.5276  0.0335 -0.5401
23772SOL    HW172449   8.817   6.780   6.469 -0.2053  0.4761  0.3640
23772SOL    HW272450   8.862   6.646   6.523 -0.5097 -0.0399 -0.6326
23773SOL     OW72451   9.083   2.003   1.969 -0.1199 -0.5723 -0.0122
23773SOL    HW172452   9.054   1.912   1.973  0.8009 -0.8534  0.6129
23773SOL    HW272453   9.179   1.998   1.977 -0.1261  0.5034  1.1507
23774SOL     OW72454   1.431   1.597   7.976  0.4200  0.0789  0.4650
23774SOL    HW172455   1.393   1.514   8.006  2.2192 -1.7794 -1.9753
23774SOL    HW272456   1.382   1.618   7.897  1.2682  0.2819 -0.0086
23775SOL     OW72457   0.389   7.333   7.592  0.5605 -0.2769 -0.3191
23775SOL    HW172458   0.334   7.399   7.551  0.6703  0.2648  0.3813
23775SOL    HW272459   0.329   7.282   7.646  0.8574  0.9254  1.2124
23776SOL     OW72460   8.507   4.268   5.480 -0.7522 -0.1266 -0.0288
23776SOL    HW172461   8.466   4.184   5.500 -0.8507 -0.0731 -0.0058
23776SOL    HW272462   8.440   4.317   5.433 -0.8124  0.0661  0.2540
23777SOL     OW72463   7.842   2.239   2.088 -0.7053 -0.0334  0.1998
23777SOL    HW172464   7.909   2.172   2.099  0.2679  0.7773 -0.6743
23777SOL    HW272465   7.785   2.206   2.019 -0.2617  0.0068 -0.1869
23778SOL     OW72466   8.639   1.666   8.353 -0.7458  0.1705 -0.4584
23778SOL    HW172467   8.670   1.580   8.324 -0.0433  0.3765 -0.3334
23778SOL    HW272468   8.708   1.698   8.411 -0.4327  1.3229 -1.4243
23779SOL     OW72469   5.267   7.015   8.856 -0.0722  0.2874 -0.2251
23779SOL    HW172470   5.186   7.014   8.805 -0.4877 -0.4075  0.4168
23779SOL    HW272471   5.331   6.971   8.801 -0.0734  1.0434 -0.8321
23780SOL     OW72472   3.997   7.735   6.016 -0.1511 -0.0121 -0.1936
23780SOL    HW172473   3.990   7.790   6.094  1.2376 -0.1369  0.0366
23780SOL    HW272474   4.040   7.789   5.951  0.1351 -0.4221 -0.3528
23781SOL     OW72475   7.987   3.955   0.124  0.9938 -0.3440 -0.3950
23781SOL    HW172476   8.064   3.908   0.156  0.3755  0.2024  2.1894
23781SOL    HW272477   7.997   3.959   0.029  4.5190  0.3333 -0.1108
23782SOL     OW72478   1.341   2.177   5.264  0.7845 -0.4124 -0.2339
23782SOL    HW172479   1.283   2.135   5.326  0.7070  0.2286  0.1307
23782SOL    HW272480   1.343   2.117   5.189 -0.7828 -0.1740 -0.4879
23783SOL     OW72481   3.570   6.893   6.648  0.4798 -0.0543 -0.1320
23783SOL    HW172482   3.556   6.922   6.558 -1.0909  1.3733  0.5405
23783SOL    HW272483   3.564   6.797   6.644  1.7535 -0.1110 -1.7220
23784SOL     OW72484   7.808   4.631   3.987  0.1126  0.1968  0.7844
23784SOL    HW172485   7.839   4.579   4.061 -0.6380 -0.4469  0.6528
23784SOL    HW272486   7.715   4.646   4.006 -0.7891 -2.1688 -1.2297
23785SOL     OW72487   3.087   4.444   9.106 -0.0174  0.1592 -0.2742
23785SOL    HW172488   3.042   4.371   9.063  0.9923 -0.2806 -0.6221
23785SOL    HW272489   3.053   4.443   9.196  0.1194 -0.8810 -0.2157
23786SOL     OW72490   1.598   8.241   3.506  0.2532 -0.2701 -0.5899
23786SOL    HW172491   1.583   8.336   3.499  0.5495 -0.0556  1.2080
23786SOL    HW272492   1.679   8.227   3.457  0.4099  0.4757 -0.5678
23787SOL     OW72493   0.639   2.021   0.193 -0.1069 -0.1435 -0.2626
23787SOL    HW172494   0.648   2.013   0.098 -2.2789  1.8356 -0.7191
23787SOL    HW272495   0.617   2.113   0.208  0.5361 -0.3071  2.2225
23788SOL     OW72496   0.472   5.915   5.600  0.2684  0.1262 -0.0188
23788SOL    HW172497   0.539   5.887   5.537  0.3691  3.3548 -1.5414
23788SOL    HW272498   0.519   5.923   5.683  0.7786 -1.4927 -0.1073
23789SOL     OW72499   2.325   5.724   7.645 -0.0346  0.2435 -0.1997
23789SOL    HW172500   2.332   5.742   7.551  0.4231 -0.5444 -0.3265
23789SOL    HW272501   2.405   5.676   7.666 -0.8890 -1.0534  0.2457
23790SOL     OW72502   4.932   3.117   6.360  0.5045 -0.3260  0.6279
23790SOL    HW172503   5.010   3.065   6.378  1.1630  0.4282 -0.0156
23790SOL    HW272504   4.936   3.134   6.266 -0.3614 -0.1524  0.6149
23791SOL     OW72505   4.896   5.711   7.497 -0.0550  0.5342 -0.0614
23791SOL    HW172506   4.819   5.658   7.518  0.1041  0.5709  0.6357
23791SOL    HW272507   4.940   5.723   7.581  1.9835 -1.4514 -0.7592
23792SOL     OW72508   4.650   4.946   8.570 -0.4504 -0.3891 -0.6382
23792SOL    HW172509   4.639   4.854   8.594 -1.0163 -0.6011 -1.6394
23792SOL    HW272510   4.588   4.993   8.626 -1.2314 -0.7949 -1.1448
23793SOL     OW72511   8.640   1.467   8.773  0.4375  0.1249  0.0525
23793SOL    HW172512   8.587   1.491   8.698 -0.4103 -0.1735  0.5425
23793SOL    HW272513   8.608   1.380   8.799  0.7628  0.1911  0.7103
23794SOL     OW72514   5.086   7.098   7.571  0.5412  0.9098  0.1232
23794SOL    HW172515   5.090   7.147   7.653 -0.4761 -2.4289  2.3608
23794SOL    HW272516   4.993   7.093   7.550  0.2710 -2.1843  1.5157
23795SOL     OW72517   5.116   0.634   7.045  0.0079  0.3129  1.2045
23795SOL    HW172518   5.192   0.645   7.103  0.1274 -1.3042  1.4113
23795SOL    HW272519   5.136   0.555   6.994 -0.3328  1.3753 -0.6991
23796SOL     OW72520   7.402   7.135   2.893 -0.2094  0.1158 -0.1065
23796SOL    HW172521   7.360   7.125   2.978 -0.3561 -2.3091 -0.3903
23796SOL    HW272522   7.461   7.209   2.903 -0.7379  0.3073  1.8826
23797SOL     OW72523   0.301   7.455   4.667  0.2251  0.1431 -0.8104
23797SOL    HW172524   0.243   7.425   4.597 -0.8839 -0.9643  0.5077
23797SOL    HW272525   0.318   7.376   4.719  0.3601  1.0680  0.6085
23798SOL     OW72526   5.419   1.933   1.708 -0.2020 -0.3437  0.2615
23798SOL    HW172527   5.341   1.886   1.678 -0.9573  0.7334  0.4500
23798SOL    HW272528   5.431   1.904   1.799  0.9725 -2.1953 -0.4425
23799SOL     OW72529   0.282   8.965   8.017  0.8315  0.3442 -0.6386
23799SOL    HW172530   0.309   8.874   8.003  1.0797  0.1371  1.0178
23799SOL    HW272531   0.212   8.979   7.953  0.0344 -1.3710 -0.2099
23800SOL     OW72532   1.530   0.792   4.654  0.2526  0.1364 -0.7790
23800SOL    HW172533   1.527   0.797   4.750  1.9598  0.2867 -0.7064
23800SOL    HW272534   1.493   0.876   4.625  0.3259  0.3628 -0.2279
23801SOL     OW72535   3.442   2.383   3.138 -0.5904 -0.0557 -0.1952
23801SOL    HW172536   3.351   2.372   3.164 -0.5540 -1.4289 -0.5621
23801SOL    HW272537   3.455   2.317   3.070  0.3750  0.8687 -0.9363
23802SOL     OW72538   6.795   3.634   4.874  0.2440 -0.0114 -0.4110
23802SOL    HW172539   6.777   3.598   4.961  0.0404  0.8464 -0.0820
23802SOL    HW272540   6.798   3.729   4.889 -2.9333  0.4481 -1.8577
23803SOL     OW72541   4.201   0.560   3.254  0.0908  0.2973  0.2258
23803SOL    HW172542   4.292   0.563   3.284 -0.0514  2.8539  0.5973
23803SOL    HW272543   4.187   0.644   3.210 -1.2332 -1.2590 -2.5598
23804SOL     OW72544   8.405   4.730   0.153 -0.5032  0.2987 -0.1202
23804SOL    HW172545   8.441   4.649   0.188 -0.0179  0.6872  0.2960
23804SOL    HW272546   8.360   4.704   0.073 -2.2625 -0.7418  1.1341
23805SOL     OW72547   3.649   1.735   2.457  0.4792  0.5803 -0.3973
23805SOL    HW172548   3.580   1.800   2.469  0.0157  0.3333 -1.5683
23805SOL    HW272549   3.603   1.659   2.420  1.3095  0.2709 -0.8154
23806SOL     OW72550   0.782   1.478   8.772 -0.1105 -0.0296 -0.3362
23806SOL    HW172551   0.868   1.464   8.813  1.0488  0.0807 -2.5735
23806SOL    HW272552   0.731   1.400   8.795  1.0183 -0.6834  0.0133
23807SOL     OW72553   4.442   8.604   1.398  0.3272 -0.7017 -0.0846
23807SOL    HW172554   4.531   8.570   1.389  0.8709  0.9402 -1.3397
23807SOL    HW272555   4.451   8.678   1.459 -0.4753 -1.4780  1.0103
23808SOL     OW72556   1.670   2.241   3.414 -0.2612  0.5550 -0.0235
23808SOL    HW172557   1.610   2.168   3.400  1.7936 -1.1156 -0.4924
23808SOL    HW272558   1.641   2.280   3.497  0.0784 -2.3648  1.5959
23809SOL     OW72559   7.433   1.052   2.222  0.1038 -0.2271 -0.6986
23809SOL    HW172560   7.451   1.026   2.312  0.7768  1.2057 -0.3935
23809SOL    HW272561   7.462   0.978   2.169  1.6803 -0.2520  0.1406
23810SOL     OW72562   5.940   7.415   0.152  0.3701  0.2188  0.2735
23810SOL    HW172563   5.996   7.340   0.173 -1.2397 -0.9170  0.7827
23810SOL    HW272564   5.868   7.377   0.101 -0.5880  1.3642  0.7179
23811SOL     OW72565   0.044   3.685   2.320  0.1162  0.0396 -0.2305
23811SOL    HW172566   0.102   3.761   2.334  0.4538 -0.5270  1.7211
23811SOL    HW272567   0.081   3.617   2.375 -1.8431 -0.6573  0.2804
23812SOL     OW72568   8.555   5.903   6.851  0.0648  0.3436  0.1590
23812SOL    HW172569   8.607   5.826   6.874 -1.8889 -1.0973 -0.0063
23812SOL    HW272570   8.498   5.917   6.927  2.0510  3.2609  1.3097
23813SOL     OW72571   2.311   3.804   0.778 -0.8036  0.1821 -0.1490
23813SOL    HW172572   2.400   3.826   0.804 -1.1172 -0.4733  1.6317
23813SOL    HW272573   2.269   3.889   0.763 -0.4533  0.5947  1.0835
23814SOL     OW72574   0.927   5.175   8.246  0.3963 -0.1003 -0.1621
23814SOL    HW172575   0.842   5.214   8.225  0.0507 -0.9607 -0.3925
23814SOL    HW272576   0.952   5.215   8.329 -2.6101 -3.3627  2.6684
23815SOL     OW72577   1.981   8.388   1.048  0.4195  0.1797 -0.2363
23815SOL    HW172578   1.906   8.387   0.988 -0.1756  0.0468  0.4790
23815SOL    HW272579   1.986   8.298   1.080  0.1310  0.4507  0.6070
23816SOL     OW72580   4.912   2.984   2.520 -0.3642 -0.0751 -0.2459
23816SOL    HW172581   4.852   2.971   2.446 -0.2514 -2.7239  0.0211
23816SOL    HW272582   4.991   2.936   2.495 -0.2979 -0.9823  1.5036
23817SOL     OW72583   3.370   0.685   6.516 -0.0452  0.1323 -0.7263
23817SOL    HW172584   3.286   0.670   6.561  0.6701  0.0438  0.6308
23817SOL    HW272585   3.351   0.754   6.453 -1.3273 -0.4365 -0.9859
23818SOL     OW72586   5.752   5.041   2.830 -0.0908 -0.1703 -0.7493
23818SOL    HW172587   5.694   5.047   2.754 -0.8588  0.4838 -0.1308
23818SOL    HW272588   5.698   5.071   2.904  0.9188  0.0675 -0.0929
23819SOL     OW72589   4.241   6.050   3.605 -0.1798 -1.0393 -0.3650
23819SOL    HW172590   4.182   6.019   3.536 -1.1639 -0.4632  0.1938
23819SOL    HW272591   4.196   6.126   3.643  1.7735  0.5693 -1.1325
23820SOL     OW72592   0.852   1.743   8.163  0.0790  0.2309 -0.2897
23820SOL    HW172593   0.892   1.687   8.229 -1.9629  0.3394  1.1221
23820SOL    HW272594   0.846   1.829   8.204  0.2878  0.7282 -1.2618
23821SOL     OW72595   8.135   5.506   1.868  0.0504 -0.2888  0.0646
23821SOL    HW172596   8.100   5.575   1.925 -0.1837 -0.5548  0.2521
23821SOL    HW272597   8.181   5.552   1.799 -0.0905  0.0560  0.1983
23822SOL     OW72598   0.548   1.370   8.239  0.4428 -0.5255  0.1053
23822SOL    HW172599   0.496   1.347   8.162  1.0284  0.0073 -0.4525
23822SOL    HW272600   0.636   1.383   8.206  1.0391 -1.7445  1.0881
23823SOL     OW72601   6.058   1.848   8.452 -0.2288 -0.0990  0.0092
23823SOL    HW172602   6.126   1.895   8.405 -0.6759 -0.0578 -0.5972
23823SOL    HW272603   5.994   1.824   8.385 -1.0787  0.3247  0.6495
23824SOL     OW72604   8.959   8.410   5.304  0.0402  0.3010  0.1749
23824SOL    HW172605   8.897   8.348   5.341  1.3636 -0.5250  1.1117
23824SOL    HW272606   8.981   8.374   5.218 -1.1917  0.9135 -0.4142
23825SOL     OW72607   6.147   3.213   4.324  0.4391  0.2132  0.8041
23825SOL    HW172608   6.225   3.159   4.308  0.6034  0.2414  1.4972
23825SOL    HW272609   6.106   3.221   4.238  0.5497 -0.8018  0.6490
23826SOL     OW72610   7.921   5.449   1.494  0.6952 -0.3028 -0.7055
23826SOL    HW172611   7.970   5.524   1.460  0.8239 -0.3195 -0.5559
23826SOL    HW272612   7.988   5.392   1.531  0.3891  0.6819  1.5111
23827SOL     OW72613   2.191   4.972   0.542 -0.3643  0.0776  0.0058
23827SOL    HW172614   2.283   4.952   0.525 -0.8947 -1.2352 -1.5848
23827SOL    HW272615   2.181   5.064   0.516  0.1337 -0.2737 -1.4947
23828SOL     OW72616   1.247   7.491   5.480  0.8697  0.0966  0.0982
23828SOL    HW172617   1.160   7.516   5.449  0.9113 -0.9576 -0.9668
23828SOL    HW272618   1.238   7.483   5.575 -0.3977 -0.7123 -0.0755
23829SOL     OW72619   0.016   8.565   1.854  0.1173  0.2994 -0.0470
23829SOL    HW172620  -0.004   8.657   1.871  1.2236  0.4130  0.7252
23829SOL    HW272621   0.090   8.545   1.910  1.4846 -0.3964 -1.9763
23830SOL     OW72622   1.158   3.478   3.668 -0.3253 -0.6657  0.0141
23830SOL    HW172623   1.066   3.452   3.668  0.1376 -2.4731  0.3860
23830SOL    HW272624   1.205   3.398   3.641  1.2607 -0.3408  1.6347
23831SOL     OW72625   5.205   7.718   7.166  0.1853  0.0063 -0.0282
23831SOL    HW172626   5.269   7.647   7.159  0.0016 -0.1689  0.0445
23831SOL    HW272627   5.254   7.792   7.200  0.6528  0.2784 -1.2374
23832SOL     OW72628   5.480   1.009   2.009 -0.1003 -0.3428 -0.8390
23832SOL    HW172629   5.399   0.975   2.048  0.7399 -0.2615  1.1042
23832SOL    HW272630   5.538   0.933   2.004  0.5710  0.0597  0.2474
23833SOL     OW72631   3.347   1.741   8.922  0.2799 -0.2270  0.3229
23833SOL    HW172632   3.383   1.685   8.853 -1.4961 -2.0462  0.7868
23833SOL    HW272633   3.263   1.772   8.887 -1.2897 -2.2401  2.0498
23834SOL     OW72634   5.114   5.205   4.568 -0.5251  0.3332  0.1168
23834SOL    HW172635   5.092   5.165   4.484 -0.7375  1.3895 -0.3494
23834SOL    HW272636   5.068   5.289   4.566  1.2778  1.3525  0.3209
23835SOL     OW72637   3.104   5.964   0.194  0.1626  0.2957  0.2606
23835SOL    HW172638   3.076   5.889   0.141  0.0468  0.9521 -0.6185
23835SOL    HW272639   3.195   5.945   0.217  0.8629  0.9111 -1.8412
23836SOL     OW72640   4.326   2.858   7.399 -0.3476 -0.4482  0.0485
23836SOL    HW172641   4.292   2.802   7.468 -2.0105  0.0016 -0.3441
23836SOL    HW272642   4.326   2.946   7.437 -3.1222  0.1323 -1.0093
23837SOL     OW72643   4.668   0.468   2.343 -0.6696 -0.2229  0.1225
23837SOL    HW172644   4.665   0.563   2.339  0.4250  0.0535  3.0955
23837SOL    HW272645   4.580   0.442   2.368 -0.7996  0.0574 -0.0389
23838SOL     OW72646   4.041   8.897   8.674  0.0120  0.2177  0.3309
23838SOL    HW172647   3.953   8.883   8.709  0.1218 -0.1220  0.4858
23838SOL    HW272648   4.049   8.833   8.603  0.0096  0.4846  0.0920
23839SOL     OW72649   5.895   0.854   8.277 -0.5128  0.1971 -0.2346
23839SOL    HW172650   5.894   0.915   8.350 -0.7421 -0.3126  0.2016
23839SOL    HW272651   5.817   0.876   8.226  0.2137  1.2402 -0.9196
23840SOL     OW72652   8.174   1.432   2.005 -0.5525 -0.2475 -0.4076
23840SOL    HW172653   8.215   1.448   2.090 -0.0621 -1.0260 -0.4917
23840SOL    HW272654   8.247   1.413   1.946 -1.0133 -1.6176 -0.5669
23841SOL     OW72655   8.576   5.617   3.092  0.8458 -0.2693 -0.0886
23841SOL    HW172656   8.670   5.627   3.073  1.0019 -0.5650  0.4836
23841SOL    HW272657   8.573   5.548   3.159  0.1138 -1.2835 -1.1293
23842SOL     OW72658   6.293   5.602   5.992  0.5133  0.0760 -0.1468
23842SOL    HW172659   6.369   5.653   6.022  0.4649  0.1927 -0.2234
23842SOL    HW272660   6.219   5.662   6.003  0.0301 -0.8213  2.3058
23843SOL     OW72661   2.916   6.597   8.310  0.3413  0.3648 -0.3769
23843SOL    HW172662   2.943   6.555   8.392  0.4573 -0.2228 -0.7103
23843SOL    HW272663   2.983   6.663   8.293  1.4776 -0.9375 -1.0938
23844SOL     OW72664   7.093   2.198   5.647  0.0663  0.0080  0.3745
23844SOL    HW172665   7.010   2.159   5.672  0.2887  0.8856  2.7172
23844SOL    HW272666   7.157   2.127   5.655 -0.0371  0.0134  1.4255
23845SOL     OW72667   8.771   6.471   7.849  0.2640 -0.2670  0.2478
23845SOL    HW172668   8.862   6.442   7.859  0.0125 -0.9563  0.6282
23845SOL    HW272669   8.719   6.397   7.881 -0.4347  0.0356 -0.1794
23846SOL     OW72670   8.754   5.820   2.721  0.0879  0.4608  0.1475
23846SOL    HW172671   8.817   5.820   2.793 -0.0388  1.1840  0.2696
23846SOL    HW272672   8.781   5.748   2.665  0.5119  0.2302  0.6416
23847SOL     OW72673   8.047   7.739   3.876  0.3678 -0.4102 -0.0818
23847SOL    HW172674   7.958   7.705   3.871  0.2531 -0.1403  0.1311
23847SOL    HW272675   8.085   7.696   3.952  0.4125 -0.5052 -0.1572
23848SOL     OW72676   8.599   1.462   2.090  0.0682  0.6454 -0.1641
23848SOL    HW172677   8.644   1.543   2.114 -0.0463  0.5499  0.4043
23848SOL    HW272678   8.532   1.451   2.158  0.5731 -0.3140  0.2101
23849SOL     OW72679   0.120   7.418   1.975 -0.0682 -0.8589 -0.0650
23849SOL    HW172680   0.113   7.513   1.961 -1.9441 -1.1853 -2.0001
23849SOL    HW272681   0.142   7.383   1.888 -1.9688 -2.3499 -0.0244
23850SOL     OW72682   5.561   8.943   7.715  0.4059 -0.1281 -0.3075
23850SOL    HW172683   5.518   9.000   7.779  0.7661 -0.6026  0.3740
23850SOL    HW272684   5.654   8.946   7.740  0.8516  1.0988 -1.9085
23851SOL     OW72685   7.852   4.570   7.944  0.3055 -0.5601 -0.5772
23851SOL    HW172686   7.847   4.538   8.034 -0.0529  0.1675 -0.3305
23851SOL    HW272687   7.767   4.550   7.906  0.1778 -0.1689 -0.5066
23852SOL     OW72688   3.022   5.225   7.510 -0.2925 -0.1502  0.2621
23852SOL    HW172689   2.930   5.201   7.512  0.0863 -2.3911 -2.5830
23852SOL    HW272690   3.031   5.282   7.434  0.9616 -1.7207 -0.8240
23853SOL     OW72691   7.738   2.898   1.339  0.3203 -0.1830 -0.2224
23853SOL    HW172692   7.739   2.803   1.325 -0.2533 -0.2828  0.3853
23853SOL    HW272693   7.818   2.916   1.388  0.5099 -0.3241 -0.4735
23854SOL     OW72694   5.047   2.974   8.553 -0.2850  0.3057 -0.1829
23854SOL    HW172695   4.988   3.041   8.587 -0.1675 -0.9430  2.7054
23854SOL    HW272696   5.012   2.892   8.585  0.1455 -1.0228 -2.8004
23855SOL     OW72697   5.695   5.134   5.524 -0.4278  0.1054  0.2816
23855SOL    HW172698   5.645   5.097   5.452 -1.7675 -0.8626  1.6635
23855SOL    HW272699   5.787   5.119   5.499 -0.8174  0.4422 -1.5218
23856SOL     OW72700   5.460   1.627   4.605 -0.1940  0.4392 -0.3138
23856SOL    HW172701   5.519   1.640   4.530 -1.3968 -0.3526 -1.4402
23856SOL    HW272702   5.489   1.545   4.644  1.1802  1.4261  0.8500
23857SOL     OW72703   3.575   7.123   6.798  0.0063 -0.4344  0.0607
23857SOL    HW172704   3.599   7.042   6.753  0.0907 -0.4629  0.1583
23857SOL    HW272705   3.492   7.149   6.757 -0.3812 -0.9430  0.5135
23858SOL     OW72706   3.470   0.754   7.391  0.3123 -0.0894 -0.4966
23858SOL    HW172707   3.511   0.713   7.315  0.6148 -2.6703  0.9291
23858SOL    HW272708   3.377   0.732   7.383 -0.0193  1.3810 -1.0957
23859SOL     OW72709   0.916   1.733   6.464  0.1354 -0.2768  0.2417
23859SOL    HW172710   0.962   1.790   6.402 -0.4850  0.5429  0.5186
23859SOL    HW272711   0.835   1.779   6.483 -0.6532 -1.5361  0.0449
23860SOL     OW72712   0.126   4.714   8.753 -0.4618 -0.0307 -0.2313
23860SOL    HW172713   0.091   4.632   8.788 -0.0344  0.0402  0.3688
23860SOL    HW272714   0.218   4.695   8.734  0.4378  1.0946  2.6232
23861SOL     OW72715   4.388   1.831   8.846  0.8068 -0.7426  0.1297
23861SOL    HW172716   4.365   1.923   8.833  2.8958 -0.1177  0.4878
23861SOL    HW272717   4.308   1.783   8.825 -0.6084  1.1917  0.7703
23862SOL     OW72718   0.606   3.078   5.801  0.0276 -0.0112  0.1362
23862SOL    HW172719   0.595   2.994   5.756 -1.8951 -0.9432  2.1585
23862SOL    HW272720   0.531   3.131   5.774 -0.3420 -0.0398  1.0709
23863SOL     OW72721   8.399   9.009   4.835 -0.5441  0.6494  0.4076
23863SOL    HW172722   8.466   9.035   4.898 -1.5209  1.3691  1.1982
23863SOL    HW272723   8.321   8.994   4.889 -0.9409 -0.4831 -0.4489
23864SOL     OW72724   5.761   2.868   4.685 -0.3396  0.6227 -0.4564
23864SOL    HW172725   5.725   2.900   4.602 -1.7715  0.1362 -0.0373
23864SOL    HW272726   5.686   2.860   4.743  0.0160 -2.6190 -0.2470
23865SOL     OW72727   3.790   1.390   4.024  0.0403  0.0317 -0.5335
23865SOL    HW172728   3.871   1.362   3.981 -0.3861 -0.0914 -1.2900
23865SOL    HW272729   3.724   1.386   3.954 -0.4228  1.0636 -0.1703
23866SOL     OW72730   8.596   0.379   6.873 -0.4622 -0.2801  0.4124
23866SOL    HW172731   8.554   0.295   6.853 -1.1371 -0.1910  1.3632
23866SOL    HW272732   8.654   0.359   6.947 -0.1614 -0.0349  0.2425
23867SOL     OW72733   5.552   7.926   7.414 -0.2197  0.5272 -0.4963
23867SOL    HW172734   5.599   7.937   7.496 -1.1054  1.9128 -0.1572
23867SOL    HW272735   5.601   7.857   7.368  0.6496  0.1728  0.9010
23868SOL     OW72736   2.029   8.877   6.535 -0.3143 -0.0463 -0.0531
23868SOL    HW172737   1.947   8.882   6.585 -0.0364 -0.4614  0.4539
23868SOL    HW272738   2.011   8.813   6.467  0.0241 -1.1914  0.9124
23869SOL     OW72739   3.406   5.778   4.957 -0.6915 -0.1061  0.2781
23869SOL    HW172740   3.347   5.826   5.016  0.0662  0.1206  0.8625
23869SOL    HW272741   3.485   5.832   4.953  0.3237 -1.4388  1.2361
23870SOL     OW72742   8.533   4.980   5.878 -0.4561 -0.7687 -0.1996
23870SOL    HW172743   8.573   4.904   5.921 -2.0691 -1.9375 -0.6495
23870SOL    HW272744   8.579   4.987   5.795  0.5783 -0.4325  0.3870
23871SOL     OW72745   1.436   2.287   3.121  0.4738  0.5535 -0.0846
23871SOL    HW172746   1.370   2.276   3.053  0.4260  1.0749 -0.1295
23871SOL    HW272747   1.387   2.295   3.203  0.5939 -1.8181  0.2709
23872SOL     OW72748   8.214   3.491   3.440 -0.6101 -0.0096 -0.0414
23872SOL    HW172749   8.157   3.446   3.378  0.0683 -0.1114 -0.6023
23872SOL    HW272750   8.271   3.545   3.386  0.9882 -1.2135  0.3720
23873SOL     OW72751   5.673   6.921   6.449 -0.4914 -0.3595  0.4602
23873SOL    HW172752   5.612   6.995   6.444 -1.7565 -1.1639  2.7505
23873SOL    HW272753   5.646   6.863   6.378 -1.0199  0.2606  0.1437
23874SOL     OW72754   0.374   1.336   6.320 -0.2039 -0.0760 -0.1670
23874SOL    HW172755   0.387   1.402   6.388  0.8065 -0.5247  0.0932
23874SOL    HW272756   0.283   1.347   6.293 -0.0616  1.4073 -0.1195
23875SOL     OW72757   6.271   0.199   2.547  0.8239 -0.2518  0.4048
23875SOL    HW172758   6.297   0.147   2.471  1.5523  0.1723  0.3452
23875SOL    HW272759   6.218   0.270   2.511  1.8453  0.4182  0.1675
23876SOL     OW72760   5.559   5.471   8.704 -0.1206 -0.2936  0.0679
23876SOL    HW172761   5.505   5.462   8.626 -0.6952  0.4254  0.3652
23876SOL    HW272762   5.648   5.450   8.675 -0.0728  1.3577 -1.1258
23877SOL     OW72763   8.041   2.834   7.413 -0.0728 -0.9228 -0.1772
23877SOL    HW172764   7.974   2.837   7.346  1.4636 -2.5282 -1.9167
23877SOL    HW272765   8.029   2.749   7.456 -0.2671 -0.4360  0.7709
23878SOL     OW72766   3.485   1.288   5.583 -0.4644 -0.3615  0.1720
23878SOL    HW172767   3.414   1.225   5.593 -0.4576 -0.4025 -0.0258
23878SOL    HW272768   3.501   1.291   5.488 -1.2555  0.8170  0.0540
23879SOL     OW72769   3.505   3.490   4.643 -0.3097 -0.0908  0.5468
23879SOL    HW172770   3.528   3.441   4.722 -2.9407 -0.1757  1.3551
23879SOL    HW272771   3.412   3.511   4.654 -0.7455  0.0051 -2.4653
23880SOL     OW72772   5.348   6.767   7.991 -0.1517  0.1409 -0.4464
23880SOL    HW172773   5.360   6.691   8.048  3.3415 -0.0646 -1.2366
23880SOL    HW272774   5.435   6.807   7.986 -0.7420  1.3180 -3.9754
23881SOL     OW72775   5.775   0.709   4.766 -0.3711  0.6784 -0.2041
23881SOL    HW172776   5.719   0.769   4.814  1.5446  2.2872  0.1772
23881SOL    HW272777   5.774   0.742   4.676 -1.8001 -0.6895 -0.7340
23882SOL     OW72778   0.943   1.013   6.171 -0.3244  0.2755  0.1515
23882SOL    HW172779   0.854   0.978   6.172 -0.4857  0.6791  0.3335
23882SOL    HW272780   0.965   1.026   6.264 -0.5042  1.2263  0.0733
23883SOL     OW72781   6.626   7.313   2.974 -0.3424  0.3370  0.1627
23883SOL    HW172782   6.625   7.282   3.064 -1.3311  0.2030  0.1147
23883SOL    HW272783   6.552   7.269   2.932  0.9469 -0.7398 -1.1090
23884SOL     OW72784   4.924   4.195   6.146 -0.3681  0.5481  0.3513
23884SOL    HW172785   4.889   4.170   6.061  0.1443  1.9595 -0.3091
23884SOL    HW272786   4.999   4.137   6.159 -0.3850  0.3985 -0.2084
23885SOL     OW72787   6.789   2.242   0.059  0.2730 -0.4818 -0.0850
23885SOL    HW172788   6.778   2.328   0.099 -2.3689 -0.3963 -0.8716
23885SOL    HW272789   6.773   2.180   0.131 -0.3874 -0.3128 -0.0806
23886SOL     OW72790   1.576   7.069   1.678  0.4699 -0.2708  0.4628
23886SOL    HW172791   1.512   7.024   1.734 -0.5318 -0.3486 -0.6961
23886SOL    HW272792   1.617   6.999   1.627 -0.3020 -0.0187 -0.5480
23887SOL     OW72793   0.748   5.389   6.726  0.3790  0.2367 -0.2304
23887SOL    HW172794   0.682   5.325   6.698 -0.9671  0.7811  1.4960
23887SOL    HW272795   0.805   5.340   6.786  1.4271 -0.1590 -1.5003
23888SOL     OW72796   0.291   5.060   7.355  0.2527  0.1667 -0.1808
23888SOL    HW172797   0.206   5.032   7.322  0.6942 -0.9411 -0.4309
23888SOL    HW272798   0.347   4.983   7.345  1.1717  0.7404  0.3900
23889SOL     OW72799   2.807   4.928   4.095 -0.1958 -0.3697  0.4072
23889SOL    HW172800   2.778   4.918   4.004  2.1556  0.6230 -0.5426
23889SOL    HW272801   2.789   5.019   4.117  1.6354  0.1390 -0.0474
23890SOL     OW72802   3.036   6.531   8.557 -0.3423  0.1741  0.1891
23890SOL    HW172803   3.117   6.515   8.605  0.7010  1.3349 -1.1075
23890SOL    HW272804   2.988   6.594   8.611  1.9199  3.4060 -1.2679
23891SOL     OW72805   4.706   1.143   0.967  0.0858  0.5579 -0.0449
23891SOL    HW172806   4.661   1.187   0.895  0.7250 -0.1300 -0.8974
23891SOL    HW272807   4.799   1.166   0.955  0.4533 -1.0586 -0.5909
23892SOL     OW72808   3.060   6.430   3.359  0.3779 -0.1284  0.1444
23892SOL    HW172809   3.091   6.366   3.295  1.3177  0.3289  0.1135
23892SOL    HW272810   3.060   6.383   3.443 -0.2209 -0.5395 -0.0811
23893SOL     OW72811   2.677   6.050   6.593  0.1075 -0.1304 -0.4225
23893SOL    HW172812   2.661   6.118   6.659 -0.6851 -0.9240  0.2327
23893SOL    HW272813   2.604   5.989   6.604  1.6745 -1.9696  0.1288
23894SOL     OW72814   0.179   5.551   5.287 -0.6195 -0.3203  0.2051
23894SOL    HW172815   0.257   5.606   5.285 -1.1259  0.4536  0.9895
23894SOL    HW272816   0.164   5.526   5.196  0.3444 -0.1998  0.0078
23895SOL     OW72817   3.939   6.437   2.820 -0.4820 -0.0243  0.2160
23895SOL    HW172818   4.017   6.458   2.769 -0.9589 -0.2774 -0.6434
23895SOL    HW272819   3.893   6.521   2.829  0.1116  0.2087  1.1163
23896SOL     OW72820   1.800   5.546   6.714  0.4056  0.0160  0.5133
23896SOL    HW172821   1.791   5.487   6.639 -0.2960 -0.3339  0.8645
23896SOL    HW272822   1.718   5.596   6.714  1.2976  1.5377 -0.2300
23897SOL     OW72823   7.114   2.649   6.590  0.0131 -0.1853  0.4850
23897SOL    HW172824   7.027   2.687   6.596  0.0263 -0.0234 -0.2617
23897SOL    HW272825   7.162   2.708   6.532  0.0235 -1.3411 -0.7330
23898SOL     OW72826   3.762   1.611   0.337 -0.3470  0.1158  0.1790
23898SOL    HW172827   3.766   1.518   0.358 -1.7534  0.0916  0.3854
23898SOL    HW272828   3.757   1.614   0.241  0.1862  0.0073  0.1450
23899SOL     OW72829   0.463   4.796   7.422  0.1870 -0.0438  0.1581
23899SOL    HW172830   0.420   4.718   7.387  0.5258 -0.0569 -0.2459
23899SOL    HW272831   0.464   4.782   7.517  0.3683 -0.6000  0.0820
23900SOL     OW72832   2.113   5.776   8.362  0.1335 -0.4388 -0.2163
23900SOL    HW172833   2.150   5.847   8.310 -0.5816  0.9222  1.0577
23900SOL    HW272834   2.034   5.813   8.401 -0.0367 -1.7997  0.8214
23901SOL     OW72835   4.612   6.757   5.111 -0.0679 -0.2969  0.2653
23901SOL    HW172836   4.658   6.743   5.028 -0.7524  0.4536 -0.2545
23901SOL    HW272837   4.651   6.837   5.146 -0.2245 -0.2633  0.3593
23902SOL     OW72838   7.170   1.737   7.480  0.3739  0.9207  0.1593
23902SOL    HW172839   7.204   1.672   7.419  1.2804  1.2889  0.2550
23902SOL    HW272840   7.194   1.821   7.441 -0.9687  1.2195 -0.0726
23903SOL     OW72841   1.420   2.452   7.811 -0.2366 -0.0867  0.1480
23903SOL    HW172842   1.485   2.383   7.815  0.5823  0.7053  1.2716
23903SOL    HW272843   1.461   2.521   7.758 -1.4777 -0.8402 -1.9207
23904SOL     OW72844   1.357   3.155   1.345  0.0767 -0.3373  0.4116
23904SOL    HW172845   1.356   3.240   1.387 -2.2870  0.5996 -1.3468
23904SOL    HW272846   1.424   3.164   1.276  1.1424 -0.5738  1.3824
23905SOL     OW72847   5.687   3.329   8.591  0.3716  0.4084  0.2709
23905SOL    HW172848   5.629   3.293   8.658 -0.9706 -0.4238 -1.2761
23905SOL    HW272849   5.775   3.307   8.622 -0.2794 -1.5196  0.9353
23906SOL     OW72850   6.007   7.671   2.488 -0.6266 -0.2868  0.3498
23906SOL    HW172851   6.062   7.748   2.475  0.8523 -1.6094 -1.8928
23906SOL    HW272852   5.919   7.700   2.466 -0.2764  0.9907  0.5444
23907SOL     OW72853   1.257   5.527   5.698  0.4715  0.4644 -0.4831
23907SOL    HW172854   1.217   5.486   5.622 -1.4080 -1.6721  1.4866
23907SOL    HW272855   1.268   5.455   5.761  0.9717  2.2775  1.6452
23908SOL     OW72856   7.829   8.806   1.269  0.2539  0.0667 -0.7215
23908SOL    HW172857   7.760   8.861   1.233  0.8223  1.1874 -0.1416
23908SOL    HW272858   7.818   8.812   1.364  1.4854  0.7434 -0.5950
23909SOL     OW72859   5.120   7.428   1.250 -0.4534  0.2915  0.1789
23909SOL    HW172860   5.175   7.428   1.172  1.3854 -1.3702  1.3484
23909SOL    HW272861   5.051   7.491   1.232  1.4088  1.9394 -1.7246
23910SOL     OW72862   3.520   0.327   1.225 -0.4190  0.0034  0.2769
23910SOL    HW172863   3.600   0.376   1.202  0.7107 -1.4469  0.9340
23910SOL    HW272864   3.453   0.394   1.235  1.0012  1.4081  0.8978
23911SOL     OW72865   3.548   2.106   6.280  0.0946 -0.6702  0.6851
23911SOL    HW172866   3.486   2.054   6.229 -1.2425 -0.3434  1.8909
23911SOL    HW272867   3.584   2.044   6.344 -0.1722 -0.5353  0.9748
23912SOL     OW72868   1.348   6.280   1.783  0.0550 -0.8418  0.0913
23912SOL    HW172869   1.391   6.195   1.777  1.7820 -0.2073  2.1917
23912SOL    HW272870   1.336   6.307   1.692  0.0170 -3.0304 -0.6044
23913SOL     OW72871   6.949   4.973   8.788  0.5882  0.4476 -0.2292
23913SOL    HW172872   6.911   4.907   8.731 -1.4721  1.3186  0.0444
23913SOL    HW272873   6.965   4.928   8.870 -1.0439  0.2983  0.0408
23914SOL     OW72874   1.226   9.029   9.083 -0.6133 -0.4671  0.3864
23914SOL    HW172875   1.138   9.052   9.114  0.3556 -0.6175  3.6209
23914SOL    HW272876   1.228   8.933   9.090  0.1684 -0.3779  1.4872
23915SOL     OW72877   0.679   1.595   8.003 -0.1156  0.3578  0.1384
23915SOL    HW172878   0.730   1.645   8.066 -0.2165  1.0514 -0.3194
23915SOL    HW272879   0.604   1.651   7.982  0.4576  0.6089 -1.3685
23916SOL     OW72880   5.519   1.146   2.761  0.0985 -0.3869 -0.0693
23916SOL    HW172881   5.476   1.232   2.769  0.6339 -0.1182  0.0140
23916SOL    HW272882   5.603   1.158   2.807  1.5504 -0.0115 -2.6436
23917SOL     OW72883   9.082   6.439   4.894  0.4364  0.0175 -0.6001
23917SOL    HW172884   8.988   6.448   4.879  0.4564 -1.0049 -1.4851
23917SOL    HW272885   9.089   6.394   4.978  0.1156 -0.0149 -0.5893
23918SOL     OW72886   3.334   1.354   7.443 -0.2124  0.2587  0.2781
23918SOL    HW172887   3.372   1.333   7.528 -0.7090 -4.1987 -0.3298
23918SOL    HW272888   3.394   1.313   7.380 -0.0697  3.0653 -1.5888
23919SOL     OW72889   2.632   0.723   2.734 -0.2264  0.4325 -0.0701
23919SOL    HW172890   2.551   0.768   2.706 -1.6243 -1.8966 -0.0302
23919SOL    HW272891   2.649   0.659   2.665 -0.5555 -1.5890  1.6086
23920SOL     OW72892   7.438   0.366   7.939 -0.5705  0.3502  0.3093
23920SOL    HW172893   7.416   0.404   7.855 -0.6301 -1.3216 -0.4679
23920SOL    HW272894   7.498   0.294   7.918 -1.4760 -0.8271  1.5593
23921SOL     OW72895   0.444   6.047   7.340 -0.0732 -0.0006 -0.1359
23921SOL    HW172896   0.431   6.016   7.250 -2.8066 -2.9490  1.0901
23921SOL    HW272897   0.373   6.111   7.353  0.9814  1.2525 -0.3372
23922SOL     OW72898   2.627   3.322   4.304  0.0355 -0.9037 -0.4065
23922SOL    HW172899   2.590   3.344   4.389  1.6986 -0.4924  0.2410
23922SOL    HW272900   2.588   3.385   4.243  1.8483  1.4818  0.7639
23923SOL     OW72901   0.238   0.997   1.649  0.2838  0.0006  0.3722
23923SOL    HW172902   0.325   0.957   1.646  0.3782 -0.0177  2.1926
23923SOL    HW272903   0.248   1.079   1.602  1.3096  0.0087  0.5842
23924SOL     OW72904   5.534   7.781   0.997 -0.1358 -0.1250  0.4057
23924SOL    HW172905   5.586   7.702   1.010  0.5346 -0.4308 -3.0664
23924SOL    HW272906   5.449   7.750   0.966 -0.1499  0.4757 -0.1893
23925SOL     OW72907   3.306   5.022   0.125  0.0368  0.3684 -0.4023
23925SOL    HW172908   3.260   4.939   0.140 -0.4895  0.6408 -0.4802
23925SOL    HW272909   3.357   5.007   0.046  0.8002 -0.2299  0.1798
23926SOL     OW72910   8.116   1.900   7.036 -0.0213 -0.1138 -0.3487
23926SOL    HW172911   8.110   1.991   7.065  0.1773 -0.3964  0.6221
23926SOL    HW272912   8.063   1.851   7.098 -0.6454 -0.5961 -1.2410
23927SOL     OW72913   7.583   5.555   1.115  0.4050  0.2726  0.0291
23927SOL    HW172914   7.651   5.608   1.156  0.7201 -0.6568  0.7619
23927SOL    HW272915   7.508   5.561   1.174 -0.1472  1.2238 -0.7332
23928SOL     OW72916   4.157   5.876   1.906  0.5792  0.1209 -0.1271
23928SOL    HW172917   4.072   5.837   1.928  0.9864  0.5645  2.5074
23928SOL    HW272918   4.221   5.810   1.932  1.1160  0.5160 -0.4303
23929SOL     OW72919   5.557   5.291   4.047 -0.3526 -0.4804  1.1246
23929SOL    HW172920   5.644   5.287   4.087  0.0410 -0.8256  0.2797
23929SOL    HW272921   5.530   5.382   4.057  1.4118  0.4166 -1.1817
23930SOL     OW72922   0.909   0.633   2.883  0.8840 -0.2747  0.2470
23930SOL    HW172923   0.881   0.560   2.826  0.0879  0.9287 -0.9758
23930SOL    HW272924   1.003   0.619   2.895  1.5867  0.5101 -3.1747
23931SOL     OW72925   6.580   8.081   4.405  0.5255 -0.1965  0.1554
23931SOL    HW172926   6.581   8.120   4.317  1.1602  0.9328  0.6384
23931SOL    HW272927   6.512   8.129   4.452 -1.1321 -2.0528 -0.2151
23932SOL     OW72928   1.396   5.599   3.689 -0.1282 -0.0707  0.2072
23932SOL    HW172929   1.355   5.512   3.690  0.3009 -0.3434 -1.8519
23932SOL    HW272930   1.323   5.660   3.685 -0.4048 -0.4772 -1.4358
23933SOL     OW72931   2.322   3.070   4.706 -0.2394 -0.1992  0.3177
23933SOL    HW172932   2.380   3.146   4.707 -0.7837  0.2413  1.7721
23933SOL    HW272933   2.290   3.063   4.797 -0.6710 -1.8030  0.0735
23934SOL     OW72934   8.966   7.804   8.178  0.0697  0.6376  0.3606
23934SOL    HW172935   9.021   7.830   8.104 -0.5817 -0.9943 -0.7603
23934SOL    HW272936   9.027   7.770   8.243  0.4893 -3.3139 -1.7370
23935SOL     OW72937   4.583   7.517   6.235  0.0892 -0.2286 -0.3844
23935SOL    HW172938   4.635   7.486   6.161 -0.1526  0.3796 -0.8102
23935SOL    HW272939   4.596   7.612   6.236 -0.4803 -0.1484 -0.0894
23936SOL     OW72940   4.000   7.334   2.893  0.0866  0.0299 -0.2969
23936SOL    HW172941   4.021   7.322   2.800  3.1019 -1.4331  0.4418
23936SOL    HW272942   3.970   7.248   2.922 -0.4292  0.3741  0.2073
23937SOL     OW72943   0.284   4.200   4.919  0.2334  0.1096 -0.4785
23937SOL    HW172944   0.247   4.114   4.901 -1.0640  0.4145  0.5956
23937SOL    HW272945   0.216   4.262   4.894 -0.0763  0.6827  1.5646
23938SOL     OW72946   2.276   5.389   5.778  0.4661  0.1194  0.0925
23938SOL    HW172947   2.326   5.462   5.815 -1.4584  0.9693  1.1363
23938SOL    HW272948   2.343   5.334   5.736  2.4954  0.4127  2.6318
23939SOL     OW72949   6.708   2.501   0.996  0.0130 -0.1706  0.2656
23939SOL    HW172950   6.760   2.427   0.964  0.4193 -1.4455  3.4695
23939SOL    HW272951   6.618   2.478   0.977  0.2922  0.0257 -1.4847
23940SOL     OW72952   6.049   7.824   3.715  0.1189  0.3573 -0.2617
23940SOL    HW172953   6.053   7.854   3.806 -1.3300 -0.6312  0.1626
23940SOL    HW272954   6.112   7.752   3.711  0.2662  0.4734 -0.0789
23941SOL     OW72955   7.688   6.267   0.623  0.1894 -0.6567 -0.7167
23941SOL    HW172956   7.693   6.251   0.717  3.2361  0.8800 -0.4811
23941SOL    HW272957   7.698   6.181   0.583  0.5678 -1.1331  0.3697
23942SOL     OW72958   6.379   8.672   4.172  0.1565 -0.2592  0.0366
23942SOL    HW172959   6.430   8.746   4.138 -1.3695  0.7399 -0.1401
23942SOL    HW272960   6.382   8.684   4.267  2.4927 -1.7673  0.2431
23943SOL     OW72961   4.023   5.068   0.999  0.4166 -0.0322  0.8177
23943SOL    HW172962   3.930   5.066   0.974 -0.2302  0.3501  2.9412
23943SOL    HW272963   4.048   4.976   1.006 -0.3890 -0.1865  2.0422
23944SOL     OW72964   7.230   4.189   0.343 -0.0339 -0.0643  0.1039
23944SOL    HW172965   7.275   4.243   0.407 -2.0922 -0.1886  1.7598
23944SOL    HW272966   7.229   4.101   0.382  0.2758 -0.5648 -0.9742
23945SOL     OW72967   0.621   2.892   6.756  0.0381 -0.1806  0.0236
23945SOL    HW172968   0.588   2.851   6.836 -2.2802 -1.2763 -1.3967
23945SOL    HW272969   0.618   2.986   6.774 -0.6080 -0.4083  1.1698
23946SOL     OW72970   3.877   7.910   8.993 -0.2043 -0.3846  0.4697
23946SOL    HW172971   3.850   7.866   9.074 -0.4106  0.8223  1.0844
23946SOL    HW272972   3.832   7.862   8.923 -1.8766 -0.0613  1.2580
23947SOL     OW72973   3.356   7.659   6.100 -0.6039  0.3857 -0.2645
23947SOL    HW172974   3.292   7.638   6.168  0.7103  0.5918  1.0777
23947SOL    HW272975   3.439   7.626   6.134 -0.2722 -1.7425 -2.8906
23948SOL     OW72976   2.805   8.040   8.139 -0.7598 -0.2746 -0.2809
23948SOL    HW172977   2.844   8.126   8.157 -0.3612 -0.3985 -0.5313
23948SOL    HW272978   2.714   8.059   8.115 -0.5121  0.1324 -0.9306
23949SOL     OW72979   1.740   1.335   6.207 -0.3681  0.2321  0.1596
23949SOL    HW172980   1.697   1.251   6.193 -0.7910  0.5850 -0.7654
23949SOL    HW272981   1.679   1.399   6.170  0.8784  0.7610 -1.0520
23950SOL     OW72982   4.396   2.157   7.446  0.8874  0.3269  1.2726
23950SOL    HW172983   4.451   2.108   7.507 -0.7841 -2.1819  0.8969
23950SOL    HW272984   4.384   2.098   7.371 -0.1861  1.8389  0.1919
23951SOL     OW72985   3.848   3.460   2.569 -0.0280 -0.2105  0.3206
23951SOL    HW172986   3.855   3.459   2.664 -0.5344 -1.0487  0.3598
23951SOL    HW272987   3.879   3.547   2.543  0.4440 -0.1053  1.2205
23952SOL     OW72988   2.338   8.187   1.035  0.3668  0.3178  0.0392
23952SOL    HW172989   2.319   8.277   1.009 -1.2648  0.4626  1.5693
23952SOL    HW272990   2.401   8.195   1.106  1.2170  0.1695 -0.6888
23953SOL     OW72991   3.680   8.099   9.038  0.0606  0.0087 -0.1503
23953SOL    HW172992   3.719   8.184   9.056  2.0847 -0.0935 -3.3253
23953SOL    HW272993   3.751   8.036   9.055  0.5398 -0.4351 -3.2911
23954SOL     OW72994   3.884   3.977   6.454 -0.0034 -0.6565  0.4117
23954SOL    HW172995   3.974   4.010   6.455  0.4225 -1.6716 -1.1657
23954SOL    HW272996   3.885   3.904   6.515 -0.3615  0.6990  2.1139
23955SOL     OW72997   2.214   2.886   7.614  0.2836 -0.2643  0.3059
23955SOL    HW172998   2.145   2.950   7.601  0.9398  0.4098  0.0923
23955SOL    HW272999   2.280   2.907   7.548  1.2628 -0.1080  1.2999
23956SOL     OW73000   6.423   0.591   3.144 -0.1442  0.7853 -0.6294
23956SOL    HW173001   6.502   0.572   3.194  0.1096  1.3743 -0.7959
23956SOL    HW273002   6.355   0.538   3.185  0.3145  0.3581 -0.4168
23957SOL     OW73003   4.849   9.033   1.060 -0.1625 -0.4661  0.2176
23957SOL    HW173004   4.829   8.952   1.014  0.3531 -0.7143  0.4320
23957SOL    HW273005   4.944   9.039   1.060 -0.1790 -0.1128  0.6424
23958SOL     OW73006   3.657   1.884   5.285 -1.1114  0.3637  0.2586
23958SOL    HW173007   3.609   1.926   5.214 -3.4554 -2.4950 -0.0393
23958SOL    HW273008   3.689   1.802   5.248  2.2037  1.1236  1.1327
23959SOL     OW73009   3.458   4.755   5.158  0.1216  0.3806 -0.4546
23959SOL    HW173010   3.449   4.755   5.254 -3.6884 -0.8089 -0.6579
23959SOL    HW273011   3.409   4.831   5.129  0.4144  0.1832 -1.4995
23960SOL     OW73012   3.805   1.365   0.425  0.1313 -0.1449 -0.1585
23960SOL    HW173013   3.870   1.305   0.463 -0.5801  0.0272  1.4021
23960SOL    HW273014   3.722   1.318   0.431 -0.2637  0.5642  0.0916
23961SOL     OW73015   4.783   1.539   2.149  0.0665 -0.2404 -0.0794
23961SOL    HW173016   4.846   1.467   2.148  1.2181  0.7347 -0.1050
23961SOL    HW273017   4.836   1.617   2.134 -0.8115  0.8716  2.1599
23962SOL     OW73018   3.884   8.595   6.329 -0.1483  0.2897 -0.1626
23962SOL    HW173019   3.952   8.533   6.302 -0.4087 -1.0471  1.9917
23962SOL    HW273020   3.887   8.664   6.263  2.7412 -0.1227 -0.6192
23963SOL     OW73021   8.632   1.876   3.095 -0.1632  0.1281  0.0108
23963SOL    HW173022   8.667   1.951   3.046 -0.5867  0.7066  0.5790
23963SOL    HW273023   8.674   1.882   3.181 -0.9568  0.2990  0.3909
23964SOL     OW73024   2.496   8.225   1.276  0.0248  0.7361  0.4336
23964SOL    HW173025   2.544   8.217   1.359 -1.7630  0.8518  1.5386
23964SOL    HW273026   2.420   8.280   1.298 -1.0505 -0.1097 -1.0193
23965SOL     OW73027   4.449   6.541   5.494 -0.0876 -0.1349 -0.5558
23965SOL    HW173028   4.363   6.580   5.509  0.0768  0.6903 -1.5941
23965SOL    HW273029   4.495   6.551   5.578 -1.6726 -2.5205  0.7068
23966SOL     OW73030   6.157   0.291   8.641 -0.1437 -0.3656 -0.1104
23966SOL    HW173031   6.173   0.270   8.733 -2.2426  1.5970  0.8010
23966SOL    HW273032   6.240   0.325   8.609  0.3284 -0.0530  1.3833
23967SOL     OW73033   2.747   8.227   0.045  0.2969  0.1230 -0.0140
23967SOL    HW173034   2.763   8.310   0.091  0.3994  1.4421 -2.2669
23967SOL    HW273035   2.832   8.182   0.047  1.0225  1.3532 -1.0582
23968SOL     OW73036   0.724   6.248   3.424 -0.4409 -0.8838  0.0740
23968SOL    HW173037   0.807   6.202   3.438 -1.8591 -3.9123 -0.7122
23968SOL    HW273038   0.704   6.287   3.509  1.9992  0.4705  0.1322
23969SOL     OW73039   0.730   4.490   5.446  0.1941 -0.8872  0.0917
23969SOL    HW173040   0.804   4.545   5.472 -0.1994  0.4159 -1.3721
23969SOL    HW273041   0.692   4.535   5.370 -3.1257 -0.5760  1.7519
23970SOL     OW73042   8.701   2.450   3.718 -0.4278 -0.0050  0.3170
23970SOL    HW173043   8.624   2.395   3.705 -1.2040  0.3923  2.6225
23970SOL    HW273044   8.666   2.539   3.728  0.5891  0.5872 -1.0412
23971SOL     OW73045   8.505   0.320   4.405 -0.0502  0.5739 -0.2702
23971SOL    HW173046   8.426   0.317   4.351  0.1122  0.5958 -0.5160
23971SOL    HW273047   8.538   0.409   4.393 -0.2343  0.7047  0.1923
23972SOL     OW73048   1.056   5.020   3.674  0.0612  0.1576 -0.1410
23972SOL    HW173049   1.145   5.012   3.707 -0.2974 -1.1713  0.5486
23972SOL    HW273050   1.048   4.951   3.609 -0.4067  0.4099 -0.3604
23973SOL     OW73051   8.429   5.075   3.087 -0.3100  0.1630 -0.3802
23973SOL    HW173052   8.367   5.148   3.090  0.8976  1.2083 -0.0584
23973SOL    HW273053   8.488   5.097   3.014  0.2765 -0.3011 -0.0573
23974SOL     OW73054   7.689   7.719   5.805 -0.1843  0.4701 -0.4907
23974SOL    HW173055   7.602   7.755   5.822 -0.8436 -1.2460 -0.0282
23974SOL    HW273056   7.747   7.767   5.865 -1.1392  0.2688  0.6271
23975SOL     OW73057   0.561   4.943   5.071  0.3502 -0.2605  0.0801
23975SOL    HW173058   0.540   5.032   5.099  0.0812 -0.7722  1.5558
23975SOL    HW273059   0.477   4.898   5.071  0.6574 -0.8348  0.4989
23976SOL     OW73060   8.555   5.367   5.570 -0.1208  0.0871 -0.4160
23976SOL    HW173061   8.605   5.364   5.652  1.6270  1.0933 -1.3922
23976SOL    HW273062   8.466   5.388   5.598  0.7383  1.9467  1.1759
23977SOL     OW73063   2.982   1.854   1.976 -0.1463 -0.1158 -0.2027
23977SOL    HW173064   2.901   1.845   1.925 -0.3235 -1.0249  0.2225
23977SOL    HW273065   2.964   1.809   2.058  1.3199 -1.7215 -0.7018
23978SOL     OW73066   6.090   4.982   6.345  0.1249  0.0888 -0.3691
23978SOL    HW173067   6.136   4.981   6.428 -1.0329  0.9046  0.3144
23978SOL    HW273068   6.025   4.912   6.353 -1.1692  1.3001  0.1503
23979SOL     OW73069   5.348   3.161   8.001 -0.1520 -0.4396 -0.0095
23979SOL    HW173070   5.366   3.255   7.999 -0.6888 -0.3259  0.3628
23979SOL    HW273071   5.430   3.121   8.030  0.7723 -0.2868 -2.1779
23980SOL     OW73072   4.780   1.745   4.144  0.3850  0.2094 -0.1656
23980SOL    HW173073   4.867   1.772   4.174 -0.4771  0.9153  1.8807
23980SOL    HW273074   4.719   1.801   4.192 -1.2758 -1.3692 -0.3038
23981SOL     OW73075   7.124   8.003   2.193  0.2971  0.3379  0.4121
23981SOL    HW173076   7.172   8.085   2.209  0.5047  0.2293  0.3492
23981SOL    HW273077   7.190   7.934   2.204 -0.0255  0.1296  1.1485
23982SOL     OW73078   3.587   2.911   6.544 -0.4966 -0.3547  0.6920
23982SOL    HW173079   3.505   2.927   6.591 -0.5556 -0.1219  0.5105
23982SOL    HW273080   3.610   2.821   6.567 -0.6503 -0.3218  0.9771
23983SOL     OW73081   4.097   0.834   6.304 -0.1122  0.0474  0.6984
23983SOL    HW173082   4.120   0.743   6.325 -1.3332 -0.1968  1.0487
23983SOL    HW273083   4.062   0.829   6.215 -1.6427 -0.1090  1.2794
23984SOL     OW73084   3.381   7.238   6.445 -0.4726 -0.4376 -0.1957
23984SOL    HW173085   3.321   7.164   6.453 -1.5468 -0.1290 -3.6898
23984SOL    HW273086   3.349   7.302   6.509 -2.4311 -1.1935 -0.3557
23985SOL     OW73087   0.985   5.905   4.234 -0.1053 -0.5510  0.4626
23985SOL    HW173088   1.078   5.913   4.256 -0.3575 -0.6123  1.5928
23985SOL    HW273089   0.982   5.840   4.164  0.7145 -0.4876  0.3650
23986SOL     OW73090   2.299   3.464   3.980  0.5859  0.3554  0.4398
23986SOL    HW173091   2.335   3.454   3.892  3.0268 -1.6126  1.5215
23986SOL    HW273092   2.319   3.554   4.005 -1.6075  1.4757 -1.5209
23987SOL     OW73093   0.922   5.894   5.324  0.5267 -1.0602 -0.0715
23987SOL    HW173094   0.965   5.965   5.371  1.1510  0.4430 -2.6791
23987SOL    HW273095   0.980   5.819   5.336  1.0200 -0.5332  0.9516
23988SOL     OW73096   5.748   3.550   0.236 -0.1018  0.6960 -0.4386
23988SOL    HW173097   5.755   3.512   0.148 -0.4193 -0.1509 -0.1072
23988SOL    HW273098   5.776   3.480   0.295 -2.2954  0.3332  0.2997
23989SOL     OW73099   4.427   1.068   7.174 -0.3813 -0.5046  0.2007
23989SOL    HW173100   4.513   1.107   7.164  0.5062 -2.2282  0.7505
23989SOL    HW273101   4.366   1.140   7.157  1.1328  1.4213  2.2886
23990SOL     OW73102   1.380   8.739   2.035 -0.5404 -0.0083  0.1244
23990SOL    HW173103   1.288   8.749   2.059 -0.8316 -1.8533 -0.0981
23990SOL    HW273104   1.427   8.745   2.118 -1.1116 -1.6007  0.5977
23991SOL     OW73105   4.492   1.169   7.536 -0.4362 -0.1297 -0.7073
23991SOL    HW173106   4.515   1.199   7.624 -1.6865 -1.2051  0.0189
23991SOL    HW273107   4.408   1.211   7.518 -0.6102 -0.6115 -1.0246
23992SOL     OW73108   7.526   5.063   8.905 -0.2207 -0.0581 -0.1050
23992SOL    HW173109   7.490   5.136   8.854  2.7356  0.3436 -1.8485
23992SOL    HW273110   7.549   4.997   8.840  0.3677 -1.0749  1.0982
23993SOL     OW73111   2.630   7.839   4.600 -0.0114 -0.2697  0.5030
23993SOL    HW173112   2.689   7.905   4.564  1.3481 -0.6149  1.9610
23993SOL    HW273113   2.674   7.756   4.582 -0.9748 -0.6791 -0.0089
23994SOL     OW73114   8.573   3.888   7.550  0.2264 -0.5369 -0.1485
23994SOL    HW173115   8.617   3.889   7.465 -1.4757 -0.5401 -1.0778
23994SOL    HW273116   8.626   3.946   7.605  1.6743 -0.9733 -1.0307
23995SOL     OW73117   2.924   2.946   8.268  0.4414 -0.2061  0.0556
23995SOL    HW173118   2.941   2.852   8.271 -1.4495 -0.6082 -0.7450
23995SOL    HW273119   3.009   2.985   8.248  1.3823 -1.6756  1.0203
23996SOL     OW73120   3.590   7.870   1.724  0.0060 -0.0955  0.2159
23996SOL    HW173121   3.621   7.906   1.807  0.6108  0.1485 -0.1124
23996SOL    HW273122   3.642   7.791   1.711 -0.5099 -0.4651  0.3602
23997SOL     OW73123   8.849   6.664   1.151  0.4578  0.0258  0.1338
23997SOL    HW173124   8.921   6.602   1.156  1.7386  1.2205 -1.8803
23997SOL    HW273125   8.802   6.640   1.071 -0.2987  0.3779  0.4555
23998SOL     OW73126   1.048   8.388   0.836  0.6441  0.5882 -0.3306
23998SOL    HW173127   1.070   8.295   0.836 -0.6921  0.2460  0.1287
23998SOL    HW273128   1.029   8.408   0.928  0.0969  1.0920 -0.5480
23999SOL     OW73129   7.476   6.384   4.820  0.2350 -0.1414 -0.1393
23999SOL    HW173130   7.490   6.422   4.733 -0.1259  1.6684  0.5380
23999SOL    HW273131   7.456   6.292   4.803  1.8084 -0.2172 -1.8357
24000SOL     OW73132   3.833   6.722   6.053 -0.1856  0.7405 -0.1085
24000SOL    HW173133   3.860   6.805   6.093  0.0002 -0.2632  2.0083
24000SOL    HW273134   3.738   6.730   6.043 -0.6799  0.1623  2.9907
24001SOL     OW73135   2.117   4.124   7.163  0.5309 -0.5645  0.1220
24001SOL    HW173136   2.048   4.189   7.178 -0.3181 -1.0462 -1.4708
24001SOL    HW273137   2.171   4.128   7.242 -0.1139  1.3060  0.5230
24002SOL     OW73138   5.028   1.959   7.269  0.0813 -0.5811 -0.3212
24002SOL    HW173139   5.063   2.007   7.194  0.4273 -1.1983 -0.5645
24002SOL    HW273140   5.077   1.877   7.270 -0.7820 -1.1033 -0.1628
24003SOL     OW73141   7.252   1.080   8.171  0.3256  0.1030 -0.2508
24003SOL    HW173142   7.305   1.043   8.242 -1.0308  0.2139  0.8450
24003SOL    HW273143   7.240   1.007   8.110  0.4926 -0.3284  0.2278
24004SOL     OW73144   1.111   3.343   8.349  0.1197  0.2850  0.6873
24004SOL    HW173145   1.082   3.382   8.431 -0.4788  1.3116  0.0107
24004SOL    HW273146   1.045   3.369   8.285  1.5757  1.1728 -0.5402
24005SOL     OW73147   2.304   3.163   5.578  0.0451  0.2961 -0.6467
24005SOL    HW173148   2.279   3.251   5.604 -0.7852 -0.0668 -0.1939
24005SOL    HW273149   2.399   3.161   5.589 -0.1201  0.5823  1.1175
24006SOL     OW73150   8.470   8.101   1.449  0.3419 -0.6916 -0.4553
24006SOL    HW173151   8.411   8.176   1.448 -1.0631 -1.7371 -0.3878
24006SOL    HW273152   8.435   8.043   1.517  2.7483 -0.4222  1.1422
24007SOL     OW73153   5.464   6.368   2.735 -0.3446 -0.8094  0.0642
24007SOL    HW173154   5.401   6.437   2.758  1.9208  1.5494 -0.3887
24007SOL    HW273155   5.449   6.352   2.642 -1.4465 -1.6163  0.3552
24008SOL     OW73156   8.635   6.820   8.746  0.1468 -0.1211  0.4306
24008SOL    HW173157   8.656   6.904   8.705 -0.8578 -1.1077 -2.3311
24008SOL    HW273158   8.714   6.767   8.733  0.0007 -0.2860  0.2144
24009SOL     OW73159   3.494   2.773   1.988 -0.1301  0.3522 -0.2678
24009SOL    HW173160   3.583   2.802   1.967 -0.5852  0.9944 -1.4111
24009SOL    HW273161   3.467   2.720   1.912  0.1413 -1.9333  1.1387
24010SOL     OW73162   0.732   3.670   3.149 -0.2943  0.2864  0.1880
24010SOL    HW173163   0.773   3.754   3.167 -0.1435  0.1332  0.5585
24010SOL    HW273164   0.801   3.605   3.160 -0.5621  0.0543  0.5361
24011SOL     OW73165   4.537   7.819   2.202 -0.3833  0.0517 -0.4671
24011SOL    HW173166   4.544   7.868   2.285 -0.6113 -1.7897  0.6872
24011SOL    HW273167   4.568   7.881   2.136 -0.6853  1.7641  0.9118
24012SOL     OW73168   8.290   4.030   4.039  0.0249 -0.5657  0.2214
24012SOL    HW173169   8.213   4.077   4.007  1.1735 -0.1708 -2.1382
24012SOL    HW273170   8.266   3.938   4.033 -1.5371 -0.4676  3.0640
24013SOL     OW73171   2.872   2.037   4.702 -0.2731 -0.3459  0.0908
24013SOL    HW173172   2.897   2.118   4.746  0.5786 -0.7591  0.4013
24013SOL    HW273173   2.778   2.029   4.716 -0.5488  1.0846 -0.7803
24014SOL     OW73174   8.467   0.498   4.078  0.5250 -0.3307  0.0461
24014SOL    HW173175   8.450   0.576   4.025  1.6904 -0.6426 -0.8359
24014SOL    HW273176   8.484   0.531   4.166  0.6417  0.3738 -0.2344
24015SOL     OW73177   4.895   8.846   7.954 -0.4095 -0.4141  0.2162
24015SOL    HW173178   4.898   8.751   7.945  2.8613 -0.6421  2.2002
24015SOL    HW273179   4.905   8.879   7.864 -1.6450 -1.8985 -0.5057
24016SOL     OW73180   4.704   3.176   5.872 -0.6827  0.3027  0.5486
24016SOL    HW173181   4.795   3.192   5.897 -0.0694  0.3706 -1.5778
24016SOL    HW273182   4.655   3.244   5.917  0.3016  0.3020  1.6872
24017SOL     OW73183   5.160   1.839   4.185  0.5983 -0.0098  0.1171
24017SOL    HW173184   5.164   1.904   4.116  3.2219  1.2737  1.3399
24017SOL    HW273185   5.084   1.864   4.238 -0.3829  0.0172 -1.2550
24018SOL     OW73186   3.442   6.901   7.576 -0.2591 -0.0963 -0.1474
24018SOL    HW173187   3.446   6.995   7.593  0.7905 -0.2438  0.5045
24018SOL    HW273188   3.480   6.890   7.489 -0.5325  0.0948 -0.2917
24019SOL     OW73189   3.570   0.958   1.135  0.2181 -0.2571 -0.4210
24019SOL    HW173190   3.618   0.938   1.054  0.6370  0.4149 -0.3498
24019SOL    HW273191   3.569   1.054   1.139 -2.3307 -0.1858 -1.1193
24020SOL     OW73192   2.616   6.807   7.634 -0.6021 -0.1736  0.0062
24020SOL    HW173193   2.603   6.779   7.724 -0.5852  1.1780  0.4518
24020SOL    HW273194   2.538   6.859   7.613  0.0044  0.6350 -0.2948
24021SOL     OW73195   4.354   7.213   3.404 -0.1434 -0.0728  0.1418
24021SOL    HW173196   4.426   7.154   3.382 -0.3575 -0.3030  0.0445
24021SOL    HW273197   4.368   7.237   3.495 -0.8851 -1.4742  0.6419
24022SOL     OW73198   6.382   3.206   8.335  0.1969 -0.0398 -0.1314
24022SOL    HW173199   6.396   3.191   8.428  0.0028 -0.8442 -0.2274
24022SOL    HW273200   6.459   3.168   8.293  1.7866  2.8866 -0.1514
24023SOL     OW73201   5.966   1.035   7.165 -0.0606 -0.1354 -0.4358
24023SOL    HW173202   5.903   1.087   7.115  0.1386  0.2700 -0.2680
24023SOL    HW273203   5.954   0.946   7.133 -1.5320 -0.2723  0.4103
24024SOL     OW73204   0.816   6.926   7.853  0.0960  0.1325 -0.1037
24024SOL    HW173205   0.851   6.987   7.787  1.5426  1.3938  1.7259
24024SOL    HW273206   0.730   6.961   7.875 -0.3091 -0.1746 -1.1124
24025SOL     OW73207   0.339   0.227   8.325 -0.1205  0.7458  0.2893
24025SOL    HW173208   0.326   0.256   8.235 -0.2127 -3.2961 -1.2358
24025SOL    HW273209   0.426   0.189   8.326 -1.2233 -2.0045  0.9136
24026SOL     OW73210   1.486   2.775   8.061 -0.4636 -0.1974  0.3201
24026SOL    HW173211   1.567   2.749   8.104 -0.1882 -0.3917 -0.3125
24026SOL    HW273212   1.488   2.871   8.062 -0.7695 -0.1834  1.3067
24027SOL     OW73213   7.628   6.808   2.678 -0.1988  0.4595 -0.2258
24027SOL    HW173214   7.654   6.768   2.595  0.6793  1.7407 -0.5999
24027SOL    HW273215   7.637   6.902   2.663 -1.1965  0.7723  0.9495
24028SOL     OW73216   1.526   6.592   6.321  0.1339  0.1124  0.0180
24028SOL    HW173217   1.451   6.535   6.305  0.8070 -0.3869 -1.4843
24028SOL    HW273218   1.560   6.564   6.406 -0.3936 -0.7690 -0.0554
24029SOL     OW73219   3.011   2.717   1.666 -0.4240  0.2081  0.1990
24029SOL    HW173220   3.097   2.749   1.692 -1.0209  2.8778 -0.7811
24029SOL    HW273221   3.029   2.645   1.605  1.0913  0.4254  0.3537
24030SOL     OW73222   8.417   8.051   3.318  0.1812  0.2953  0.3389
24030SOL    HW173223   8.463   7.976   3.279 -0.1567  1.8321 -3.4865
24030SOL    HW273224   8.337   8.059   3.267 -0.8919  1.9336  2.1610
24031SOL     OW73225   5.723   1.691   0.568  0.0568  0.4518  0.4493
24031SOL    HW173226   5.721   1.707   0.474  1.0792  0.8369  0.4795
24031SOL    HW273227   5.776   1.612   0.578  0.6475  0.8682  0.7365
24032SOL     OW73228   0.957   0.249   8.763 -0.2847  0.5960  0.3272
24032SOL    HW173229   0.882   0.209   8.718  1.5023 -0.8051 -1.6049
24032SOL    HW273230   0.986   0.182   8.825  1.5897 -0.5339 -1.6198
24033SOL     OW73231   0.329   3.739   0.029  0.1143  0.2007  0.1257
24033SOL    HW173232   0.333   3.776   0.117 -0.4098  0.8069 -0.0997
24033SOL    HW273233   0.405   3.775  -0.016 -0.0664  0.5368  0.0872
24034SOL     OW73234   2.122   4.575   8.687  0.3211 -0.6388 -0.3686
24034SOL    HW173235   2.161   4.489   8.670 -0.2833 -0.5205 -2.6736
24034SOL    HW273236   2.145   4.594   8.778  2.5374 -2.1548 -0.5384
24035SOL     OW73237   3.424   5.060   3.718 -0.0611  0.1290  0.1977
24035SOL    HW173238   3.429   5.146   3.760 -0.0759  0.6393 -0.7994
24035SOL    HW273239   3.443   4.997   3.788 -1.9188  0.8078  1.3883
24036SOL     OW73240   7.222   0.221   7.175  0.2445 -0.4613 -0.3697
24036SOL    HW173241   7.184   0.294   7.224 -0.0209 -0.9345  0.1507
24036SOL    HW273242   7.246   0.258   7.090 -0.0100  0.1953 -0.1605
24037SOL     OW73243   5.525   4.626   1.746  0.3650  0.1616  0.6236
24037SOL    HW173244   5.503   4.632   1.839  0.5409 -0.9199  0.7525
24037SOL    HW273245   5.447   4.656   1.701  1.0585  2.9898  1.0916
24038SOL     OW73246   1.576   4.185   2.959  0.4247 -0.2946  0.0661
24038SOL    HW173247   1.551   4.220   2.874  1.1977  0.0618 -0.0174
24038SOL    HW273248   1.634   4.112   2.938  0.5186 -0.2833  0.2913
24039SOL     OW73249   7.086   7.724   7.962  1.1428 -0.6366  0.4096
24039SOL    HW173250   7.023   7.756   8.026  1.1264  0.2267 -0.0157
24039SOL    HW273251   7.070   7.630   7.956 -0.4662 -0.3693 -0.0669
24040SOL     OW73252   1.876   8.277   1.574 -0.7705  0.3750 -0.3383
24040SOL    HW173253   1.969   8.274   1.549 -0.2655  0.0046  1.4282
24040SOL    HW273254   1.876   8.312   1.662 -2.4839  1.9490 -0.9060
24041SOL     OW73255   8.439   7.022   2.788 -0.2346  0.8604 -0.0035
24041SOL    HW173256   8.513   6.968   2.761  0.5226  1.0589  1.5940
24041SOL    HW273257   8.362   6.972   2.762  0.4229 -1.4305  2.1777
24042SOL     OW73258   8.148   2.877   8.543 -0.2054 -0.2157  0.2671
24042SOL    HW173259   8.108   2.964   8.546  0.0018 -0.0534 -0.9134
24042SOL    HW273260   8.103   2.827   8.611  0.0911  0.9768  1.3775
24043SOL     OW73261   3.095   6.223   7.399 -0.1461 -0.1076 -0.4226
24043SOL    HW173262   3.167   6.260   7.348 -1.6263  3.5201 -0.2125
24043SOL    HW273263   3.020   6.224   7.339 -0.6902 -1.1320  0.2073
24044SOL     OW73264   4.392   1.542   7.769  0.1007  0.5989 -0.5789
24044SOL    HW173265   4.345   1.509   7.692 -0.8173  0.9601 -0.1937
24044SOL    HW273266   4.456   1.474   7.790  0.2285  0.4131 -1.5420
24045SOL     OW73267   3.466   1.503   6.633 -0.2135 -0.0051 -0.1733
24045SOL    HW173268   3.528   1.515   6.705 -0.6742  1.3497  0.0209
24045SOL    HW273269   3.452   1.591   6.598 -1.4899 -0.3766 -0.6556
24046SOL     OW73270   8.274   8.767   8.119 -0.0460  0.3544  0.0087
24046SOL    HW173271   8.337   8.732   8.182 -0.8955  1.4419  1.5178
24046SOL    HW273272   8.213   8.694   8.104 -1.0412  0.6718  2.1080
24047SOL     OW73273   7.655   4.395   4.403  0.2447 -0.6938  0.7272
24047SOL    HW173274   7.686   4.328   4.464 -0.5186 -0.3937  1.4629
24047SOL    HW273275   7.609   4.346   4.335  1.5241 -1.0703  0.1049
24048SOL     OW73276   8.653   1.290   7.039 -0.2465 -0.4151  0.4163
24048SOL    HW173277   8.658   1.359   6.973 -0.7266 -1.2097 -0.4718
24048SOL    HW273278   8.736   1.243   7.031 -0.6161 -0.9820 -0.1631
24049SOL     OW73279   8.841   5.178   8.694  0.1132  0.4561 -0.1116
24049SOL    HW173280   8.833   5.130   8.776 -0.3732  0.0193 -0.4038
24049SOL    HW273281   8.889   5.118   8.636 -0.4690  0.3227 -0.4667
24050SOL     OW73282   0.734   3.316   2.076  0.0742 -0.0993 -0.5122
24050SOL    HW173283   0.818   3.291   2.116 -0.2863 -0.5561 -0.0228
24050SOL    HW273284   0.690   3.367   2.144 -0.2008 -0.1785 -0.6326
24051SOL     OW73285   7.296   1.107   7.778 -0.2926 -0.1537  0.3544
24051SOL    HW173286   7.218   1.102   7.723 -1.0733  0.9431  1.3175
24051SOL    HW273287   7.280   1.042   7.847 -0.8305  0.7529  1.1050
24052SOL     OW73288   6.681   2.676   4.356  0.3647 -0.0181 -0.1933
24052SOL    HW173289   6.692   2.718   4.442  1.4250  1.6137 -1.0651
24052SOL    HW273290   6.742   2.602   4.358  2.7923  1.8194 -0.5590
24053SOL     OW73291   1.854   4.150   0.402  0.1143 -0.2094 -0.2499
24053SOL    HW173292   1.801   4.181   0.329  0.1683  0.0339 -0.1876
24053SOL    HW273293   1.794   4.099   0.456  0.3196 -1.2792 -1.0128
24054SOL     OW73294   0.563   1.577   1.662 -0.0732 -0.2936  0.0726
24054SOL    HW173295   0.531   1.490   1.683 -0.0731 -0.4502 -0.5565
24054SOL    HW273296   0.498   1.612   1.600 -0.2518  0.2784  0.5762
24055SOL     OW73297   0.021   5.176   3.301 -0.2039  0.6041 -0.3750
24055SOL    HW173298  -0.047   5.146   3.362  0.9519  0.6175  0.9683
24055SOL    HW273299   0.102   5.138   3.335  0.6559  1.6706 -1.1736
24056SOL     OW73300   5.526   1.378   2.431 -0.2742 -0.0473  0.7436
24056SOL    HW173301   5.616   1.385   2.401 -0.7222  0.2423 -0.6160
24056SOL    HW273302   5.510   1.459   2.479  0.7447 -0.9294  2.6736
24057SOL     OW73303   2.616   2.047   0.961 -0.6844 -0.5984  0.4521
24057SOL    HW173304   2.529   2.020   0.933 -1.0370  2.5908 -2.0850
24057SOL    HW273305   2.675   2.012   0.894 -0.7337  1.4465 -0.7609
24058SOL     OW73306   0.030   4.768   5.195 -0.1085  0.2500  0.5207
24058SOL    HW173307   0.051   4.675   5.205 -0.4143  0.3401  2.4029
24058SOL    HW273308  -0.036   4.771   5.126  3.3102 -0.3894 -3.1336
24059SOL     OW73309   2.817   4.984   1.150 -0.0102 -0.2159 -0.4483
24059SOL    HW173310   2.751   4.975   1.082  1.1661  1.8702 -2.0094
24059SOL    HW273311   2.771   5.028   1.222 -1.0045 -1.4609 -0.2936
24060SOL     OW73312   1.840   3.147   0.528  0.1446 -0.1186  0.2178
24060SOL    HW173313   1.815   3.104   0.446 -0.2790 -1.8500  1.1870
24060SOL    HW273314   1.777   3.218   0.538 -1.3512 -1.3783  0.1878
24061SOL     OW73315   4.421   3.489   0.013 -0.0984  0.2407 -0.2343
24061SOL    HW173316   4.384   3.559   0.066  0.0137 -0.6248  1.0406
24061SOL    HW273317   4.479   3.533  -0.049 -1.5075  1.4174 -0.7668
24062SOL     OW73318   9.053   6.931   0.400  0.4915  0.2367  0.2033
24062SOL    HW173319   9.019   6.937   0.489 -0.2418 -1.0244  0.0385
24062SOL    HW273320   9.018   6.849   0.367 -1.9668  2.1321 -2.3652
24063SOL     OW73321   2.061   5.192   4.790  0.6446  0.0753  0.5991
24063SOL    HW173322   2.056   5.111   4.739  0.0505  0.0128  0.7502
24063SOL    HW273323   2.064   5.163   4.881 -2.1129  0.2387  0.8212
24064SOL     OW73324   6.604   3.819   6.679 -0.3907  0.1817  0.3459
24064SOL    HW173325   6.592   3.914   6.673 -2.8943 -0.0848  0.0776
24064SOL    HW273326   6.692   3.804   6.645  0.5059  2.4839  1.3944
24065SOL     OW73327   5.942   5.583   4.493  0.3901 -0.4215  0.5759
24065SOL    HW173328   5.868   5.628   4.450  0.4288  0.2577  1.1994
24065SOL    HW273329   6.002   5.654   4.516  1.4475 -1.0146 -0.3077
24066SOL     OW73330   5.937   4.752   0.938  0.0709 -0.3531  0.4352
24066SOL    HW173331   5.970   4.696   1.009  0.8067  0.1593  0.5118
24066SOL    HW273332   5.998   4.738   0.866  1.8030  2.1782  1.2604
24067SOL     OW73333   7.946   5.035   0.178 -0.7225 -0.3424  0.1658
24067SOL    HW173334   7.928   5.123   0.212 -1.9640 -1.3845  2.4849
24067SOL    HW273335   7.882   5.024   0.107  0.7886  1.2796 -1.5620
24068SOL     OW73336   5.770   7.786   6.045  0.1670 -0.3381  0.1403
24068SOL    HW173337   5.847   7.832   6.015  0.7121 -0.8338  0.7462
24068SOL    HW273338   5.793   7.693   6.039 -0.0361 -0.4746  1.1668
24069SOL     OW73339   5.945   6.776   7.352  0.0899  0.0519 -0.5684
24069SOL    HW173340   5.935   6.864   7.316  0.1882  0.8107  1.1537
24069SOL    HW273341   5.880   6.772   7.422 -0.2427 -1.4371 -0.9416
24070SOL     OW73342   6.258   2.636   4.422  0.8002  0.1836  0.4261
24070SOL    HW173343   6.204   2.641   4.501 -0.4458  1.6313 -0.4640
24070SOL    HW273344   6.231   2.711   4.369  2.3048 -0.1821 -0.9530
24071SOL     OW73345   3.005   1.303   4.719 -0.0660  0.0147 -0.3300
24071SOL    HW173346   3.056   1.316   4.799  1.0356  0.1032 -1.0348
24071SOL    HW273347   2.964   1.217   4.730 -1.6161  0.8687  1.2164
24072SOL     OW73348   1.423   2.696   7.209 -0.2254  0.5301  0.3698
24072SOL    HW173349   1.459   2.741   7.132 -1.0809  1.0782  0.2785
24072SOL    HW273350   1.500   2.662   7.254  0.2459 -1.3905 -1.6627
24073SOL     OW73351   5.203   8.043   7.717  0.3838  0.1342  0.0530
24073SOL    HW173352   5.112   8.068   7.736  0.3751  1.7630 -1.7026
24073SOL    HW273353   5.231   7.991   7.792 -2.4403 -1.6396  0.0042
24074SOL     OW73354   0.525   2.417   8.351 -0.4680  0.1943 -0.3283
24074SOL    HW173355   0.570   2.371   8.422  1.0559  0.6894 -0.9200
24074SOL    HW273356   0.446   2.452   8.391  0.5457  0.7808  1.2571
24075SOL     OW73357   1.498   1.916   6.138 -0.0898  0.8323  0.0092
24075SOL    HW173358   1.431   1.885   6.199 -0.1518 -0.0201 -0.4765
24075SOL    HW273359   1.493   1.856   6.064  0.6277  1.2800 -0.4182
24076SOL     OW73360   7.338   8.696   5.412  0.1053  0.2939 -0.7168
24076SOL    HW173361   7.386   8.673   5.332  1.4385  0.7112 -0.0614
24076SOL    HW273362   7.271   8.757   5.382 -1.5595 -2.0246 -1.9988
24077SOL     OW73363   5.507   2.660   6.040  0.1596  0.9042 -0.1310
24077SOL    HW173364   5.510   2.739   5.985  0.4912  2.4554  1.9740
24077SOL    HW273365   5.445   2.682   6.110  2.5384  0.5715  2.2439
24078SOL     OW73366   1.229   7.831   3.240 -0.2871 -0.6356 -0.4613
24078SOL    HW173367   1.181   7.754   3.211 -0.8629 -0.1550 -0.8106
24078SOL    HW273368   1.318   7.800   3.256 -0.7341 -1.5667  0.3079
24079SOL     OW73369   0.137   4.426   3.679 -0.2714  0.3771  0.5365
24079SOL    HW173370   0.216   4.403   3.630 -0.6802  1.0921 -0.4817
24079SOL    HW273371   0.076   4.354   3.661  0.4170 -0.6475  2.0564
24080SOL     OW73372   3.669   2.066   2.512 -0.3215 -0.3060 -0.1654
24080SOL    HW173373   3.579   2.040   2.532  0.3244 -2.0687  0.6311
24080SOL    HW273374   3.723   2.010   2.567  1.2841  0.7731 -0.5714
24081SOL     OW73375   7.995   6.704   8.845  0.0782 -0.0891  0.6424
24081SOL    HW173376   7.997   6.798   8.825 -2.3699  0.1644  1.1833
24081SOL    HW273377   8.055   6.664   8.783  2.2270  1.9510  1.2702
24082SOL     OW73378   5.269   6.659   0.469 -0.5428  0.4786 -0.9754
24082SOL    HW173379   5.188   6.664   0.419 -1.3588 -0.3983  0.2087
24082SOL    HW273380   5.285   6.566   0.480 -0.2047  0.6396  0.0847
24083SOL     OW73381   1.293   2.263   8.976 -0.3475 -0.5060 -0.6144
24083SOL    HW173382   1.311   2.315   9.055 -0.2467  0.0026 -0.9634
24083SOL    HW273383   1.280   2.174   9.008  0.3229 -0.4204 -0.0889
24084SOL     OW73384   0.717   4.861   4.393  0.1387 -0.2015  0.4558
24084SOL    HW173385   0.748   4.776   4.362  3.9325  0.6417  1.4022
24084SOL    HW273386   0.699   4.848   4.486  2.0669  0.2033  0.9435
24085SOL     OW73387   6.845   1.019   5.565  0.3603  0.3178  0.1075
24085SOL    HW173388   6.804   1.057   5.643  1.3617  0.6877  0.4839
24085SOL    HW273389   6.884   1.094   5.520  1.9909 -0.1807  0.6224
24086SOL     OW73390   6.990   3.522   6.044 -0.2972  0.0185 -0.3848
24086SOL    HW173391   6.929   3.575   6.094 -1.5494 -1.3693 -0.3614
24086SOL    HW273392   7.073   3.570   6.048 -0.7819  0.7846  1.5642
24087SOL     OW73393   4.116   0.080   2.508  0.0750  0.1959 -0.5069
24087SOL    HW173394   4.165   0.146   2.557 -0.6855  1.2217 -1.0986
24087SOL    HW273395   4.170   0.062   2.431 -0.1163  0.7651 -0.7764
24088SOL     OW73396   2.398   2.236   6.225  0.5440 -0.0309 -0.7612
24088SOL    HW173397   2.373   2.323   6.195  0.7362  0.4952  0.5000
24088SOL    HW273398   2.473   2.212   6.171  1.4215  1.2424 -0.1647
24089SOL     OW73399   8.714   9.055   8.616 -0.0923 -0.6255  0.0968
24089SOL    HW173400   8.799   9.046   8.573  0.7546  2.6371  0.7869
24089SOL    HW273401   8.733   9.053   8.709 -1.0110 -1.4233  0.2763
24090SOL     OW73402   4.707   3.432   1.997  0.1010  0.2590  0.1571
24090SOL    HW173403   4.785   3.402   2.043  0.5251  1.0236 -0.0616
24090SOL    HW273404   4.634   3.393   2.047  0.5668  0.6857  1.2048
24091SOL     OW73405   5.331   7.848   7.567 -0.0641 -0.1788 -0.5128
24091SOL    HW173406   5.411   7.894   7.540 -0.6947  0.6025 -1.1012
24091SOL    HW273407   5.286   7.909   7.625 -0.1349 -0.7012 -0.0122
24092SOL     OW73408   0.751   0.797   6.587 -0.4157 -0.0997 -0.1214
24092SOL    HW173409   0.829   0.841   6.551 -0.7558  0.0047 -0.7449
24092SOL    HW273410   0.725   0.851   6.662  2.0555 -1.9134  2.2647
24093SOL     OW73411   2.497   2.669   2.451 -0.4018 -0.5202  0.5289
24093SOL    HW173412   2.577   2.711   2.484 -1.9569  1.8892  1.4662
24093SOL    HW273413   2.441   2.662   2.528 -1.4986 -1.2532 -0.3145
24094SOL     OW73414   1.365   2.490   4.440  0.2820 -0.1695 -0.2331
24094SOL    HW173415   1.291   2.434   4.417 -0.6626  1.6430 -1.9158
24094SOL    HW273416   1.340   2.532   4.522  1.0278 -2.1366  1.0829
24095SOL     OW73417   8.753   2.359   7.053 -0.5130  0.0726  0.3441
24095SOL    HW173418   8.847   2.347   7.057  0.0167  2.3013 -2.5078
24095SOL    HW273419   8.733   2.419   7.125  0.7229  1.7076 -0.6198
24096SOL     OW73420   1.215   3.140   5.879  0.3932  0.5695  0.3789
24096SOL    HW173421   1.177   3.068   5.929  0.1837  0.5375  0.1691
24096SOL    HW273422   1.259   3.098   5.805  1.3932  0.5461  0.9567
24097SOL     OW73423   4.691   2.600   6.788 -0.2469 -0.6479  0.4133
24097SOL    HW173424   4.599   2.625   6.798  0.4447  1.2835  2.7923
24097SOL    HW273425   4.726   2.663   6.726 -0.0577 -0.0326  1.1402
24098SOL     OW73426   3.333   2.608   1.362  0.0984  0.3336  0.1012
24098SOL    HW173427   3.375   2.617   1.276  1.5493 -3.3331  0.2318
24098SOL    HW273428   3.392   2.653   1.423 -0.2578  1.8122 -0.6002
24099SOL     OW73429   1.799   0.072   8.579 -0.4931 -0.1670  0.3791
24099SOL    HW173430   1.867   0.092   8.643 -0.8396  1.2312  0.3457
24099SOL    HW273431   1.769   0.158   8.548 -3.1339 -0.6410  1.3178
24100SOL     OW73432   3.401   8.500   7.342  0.3108 -0.2842  0.5165
24100SOL    HW173433   3.404   8.464   7.254 -0.5971  2.9952 -1.0047
24100SOL    HW273434   3.307   8.511   7.360  0.5196  0.2221  1.3608
24101SOL     OW73435   5.487   2.677   8.786  0.5463  0.1096 -0.3593
24101SOL    HW173436   5.577   2.702   8.805  0.1372  0.5213  1.2201
24101SOL    HW273437   5.457   2.742   8.723  1.4382 -0.2208 -1.1437
24102SOL     OW73438   6.064   3.290   3.185  0.1545  0.2832  0.6845
24102SOL    HW173439   6.092   3.321   3.272 -0.2551  0.1862  0.8520
24102SOL    HW273440   5.973   3.263   3.197  0.5404 -1.1085  0.5736
24103SOL     OW73441   8.391   4.423   8.479  0.0634 -0.4550  0.2140
24103SOL    HW173442   8.310   4.474   8.480  0.1547 -0.3082  0.1066
24103SOL    HW273443   8.453   4.479   8.432  0.2686 -0.5056  0.4270
24104SOL     OW73444   7.668   0.175   2.704  0.5379 -0.2672 -0.1670
24104SOL    HW173445   7.665   0.147   2.613  0.3562 -1.3366  0.1524
24104SOL    HW273446   7.761   0.185   2.723  0.6338 -1.1024 -0.1670
24105SOL     OW73447   2.267   6.184   4.969 -0.1528 -0.5579  0.1773
24105SOL    HW173448   2.305   6.225   5.046  0.8306 -1.4602  0.1869
24105SOL    HW273449   2.195   6.131   5.002  0.1388 -0.7840  0.4410
24106SOL     OW73450   0.065   7.665   5.612 -0.1916  0.5271 -0.0420
24106SOL    HW173451   0.069   7.627   5.524  0.6884  0.3672  0.0529
24106SOL    HW273452   0.049   7.590   5.670 -0.3932  0.5776 -0.0325
24107SOL     OW73453   4.061   7.486   4.491 -0.0068  0.4120 -0.4602
24107SOL    HW173454   3.993   7.461   4.554  1.1174 -1.6160  0.0366
24107SOL    HW273455   4.013   7.502   4.410 -1.3937  2.2898  0.6411
24108SOL     OW73456   7.284   5.054   6.095  0.6280  0.0238 -0.1857
24108SOL    HW173457   7.258   4.987   6.033  0.3472  1.3466 -1.5555
24108SOL    HW273458   7.378   5.041   6.107  0.9768  0.6504 -2.0550
24109SOL     OW73459   8.088   7.653   3.045  0.1305  0.2350  0.5714
24109SOL    HW173460   8.169   7.626   3.002  2.1384  0.9135  3.6081
24109SOL    HW273461   8.050   7.720   2.988  1.2352 -0.6906 -1.3124
24110SOL     OW73462   1.198   4.007   6.268 -0.0775 -0.2555 -0.5247
24110SOL    HW173463   1.272   4.025   6.325 -1.7972  0.5630  1.6098
24110SOL    HW273464   1.208   4.069   6.196  0.1764  1.3951  0.8709
24111SOL     OW73465   8.429   7.499   1.600 -0.4116  0.1561  0.7599
24111SOL    HW173466   8.414   7.412   1.563  0.6423  0.1022  0.3981
24111SOL    HW273467   8.504   7.532   1.550 -2.5225  2.4498 -1.1092
24112SOL     OW73468   6.770   0.637   7.309  0.4226  0.0197  0.6017
24112SOL    HW173469   6.694   0.695   7.302  0.1662 -0.4008 -0.2805
24112SOL    HW273470   6.846   0.694   7.300  0.1667  0.1601 -0.9340
24113SOL     OW73471   5.863   8.488   4.620  0.0477 -0.0341  0.0135
24113SOL    HW173472   5.855   8.489   4.524  0.3161  0.4977 -0.0107
24113SOL    HW273473   5.924   8.559   4.639  0.0897 -0.2181  0.5743
24114SOL     OW73474   8.862   1.488   0.552 -0.3860  0.1056 -0.3522
24114SOL    HW173475   8.854   1.558   0.488  1.7252  1.9284  1.2229
24114SOL    HW273476   8.952   1.456   0.543 -0.4741 -0.5251  0.7747
24115SOL     OW73477   1.613   6.316   2.621  0.5033  0.8155  0.5588
24115SOL    HW173478   1.598   6.222   2.633 -1.2695  0.7604 -1.3459
24115SOL    HW273479   1.708   6.325   2.613  0.6820 -0.8864  0.3702
24116SOL     OW73480   0.256   2.694   2.658 -0.2247 -0.3295 -0.0384
24116SOL    HW173481   0.233   2.690   2.750 -0.1989 -0.7577 -0.0500
24116SOL    HW273482   0.252   2.604   2.628 -1.9942 -0.0043 -0.8964
24117SOL     OW73483   4.978   4.739   3.070 -0.5045  0.3395 -0.3593
24117SOL    HW173484   5.018   4.825   3.084 -0.9454  0.6250 -0.7989
24117SOL    HW273485   4.898   4.758   3.021 -0.3250 -0.3702 -0.9457
24118SOL     OW73486   2.151   5.151   5.748 -0.0350  0.2047 -0.6241
24118SOL    HW173487   2.164   5.151   5.653  1.2646  0.0060 -0.4664
24118SOL    HW273488   2.158   5.243   5.773 -1.1289  0.3490 -0.7954
24119SOL     OW73489   0.007   5.497   5.523 -0.1067  0.0013 -0.2845
24119SOL    HW173490   0.076   5.480   5.586  0.7392 -1.2305 -1.4915
24119SOL    HW273491   0.052   5.533   5.447 -0.5513 -2.1822 -1.6497
24120SOL     OW73492   2.302   1.222   6.528 -0.3415 -0.1234 -0.4873
24120SOL    HW173493   2.255   1.283   6.584  0.2247 -0.2830  0.1727
24120SOL    HW273494   2.369   1.183   6.585 -1.5044 -2.3430 -0.5182
24121SOL     OW73495   6.022   7.560   6.610  0.0377  0.0545  0.0249
24121SOL    HW173496   6.054   7.485   6.560 -2.5884 -0.2116 -1.4381
24121SOL    HW273497   5.996   7.524   6.694  1.6044 -0.0525  0.5060
24122SOL     OW73498   0.421   5.876   8.735  0.3702 -0.4299 -0.2372
24122SOL    HW173499   0.431   5.960   8.779  0.9862 -0.4670 -0.3086
24122SOL    HW273500   0.355   5.829   8.787  0.1475  0.0250 -0.1034
24123SOL     OW73501   1.948   3.998   8.174 -0.1587 -0.8437  0.4692
24123SOL    HW173502   2.038   4.031   8.163 -1.1736  2.6967  1.4078
24123SOL    HW273503   1.959   3.905   8.192  3.5211 -0.2360  2.4912
24124SOL     OW73504   1.554   6.042   3.931  0.4849 -0.6544  0.4666
24124SOL    HW173505   1.524   6.018   3.843  0.5132  1.6385 -0.2162
24124SOL    HW273506   1.474   6.069   3.977  0.9488  3.2350 -0.6308
24125SOL     OW73507   2.835   6.349   7.570  0.1525  0.4921  0.1453
24125SOL    HW173508   2.842   6.443   7.551 -0.4682  0.8363  1.4691
24125SOL    HW273509   2.919   6.312   7.542  0.2801  1.3790 -0.6897
24126SOL     OW73510   8.378   0.788   0.064 -0.2171  0.6297 -0.5878
24126SOL    HW173511   8.365   0.822   0.153 -0.6515  0.3043 -0.5214
24126SOL    HW273512   8.301   0.816   0.016  0.0014  0.7723 -0.8519
24127SOL     OW73513   1.225   6.337   7.766  0.0158 -0.2995  0.1338
24127SOL    HW173514   1.305   6.387   7.780 -0.1449  0.1455 -0.5119
24127SOL    HW273515   1.159   6.381   7.820 -0.2324  0.4744 -0.7721
24128SOL     OW73516   4.709   1.860   2.056 -0.4438  0.2315  0.2407
24128SOL    HW173517   4.684   1.951   2.043  0.9149  0.8823  1.7433
24128SOL    HW273518   4.804   1.862   2.067 -0.0927 -1.6577 -1.7107
24129SOL     OW73519   4.760   6.449   6.156 -0.6111 -0.5761 -0.1630
24129SOL    HW173520   4.752   6.427   6.063  0.5355  0.5287 -0.5462
24129SOL    HW273521   4.696   6.517   6.170 -1.6417 -1.5890  0.1663
24130SOL     OW73522   6.376   5.770   7.208  0.3817  0.6094  0.3909
24130SOL    HW173523   6.396   5.862   7.225  2.5215  0.2556  0.0434
24130SOL    HW273524   6.344   5.737   7.292  2.0163  1.0938  1.2469
24131SOL     OW73525   7.227   0.983   4.738 -0.5569  0.0058  0.0456
24131SOL    HW173526   7.241   0.949   4.827 -0.0908  0.5894  0.2038
24131SOL    HW273527   7.279   1.064   4.735  0.7180 -0.8197 -1.2678
24132SOL     OW73528   8.329   1.953   1.520 -0.0801  0.0732 -0.8398
24132SOL    HW173529   8.265   2.024   1.514  0.1234  0.2500 -0.9188
24132SOL    HW273530   8.362   1.958   1.610 -0.7216 -0.4932 -0.5655
24133SOL     OW73531   4.860   1.342   8.443  0.4962 -0.1143  0.2593
24133SOL    HW173532   4.854   1.301   8.529 -1.1813 -2.1345 -0.7169
24133SOL    HW273533   4.936   1.300   8.402  0.9559  0.4338  0.5429
24134SOL     OW73534   3.260   4.298   3.139  0.4596  0.4636  0.2671
24134SOL    HW173535   3.166   4.286   3.125  0.3173  1.2713  0.4765
24134SOL    HW273536   3.279   4.250   3.220  0.6164 -1.2947 -0.7513
24135SOL     OW73537   1.502   7.280   2.343 -0.2226 -0.2056  0.1411
24135SOL    HW173538   1.415   7.255   2.309 -0.5104 -0.6846  1.1905
24135SOL    HW273539   1.483   7.325   2.425  0.5289 -0.4947  0.4785
24136SOL     OW73540   4.693   8.817   3.972 -0.6401  0.2544 -0.3257
24136SOL    HW173541   4.682   8.726   4.001  0.0373  0.6193  1.1548
24136SOL    HW273542   4.764   8.852   4.027  0.8547  0.9698 -2.5445
24137SOL     OW73543   4.253   4.063   8.932 -0.1184  0.9165 -1.0351
24137SOL    HW173544   4.271   3.974   8.960 -0.5337  1.2810  0.4594
24137SOL    HW273545   4.228   4.055   8.840 -0.8486 -0.5782 -0.7292
24138SOL     OW73546   4.994   1.727   3.004  0.7162  0.2381  0.1314
24138SOL    HW173547   4.970   1.705   2.914 -1.2624 -0.7569  0.8400
24138SOL    HW273548   4.980   1.646   3.053  0.3515  1.1348  1.5741
24139SOL     OW73549   4.681   4.271   5.837 -0.3386 -0.0458  0.0317
24139SOL    HW173550   4.587   4.266   5.852 -0.2547 -0.2692  0.5038
24139SOL    HW273551   4.689   4.306   5.749 -0.8664 -0.1638 -0.0696
24140SOL     OW73552   6.465   3.240   8.931 -0.2611  0.3067 -0.1166
24140SOL    HW173553   6.557   3.221   8.913 -0.2183  1.3302 -1.1282
24140SOL    HW273554   6.421   3.156   8.921  0.3885  0.0444 -0.8779
24141SOL     OW73555   6.875   4.450   2.473  0.1401  0.3363 -0.4025
24141SOL    HW173556   6.928   4.371   2.463 -1.1981 -0.4075 -2.0621
24141SOL    HW273557   6.824   4.435   2.553  2.5083  1.1807  1.3775
24142SOL     OW73558   7.617   5.784   0.127 -0.1550 -0.0882  0.0728
24142SOL    HW173559   7.547   5.762   0.189  0.3173 -2.5124 -0.1910
24142SOL    HW273560   7.624   5.880   0.133 -3.2750  0.2180  0.2899
24143SOL     OW73561   8.616   1.192   8.842 -0.0054  0.0534 -0.4027
24143SOL    HW173562   8.642   1.122   8.783  0.6133  0.4670 -0.6350
24143SOL    HW273563   8.541   1.157   8.890  0.9002 -1.1544  0.2160
24144SOL     OW73564   2.849   3.658   4.937 -0.1577 -0.1548  0.0226
24144SOL    HW173565   2.889   3.693   4.858 -1.7043 -0.9972 -1.1827
24144SOL    HW273566   2.834   3.735   4.992 -0.0879  0.5959 -0.9809
24145SOL     OW73567   5.257   8.962   2.799  0.2857  0.6349  0.0963
24145SOL    HW173568   5.317   8.904   2.846 -0.1070  0.0659 -0.1035
24145SOL    HW273569   5.171   8.944   2.837  0.0866  0.7386 -0.2996
24146SOL     OW73570   6.882   0.324   1.742 -0.3211 -0.4971 -0.4349
24146SOL    HW173571   6.892   0.413   1.774 -1.8541  0.1963 -1.7583
24146SOL    HW273572   6.970   0.298   1.715  0.1330  0.6170 -0.0858
24147SOL     OW73573   4.072   7.340   7.194 -0.0733 -0.4820 -0.2437
24147SOL    HW173574   4.148   7.357   7.250 -0.2664  1.1369 -0.4207
24147SOL    HW273575   4.019   7.278   7.243 -0.3056  0.9799  1.4792
24148SOL     OW73576   3.356   0.474   4.880  0.0916 -0.5418 -0.3492
24148SOL    HW173577   3.289   0.408   4.863 -2.5325  1.5517  1.1314
24148SOL    HW273578   3.361   0.479   4.976  1.0733  0.5992 -0.4315
24149SOL     OW73579   6.629   1.099   2.414 -0.0024  0.4244  0.4401
24149SOL    HW173580   6.622   1.134   2.502 -1.0028 -1.4632  1.1528
24149SOL    HW273581   6.625   1.176   2.357  2.1408  1.8389  2.0265
24150SOL     OW73582   2.615   8.605   2.734  0.2777 -0.5373 -0.1841
24150SOL    HW173583   2.705   8.605   2.768  0.6794  0.5149 -1.1961
24150SOL    HW273584   2.588   8.697   2.736 -0.5219 -0.7563 -0.5411
24151SOL     OW73585   4.617   3.901   0.703 -0.3294  0.4601 -0.0040
24151SOL    HW173586   4.552   3.832   0.715 -1.3969  1.4223 -0.1096
24151SOL    HW273587   4.595   3.966   0.770  0.7247  0.6663  0.1542
24152SOL     OW73588   2.534   3.213   7.744  0.3427 -0.1823  0.1318
24152SOL    HW173589   2.592   3.140   7.766 -1.0001 -0.6833  2.2994
24152SOL    HW273590   2.464   3.173   7.693  0.1502 -0.2368  0.4332
24153SOL     OW73591   3.668   9.033   1.559 -0.0708  0.2992  0.4008
24153SOL    HW173592   3.713   9.062   1.638 -0.4961  1.4505  0.2297
24153SOL    HW273593   3.672   9.108   1.499 -1.7288  0.2391  0.1774
24154SOL     OW73594   2.541   1.874   2.083  0.2036  0.4677  0.1517
24154SOL    HW173595   2.550   1.786   2.047  0.5849  0.6359 -0.1650
24154SOL    HW273596   2.447   1.888   2.090  0.1124 -0.6237  1.8126
24155SOL     OW73597   1.534   3.963   4.437 -0.3534  0.2086 -0.0752
24155SOL    HW173598   1.493   3.897   4.381  0.3206 -0.4535  0.2052
24155SOL    HW273599   1.510   3.938   4.526  1.1567 -0.5451  0.1348
24156SOL     OW73600   5.553   8.371   1.032  0.1377 -0.7273  0.1053
24156SOL    HW173601   5.564   8.358   1.126 -0.4862 -2.9374 -0.0824
24156SOL    HW273602   5.465   8.338   1.013  0.8733 -1.8878 -1.5022
24157SOL     OW73603   6.004   5.114   2.862  0.2912 -0.5314  0.0299
24157SOL    HW173604   6.045   5.061   2.930  0.5950 -0.9606 -0.4757
24157SOL    HW273605   5.916   5.079   2.854 -0.2484  0.4887  1.2230
24158SOL     OW73606   5.398   2.256   1.586 -0.3595  0.2695 -0.3340
24158SOL    HW173607   5.390   2.207   1.668  1.9909  0.0224 -0.1726
24158SOL    HW273608   5.377   2.346   1.611 -0.4201  0.0666  0.3787
24159SOL     OW73609   3.615   6.448   7.248 -0.1024 -0.2441 -0.1222
24159SOL    HW173610   3.643   6.498   7.171 -0.5144  0.2315  0.0305
24159SOL    HW273611   3.631   6.357   7.224  1.3821 -0.0135 -0.1090
24160SOL     OW73612   6.905   9.105   6.550 -0.0252 -0.4529 -0.1052
24160SOL    HW173613   6.993   9.079   6.579  0.3399 -0.0994 -0.8826
24160SOL    HW273614   6.851   9.028   6.567  0.6803 -1.0907 -0.7172
24161SOL     OW73615   5.220   2.545   6.508  0.1940 -0.3923  0.4975
24161SOL    HW173616   5.147   2.527   6.448 -0.8842  0.9025  1.3508
24161SOL    HW273617   5.261   2.460   6.522 -0.2115 -0.9123 -1.1749
24162SOL     OW73618   3.554   3.246   4.537 -0.0169 -0.0722  0.6936
24162SOL    HW173619   3.500   3.249   4.458 -0.5723  0.5286  1.0822
24162SOL    HW273620   3.572   3.338   4.556  0.7506 -0.2468  0.8446
24163SOL     OW73621   8.111   7.282   8.004 -0.2595  0.6621 -0.0933
24163SOL    HW173622   8.085   7.308   7.916 -0.1410  2.0694  0.2565
24163SOL    HW273623   8.191   7.332   8.022 -1.2031  1.7242  1.4200
24164SOL     OW73624   7.383   1.622   8.335  0.2062  0.4067 -0.4537
24164SOL    HW173625   7.419   1.537   8.310  0.0971  0.7335 -1.7934
24164SOL    HW273626   7.382   1.673   8.254  0.4238  1.7562  0.3588
24165SOL     OW73627   0.664   6.343   3.704  0.4881  0.4371  0.0288
24165SOL    HW173628   0.604   6.346   3.779 -0.4465 -0.0085 -0.6789
24165SOL    HW273629   0.687   6.434   3.688 -2.1665  0.9732 -1.3464
24166SOL     OW73630   3.776   7.152   0.816 -0.6455  0.1585 -0.4940
24166SOL    HW173631   3.785   7.246   0.830  0.4623  0.0839 -0.6005
24166SOL    HW273632   3.831   7.112   0.883 -2.5030 -0.4983  0.7114
24167SOL     OW73633   3.711   4.352   3.245 -0.2750 -0.0828  0.1734
24167SOL    HW173634   3.797   4.379   3.214 -0.2352 -0.6248 -0.2057
24167SOL    HW273635   3.729   4.283   3.310 -0.4023  0.2195  0.5332
24168SOL     OW73636   2.837   7.043   3.057  0.1522  0.1893 -0.4767
24168SOL    HW173637   2.916   7.096   3.069  0.8140 -1.2967  3.0827
24168SOL    HW273638   2.866   6.967   3.007 -0.1298  1.5664 -2.9225
24169SOL     OW73639   4.889   1.069   6.999 -0.0487  0.0132  0.1453
24169SOL    HW173640   4.908   0.982   6.964  0.4217 -0.2869  1.1110
24169SOL    HW273641   4.929   1.129   6.937  1.0508 -0.5131  0.3116
24170SOL     OW73642   0.536   4.668   8.989  0.3705  0.1295 -0.0329
24170SOL    HW173643   0.500   4.620   9.064 -1.8608  0.7114 -0.6802
24170SOL    HW273644   0.532   4.760   9.014 -0.5270  0.3406 -0.8892
24171SOL     OW73645   8.485   8.499   4.457  0.2038 -0.0836  0.4346
24171SOL    HW173646   8.392   8.486   4.443  0.1888 -0.2168  0.6475
24171SOL    HW273647   8.500   8.591   4.436  0.1260 -0.1973 -0.1179
24172SOL     OW73648   4.634   4.689   4.001 -0.4499 -0.0893 -0.2894
24172SOL    HW173649   4.555   4.638   4.021 -1.2171  0.6395 -1.3044
24172SOL    HW273650   4.677   4.639   3.931  1.2878 -1.7101  1.8015
24173SOL     OW73651   2.133   1.580   3.916  0.1413 -0.0758  0.5216
24173SOL    HW173652   2.061   1.628   3.957  0.2104  0.0135  0.5359
24173SOL    HW273653   2.210   1.603   3.966  0.1760 -0.1923  0.5209
24174SOL     OW73654   4.062   8.217   2.310 -0.4281 -0.0475  0.0195
24174SOL    HW173655   4.090   8.126   2.299 -1.2053 -0.3902  0.7752
24174SOL    HW273656   4.142   8.268   2.295  0.5743 -0.9845  1.8624
24175SOL     OW73657   6.069   1.485   8.151 -0.0800 -0.3984  0.0336
24175SOL    HW173658   6.112   1.450   8.073 -1.5330 -2.6608  0.1730
24175SOL    HW273659   6.043   1.407   8.201 -2.6066  0.8868  0.8735
24176SOL     OW73660   8.603   5.253   8.232  0.0088  0.4336  0.1489
24176SOL    HW173661   8.649   5.244   8.148  0.1582  1.0337  0.1670
24176SOL    HW273662   8.616   5.168   8.274  0.9818  0.5351  0.0866
24177SOL     OW73663   7.117   2.212   7.127 -0.7436  0.0077  0.0818
24177SOL    HW173664   7.205   2.219   7.088 -1.3070 -0.9417 -1.4182
24177SOL    HW273665   7.065   2.278   7.081 -1.5144 -1.3871 -1.0940
24178SOL     OW73666   2.493   8.422   7.126 -0.4011  0.2601  0.4236
24178SOL    HW173667   2.499   8.517   7.111 -1.9771  0.3042 -0.2045
24178SOL    HW273668   2.564   8.402   7.187  1.3243  1.4728 -1.0767
24179SOL     OW73669   0.220   4.338   0.784 -0.0080  0.4822 -0.2349
24179SOL    HW173670   0.139   4.385   0.766  0.9374  1.2280 -3.1922
24179SOL    HW273671   0.290   4.402   0.765  1.3355  0.0136  2.6494
24180SOL     OW73672   8.729   3.045   6.684  0.0961  0.6066  0.1752
24180SOL    HW173673   8.664   3.109   6.656 -0.0962 -0.5997 -2.4189
24180SOL    HW273674   8.692   3.007   6.764 -1.5479  1.1489 -0.2861
24181SOL     OW73675   6.090   8.212   6.586  0.0639  0.4052 -0.1750
24181SOL    HW173676   5.997   8.204   6.562  0.0674  0.6332 -0.2706
24181SOL    HW273677   6.099   8.157   6.663 -0.3737  1.1530  0.4255
24182SOL     OW73678   8.437   5.626   3.586 -0.1934 -0.4514  0.4287
24182SOL    HW173679   8.517   5.653   3.629 -0.0779  1.0967 -0.6659
24182SOL    HW273680   8.388   5.708   3.574 -0.4420 -0.8770 -1.8290
24183SOL     OW73681   8.560   0.080   1.021 -0.5029 -0.0758 -0.1423
24183SOL    HW173682   8.476   0.066   1.064 -0.7737 -0.7079 -0.8583
24183SOL    HW273683   8.608  -0.002   1.034 -0.4384 -0.1329 -0.6834
24184SOL     OW73684   0.090   4.137   2.044  0.0989 -0.1986  0.0187
24184SOL    HW173685   0.109   4.231   2.053 -2.0210  0.0678  3.0528
24184SOL    HW273686   0.016   4.133   1.983  0.2765  0.0625 -0.2210
24185SOL     OW73687   0.387   8.483   2.897 -0.2200 -0.2820 -0.8077
24185SOL    HW173688   0.464   8.466   2.843 -0.1574  0.0684 -0.8329
24185SOL    HW273689   0.313   8.478   2.836 -0.3044 -1.5063 -0.6144
24186SOL     OW73690   2.764   4.067   8.917  0.3218  0.0728 -0.0854
24186SOL    HW173691   2.716   4.000   8.965 -0.5919  0.4104 -0.5196
24186SOL    HW273692   2.708   4.089   8.843  1.6931 -0.4298 -1.3238
24187SOL     OW73693   3.314   4.566   1.530  0.6324  0.3312  0.1708
24187SOL    HW173694   3.403   4.565   1.565  1.1576  0.9732 -1.0881
24187SOL    HW273695   3.286   4.657   1.542  0.2414  0.1910  0.3190
24188SOL     OW73696   5.511   2.372   2.607 -0.0574  0.4089 -0.3397
24188SOL    HW173697   5.418   2.368   2.587 -0.1742  0.9601  0.0725
24188SOL    HW273698   5.528   2.292   2.657 -0.2675  0.2142 -0.5790
24189SOL     OW73699   2.445   6.818   8.847  0.0401  0.5112  0.2477
24189SOL    HW173700   2.507   6.750   8.821 -1.5303 -0.5570 -0.8722
24189SOL    HW273701   2.453   6.884   8.778 -0.1556  0.3062  0.0261
24190SOL     OW73702   1.172   1.332   3.938  0.3303 -0.2399 -0.2314
24190SOL    HW173703   1.267   1.331   3.940  0.3310 -1.0965 -0.5613
24190SOL    HW273704   1.150   1.377   3.856  0.4549 -0.8126 -0.5790
24191SOL     OW73705   3.909   0.072   3.159 -0.3336  0.1651  0.0500
24191SOL    HW173706   4.000   0.101   3.151 -0.0584 -0.2365  1.4353
24191SOL    HW273707   3.858   0.153   3.160 -0.1232  0.3665 -1.7649
24192SOL     OW73708   1.222   3.039   2.547  0.4717  0.1407  0.4297
24192SOL    HW173709   1.199   3.084   2.465 -1.0887 -0.0473  0.7336
24192SOL    HW273710   1.252   3.108   2.605  0.2722  0.4604  0.1556
24193SOL     OW73711   1.254   1.284   8.735  0.6658 -0.1314 -0.1052
24193SOL    HW173712   1.210   1.235   8.666 -1.7206  1.5137  0.1517
24193SOL    HW273713   1.252   1.226   8.811  2.8090 -1.7256 -1.1307
24194SOL     OW73714   2.640   4.940   0.949 -0.6591 -0.2598 -0.3604
24194SOL    HW173715   2.545   4.945   0.953 -0.6066  0.1652  1.4068
24194SOL    HW273716   2.665   5.002   0.881 -1.6162  0.1582 -0.3388
24195SOL     OW73717   3.398   3.275   5.850 -0.0613 -0.5496 -0.4138
24195SOL    HW173718   3.420   3.361   5.885 -0.6674 -0.1457 -1.0043
24195SOL    HW273719   3.334   3.240   5.913 -0.9089  0.0440 -0.9171
24196SOL     OW73720   4.910   8.261   8.847 -0.1017  0.3422  0.1711
24196SOL    HW173721   4.853   8.185   8.831 -1.5551  1.5171 -0.4477
24196SOL    HW273722   4.965   8.265   8.768 -0.1213  0.0176  0.1369
24197SOL     OW73723   6.111   2.669   3.046  0.0420  0.5192 -0.4229
24197SOL    HW173724   6.112   2.640   3.137  1.7386  1.2620 -0.1887
24197SOL    HW273725   6.148   2.757   3.047  0.2338  0.4874 -1.8459
24198SOL     OW73726   4.469   4.918   2.941 -0.4280  0.2876 -0.5306
24198SOL    HW173727   4.488   5.011   2.958  1.0552 -0.2815  1.4400
24198SOL    HW273728   4.376   4.908   2.961 -0.2187  1.0578  1.0208
24199SOL     OW73729   2.693   6.139   0.078  0.1902  0.6993 -0.0281
24199SOL    HW173730   2.640   6.060   0.066  0.0022  0.5888  1.4104
24199SOL    HW273731   2.780   6.114   0.048  0.1893 -0.1493  0.6357
24200SOL     OW73732   2.410   5.018   1.189  0.0387 -0.3171  0.2318
24200SOL    HW173733   2.391   4.960   1.263 -1.0979 -0.3361 -0.0512
24200SOL    HW273734   2.383   4.968   1.112 -0.1822  0.2753 -0.0773
24201SOL     OW73735   3.492   8.948   5.368  0.3163  0.5044 -0.4358
24201SOL    HW173736   3.542   8.946   5.450 -0.1165 -2.7499 -0.1318
24201SOL    HW273737   3.408   8.906   5.390 -0.1181  0.2819 -2.3593
24202SOL     OW73738   6.481   5.665   6.161  0.0541  0.8499 -0.7509
24202SOL    HW173739   6.446   5.708   6.239  0.3130 -1.2878  0.6340
24202SOL    HW273740   6.574   5.687   6.162  0.3193 -0.2534  0.3352
24203SOL     OW73741   2.924   2.673   3.747  0.2517  0.0091 -0.1106
24203SOL    HW173742   2.916   2.752   3.693 -0.6213 -0.8754 -1.3008
24203SOL    HW273743   2.979   2.701   3.820  2.7496  0.8980 -2.1526
24204SOL     OW73744   3.584   6.200   8.424 -0.0402  0.1079  0.0175
24204SOL    HW173745   3.659   6.254   8.399 -0.7592  2.4976  2.4912
24204SOL    HW273746   3.514   6.228   8.365 -0.0145  0.8451  0.3242
24205SOL     OW73747   5.565   2.597   2.751  0.4149  0.2903  0.2810
24205SOL    HW173748   5.642   2.581   2.805 -0.5382 -1.8895  1.1135
24205SOL    HW273749   5.566   2.525   2.687 -0.0408  1.1970 -0.7823
24206SOL     OW73750   3.536   0.243   0.227 -0.2272 -0.5154 -0.0279
24206SOL    HW173751   3.447   0.272   0.208 -0.3770 -0.6223  0.4979
24206SOL    HW273752   3.553   0.176   0.161 -0.1695  0.1913 -0.7500
24207SOL     OW73753   8.489   0.841   5.165 -0.8616  0.6375 -0.0791
24207SOL    HW173754   8.394   0.846   5.175 -0.8393 -1.4840  1.8616
24207SOL    HW273755   8.519   0.932   5.172 -2.6625  1.2600  0.0221
24208SOL     OW73756   6.499   4.600   1.935 -0.3860 -0.6933  0.0289
24208SOL    HW173757   6.421   4.642   1.897 -0.0077  0.2551  0.2837
24208SOL    HW273758   6.464   4.535   1.996 -0.9847 -1.0799 -0.7012
24209SOL     OW73759   0.854   8.980   2.758 -0.1090  0.0234  0.3846
24209SOL    HW173760   0.878   9.072   2.758 -0.1616  0.0368  0.2944
24209SOL    HW273761   0.849   8.956   2.665 -1.9451  0.3999  0.3641
24210SOL     OW73762   6.870   6.330   8.666  0.1727  0.2381  0.4251
24210SOL    HW173763   6.890   6.400   8.729 -0.5366  1.1203 -0.2850
24210SOL    HW273764   6.821   6.266   8.716  1.2845 -0.0141  1.2174
24211SOL     OW73765   2.475   1.142   7.833  0.2084  0.7139  1.1714
24211SOL    HW173766   2.534   1.078   7.792 -0.7600 -0.4967  1.6326
24211SOL    HW273767   2.438   1.097   7.908 -1.8329  1.2181  0.5216
24212SOL     OW73768   0.637   0.674   2.491 -0.3682 -0.0322 -0.1803
24212SOL    HW173769   0.728   0.690   2.467 -0.1013 -0.2410  0.6751
24212SOL    HW273770   0.589   0.748   2.452 -0.1081 -0.8363 -2.1616
24213SOL     OW73771   6.621   1.075   2.689 -0.2040 -0.5751 -0.2198
24213SOL    HW173772   6.658   1.002   2.639  1.4713 -0.6524  1.0268
24213SOL    HW273773   6.529   1.051   2.702 -0.0024 -1.8353 -0.9368
24214SOL     OW73774   1.821   8.120   8.392  0.2058  0.2038  0.3028
24214SOL    HW173775   1.749   8.073   8.350  1.0833 -0.8387 -0.0765
24214SOL    HW273776   1.807   8.211   8.369  0.2798 -0.2506 -1.7409
24215SOL     OW73777   6.207   4.620   7.509  0.2989  0.3009 -0.1704
24215SOL    HW173778   6.129   4.566   7.519  0.6143  0.2105  2.5928
24215SOL    HW273779   6.179   4.690   7.450 -2.2387  0.8213  1.4620
24216SOL     OW73780   6.928   4.113   4.085 -0.2237 -0.4019 -0.0331
24216SOL    HW173781   7.001   4.100   4.025  0.9105 -0.0395  1.2154
24216SOL    HW273782   6.937   4.044   4.150  0.4130  0.9927  1.4371
24217SOL     OW73783   0.814   6.142   6.210 -0.3837  1.1173  0.1680
24217SOL    HW173784   0.741   6.204   6.211 -1.1509  0.3157 -1.7504
24217SOL    HW273785   0.877   6.181   6.149 -0.9489 -0.0224 -1.1862
24218SOL     OW73786   2.531   8.617   6.640  0.6933  0.1125  0.1251
24218SOL    HW173787   2.449   8.612   6.591  0.8020  1.5771 -0.2605
24218SOL    HW273788   2.546   8.527   6.671  0.0593 -0.6314 -1.6030
24219SOL     OW73789   8.373   7.575   7.467  0.3443  0.8104  0.0465
24219SOL    HW173790   8.315   7.507   7.503  0.9327  0.3768  0.1767
24219SOL    HW273791   8.461   7.543   7.485  0.6315  2.1435  1.1227
24220SOL     OW73792   6.853   6.178   5.592 -0.4632  0.3701 -0.1376
24220SOL    HW173793   6.859   6.102   5.649 -0.1226  1.5352  1.4398
24220SOL    HW273794   6.775   6.225   5.622 -0.9275  0.4308 -1.3831
24221SOL     OW73795   8.014   2.399   3.326  0.7989 -0.1829  0.6520
24221SOL    HW173796   8.079   2.466   3.349  0.4358  0.7174 -0.7800
24221SOL    HW273797   8.034   2.376   3.235 -1.6488  1.1464 -0.3316
24222SOL     OW73798   4.271   4.063   5.696 -0.2535  0.3210 -0.2031
24222SOL    HW173799   4.346   4.117   5.667  1.0429 -1.0584  0.4597
24222SOL    HW273800   4.271   3.989   5.636 -0.8360  0.0975  0.0706
24223SOL     OW73801   4.030   7.918   6.228 -0.0873  0.2751  0.6422
24223SOL    HW173802   4.100   7.941   6.289  0.3966  0.0654  0.1808
24223SOL    HW273803   4.002   8.002   6.191  1.8117  0.1878 -1.1888
24224SOL     OW73804   1.561   5.753   8.888  0.1842  0.4135 -0.4706
24224SOL    HW173805   1.632   5.768   8.826  0.0779 -0.3514 -0.7848
24224SOL    HW273806   1.543   5.839   8.925  1.2617  0.6246 -0.4029
24225SOL     OW73807   3.649   3.052   9.052  0.1605  0.0086  0.0139
24225SOL    HW173808   3.706   2.995   9.103 -0.4890 -0.8664 -0.2163
24225SOL    HW273809   3.644   3.133   9.103  0.2573 -0.5160  0.8716
24226SOL     OW73810   2.574   1.254   8.088  0.2230  0.0438  0.1233
24226SOL    HW173811   2.512   1.313   8.045  1.8796  1.3656 -0.5977
24226SOL    HW273812   2.575   1.284   8.179 -1.3834 -1.0857  0.5575
24227SOL     OW73813   3.543   0.819   0.744 -0.2803  0.9789 -0.0112
24227SOL    HW173814   3.537   0.882   0.672 -0.5005  0.7847 -0.1664
24227SOL    HW273815   3.454   0.784   0.752  0.0951 -0.2014 -0.7346
24228SOL     OW73816   8.585   0.857   5.879  0.2176  0.1088  0.7961
24228SOL    HW173817   8.561   0.886   5.791  2.3702  1.5634  0.5955
24228SOL    HW273818   8.574   0.936   5.933  3.4409  0.6730  0.8235
24229SOL     OW73819   6.456   6.312   2.087  0.9270 -0.2923 -0.2689
24229SOL    HW173820   6.515   6.305   2.163 -1.3274  0.7639  1.6940
24229SOL    HW273821   6.503   6.369   2.026  2.1554  0.0973  0.9852
24230SOL     OW73822   1.072   6.236   4.175 -0.0189 -0.2001 -0.0010
24230SOL    HW173823   1.087   6.290   4.253  1.0177 -1.3936  0.6685
24230SOL    HW273824   1.080   6.146   4.207 -1.5313 -0.7802 -1.1072
24231SOL     OW73825   3.435   0.768   1.955 -0.6468  0.5596 -0.1502
24231SOL    HW173826   3.499   0.824   1.910 -1.3018 -0.1055 -1.9830
24231SOL    HW273827   3.354   0.819   1.955 -0.2332  1.3064  1.9701
24232SOL     OW73828   2.160   2.897   0.700 -0.6353  0.3246  0.0388
24232SOL    HW173829   2.218   2.970   0.722 -0.8355  0.2217  0.9627
24232SOL    HW273830   2.074   2.937   0.689 -0.9316  0.1456  1.4481
24233SOL     OW73831   7.818   6.205   5.900  0.8368 -0.1216  0.1467
24233SOL    HW173832   7.851   6.154   5.826  1.1872 -0.5142  0.5732
24233SOL    HW273833   7.753   6.148   5.942  1.2936 -0.2522  0.6781
24234SOL     OW73834   5.589   5.691   1.914  0.0858 -0.1386  0.3655
24234SOL    HW173835   5.598   5.764   1.853 -3.3938  0.4994  0.4105
24234SOL    HW273836   5.616   5.614   1.864 -0.1702  0.6850 -1.0874
24235SOL     OW73837   6.634   3.429   3.626  0.5731  0.1992  0.1145
24235SOL    HW173838   6.646   3.385   3.710  1.9452  0.2164 -0.0579
24235SOL    HW273839   6.696   3.387   3.567  1.5709  1.9673 -0.1844
24236SOL     OW73840   8.586   4.316   7.217 -0.1507  0.1285 -0.1813
24236SOL    HW173841   8.667   4.280   7.181  0.7896  0.0666  1.8375
24236SOL    HW273842   8.518   4.255   7.189  0.3060  0.5911 -2.5594
24237SOL     OW73843   4.846   7.889   6.374 -0.7650  0.7176 -0.2534
24237SOL    HW173844   4.806   7.972   6.400  0.0641  0.9191  0.4442
24237SOL    HW273845   4.939   7.909   6.365 -0.6153 -0.0502 -0.4783
24238SOL     OW73846   7.464   7.739   4.896  0.3156  0.2600  0.6789
24238SOL    HW173847   7.481   7.690   4.977 -0.0343 -1.4797 -0.2551
24238SOL    HW273848   7.509   7.823   4.909  1.2541 -0.4388  2.2004
24239SOL     OW73849   2.627   0.004   5.435 -0.1442 -0.8456  0.0536
24239SOL    HW173850   2.641   0.096   5.413  1.3135 -0.8084  0.9879
24239SOL    HW273851   2.654  -0.044   5.356  1.4977 -0.5536  0.3895
24240SOL     OW73852   3.446   2.190   2.931  0.0574 -0.1497  0.1500
24240SOL    HW173853   3.537   2.164   2.949  0.0165 -0.6235 -0.3001
24240SOL    HW273854   3.407   2.113   2.890 -0.2455  0.4254 -0.6583
24241SOL     OW73855   7.148   0.304   2.689  0.5565  0.2971 -0.1833
24241SOL    HW173856   7.134   0.210   2.695  1.8141  0.1272  0.3707
24241SOL    HW273857   7.081   0.334   2.628 -0.3756 -0.8273  0.2511
24242SOL     OW73858   6.706   2.058   4.060 -0.6844 -0.2567 -0.3178
24242SOL    HW173859   6.678   2.068   4.151 -1.6664  1.5809 -0.7543
24242SOL    HW273860   6.795   2.024   4.066 -0.5120  0.3682  1.3628
24243SOL     OW73861   6.816   2.797   6.371  0.3155  0.1609 -0.2643
24243SOL    HW173862   6.729   2.767   6.399  0.1669  0.5841 -0.2644
24243SOL    HW273863   6.830   2.877   6.422  1.5843 -0.9870  1.3031
24244SOL     OW73864   2.735   5.252   3.480  0.2435 -0.1760 -0.0261
24244SOL    HW173865   2.645   5.221   3.477  0.1761 -0.0057  0.2518
24244SOL    HW273866   2.772   5.226   3.396 -0.2229  0.2378 -0.3634
24245SOL     OW73867   4.124   6.454   0.577  0.5122  0.0512 -0.1773
24245SOL    HW173868   4.034   6.439   0.606  0.3447  0.4947 -0.4577
24245SOL    HW273869   4.125   6.427   0.486  0.8348 -0.5799  0.0084
24246SOL     OW73870   5.288   4.490   4.714 -0.8720  0.2001 -0.2819
24246SOL    HW173871   5.371   4.523   4.745 -0.8844 -0.3998  0.4160
24246SOL    HW273872   5.294   4.395   4.726 -3.2975  0.3634  4.0733
24247SOL     OW73873   6.321   1.297   6.262 -0.4702 -0.1435  0.5748
24247SOL    HW173874   6.357   1.235   6.198  1.6543  2.2366 -0.7246
24247SOL    HW273875   6.228   1.303   6.240 -1.2770 -4.1421  1.9908
24248SOL     OW73876   0.734   3.583   7.581  0.1608 -0.3777 -0.6503
24248SOL    HW173877   0.778   3.664   7.557  1.9317 -1.2997 -0.6400
24248SOL    HW273878   0.734   3.530   7.501 -0.6918 -0.5124 -0.5738
24249SOL     OW73879   0.401   8.561   8.211  0.3709 -0.0164 -0.2383
24249SOL    HW173880   0.399   8.626   8.141  1.8544  0.1297 -0.1655
24249SOL    HW273881   0.385   8.612   8.291  1.8705  0.3467 -0.1445
24250SOL     OW73882   5.001   2.925   4.852  0.1029 -0.0370  0.2274
24250SOL    HW173883   4.980   2.958   4.765 -0.8792 -0.8618  0.1305
24250SOL    HW273884   5.055   2.993   4.891  0.1218  0.5786 -0.8373
24251SOL     OW73885   2.910   1.459   3.606 -0.1088  0.0001  0.0171
24251SOL    HW173886   2.886   1.511   3.529 -0.6231 -2.1405 -1.3552
24251SOL    HW273887   3.001   1.435   3.592 -0.5641 -1.4506 -0.6041
24252SOL     OW73888   1.542   0.186   1.711 -0.4945 -0.0919  0.0255
24252SOL    HW173889   1.599   0.236   1.769  0.4612  0.7988 -1.6002
24252SOL    HW273890   1.454   0.196   1.749  0.1134  0.2929  1.3952
24253SOL     OW73891   5.162   2.679   0.252  0.1505  0.0390 -0.4124
24253SOL    HW173892   5.105   2.724   0.314 -1.1887 -1.6753 -0.3318
24253SOL    HW273893   5.207   2.750   0.205 -0.3501  1.3976  1.0626
24254SOL     OW73894   4.798   7.713   0.879  0.3305  0.4965  0.1852
24254SOL    HW173895   4.766   7.802   0.892  0.8366  0.6724  0.2916
24254SOL    HW273896   4.886   7.714   0.919  0.7464  0.2299 -0.6925
24255SOL     OW73897   1.432   8.995   1.878  0.5453 -0.7056  0.6538
24255SOL    HW173898   1.413   8.917   1.930  0.2825  0.1304  1.8442
24255SOL    HW273899   1.522   9.018   1.901  0.2470 -0.0240  1.1612
24256SOL     OW73900   6.580   2.508   6.253 -0.2153  0.7709  0.9377
24256SOL    HW173901   6.657   2.488   6.307  0.7699  1.5006 -0.1446
24256SOL    HW273902   6.545   2.422   6.230  1.5975  0.3094 -0.3483
24257SOL     OW73903   2.050   2.121   4.282  0.3368  0.1578 -0.5850
24257SOL    HW173904   2.058   2.214   4.302  0.0187  0.0742 -0.0377
24257SOL    HW273905   2.065   2.115   4.188  2.1217  0.5388 -0.3621
24258SOL     OW73906   6.422   5.842   6.376 -1.1488 -0.1823 -0.1291
24258SOL    HW173907   6.349   5.825   6.436  0.3742  1.1345  2.2725
24258SOL    HW273908   6.400   5.925   6.334 -0.8750  0.4918  0.9956
24259SOL     OW73909   4.230   3.316   5.702 -0.1325 -0.3502 -0.0506
24259SOL    HW173910   4.242   3.249   5.635 -2.7839 -0.8579 -0.1260
24259SOL    HW273911   4.236   3.268   5.785 -0.4085 -0.3851 -0.0501
24260SOL     OW73912   6.947   6.132   7.210  0.0870  0.1448 -0.1010
24260SOL    HW173913   7.004   6.192   7.258 -1.2176  0.6249  0.9089
24260SOL    HW273914   6.959   6.048   7.254  0.4802  0.0954 -0.2981
24261SOL     OW73915   5.557   7.616   6.926 -0.3606 -0.4332 -0.0423
24261SOL    HW173916   5.477   7.573   6.953 -0.2764 -0.4923  0.1139
24261SOL    HW273917   5.543   7.638   6.834  0.1603 -2.1430 -0.5800
24262SOL     OW73918   7.889   3.134   5.713  0.4241 -0.1018 -0.1571
24262SOL    HW173919   7.937   3.129   5.796 -1.1583 -0.2744  0.7997
24262SOL    HW273920   7.931   3.068   5.657  1.1458 -0.4088  0.7150
24263SOL     OW73921   3.719   4.159   3.427 -0.4386  0.0059 -0.4021
24263SOL    HW173922   3.653   4.129   3.489 -0.4589 -0.1464 -0.4955
24263SOL    HW273923   3.724   4.089   3.362  1.3102 -0.9871  0.7265
24264SOL     OW73924   8.603   1.964   2.075  0.3683 -0.6048 -0.2432
24264SOL    HW173925   8.632   1.881   2.112 -1.5715 -0.9684  0.6000
24264SOL    HW273926   8.558   2.008   2.148  2.2570  1.7176 -0.3462
24265SOL     OW73927   1.606   1.096   2.219 -0.4437  0.0067  0.6022
24265SOL    HW173928   1.637   1.024   2.273 -2.0427  0.2544  1.9185
24265SOL    HW273929   1.514   1.105   2.241 -1.8860 -1.3868 -3.8452
24266SOL     OW73930   2.491   5.057   3.291  0.2236  0.2141 -0.0143
24266SOL    HW173931   2.465   5.014   3.372  0.1341  1.8432  0.8534
24266SOL    HW273932   2.432   5.020   3.225 -0.5332 -0.2396  0.8863
24267SOL     OW73933   1.819   7.954   3.492 -0.1591 -0.0135 -0.3067
24267SOL    HW173934   1.729   7.921   3.483 -1.7531  3.1335  2.3861
24267SOL    HW273935   1.816   8.043   3.457  1.2709  0.9783  1.8666
24268SOL     OW73936   2.692   4.285   2.008  0.8822 -0.8021  0.1453
24268SOL    HW173937   2.684   4.361   1.949 -0.2608 -0.1631  1.0679
24268SOL    HW273938   2.624   4.225   1.979  0.0411 -0.3100  1.0122
24269SOL     OW73939   2.453   2.864   0.221  0.1477 -0.4653  0.1223
24269SOL    HW173940   2.378   2.862   0.161  0.3035  0.5898 -0.1159
24269SOL    HW273941   2.415   2.856   0.308 -0.3824  1.3511  0.0966
24270SOL     OW73942   7.421   1.022   3.231 -0.4785 -0.4303 -0.1001
24270SOL    HW173943   7.431   0.991   3.142 -0.0798  0.4961 -0.4008
24270SOL    HW273944   7.486   1.093   3.238 -1.5673  0.5476  0.4219
24271SOL     OW73945   2.869   0.813   3.366 -0.4169 -0.2854 -0.0419
24271SOL    HW173946   2.831   0.726   3.352 -0.7680 -0.4246  1.5601
24271SOL    HW273947   2.828   0.844   3.446 -0.4800  1.4920 -0.7283
24272SOL     OW73948   3.556   1.743   2.789  0.0483  0.2885  0.3988
24272SOL    HW173949   3.578   1.711   2.876 -1.1797  2.9272  1.8086
24272SOL    HW273950   3.536   1.664   2.739 -2.2235 -1.2625  3.3882
24273SOL     OW73951   9.075   5.994   1.786  0.6429 -0.3500 -0.0742
24273SOL    HW173952   9.006   5.928   1.784 -0.3699  0.6955 -0.5469
24273SOL    HW273953   9.149   5.950   1.827  0.1991 -1.9610 -0.9605
24274SOL     OW73954   7.853   2.975   1.638 -0.2831  0.3424  0.1768
24274SOL    HW173955   7.899   2.917   1.577  1.3148 -0.2169  1.8216
24274SOL    HW273956   7.864   2.933   1.724 -1.1411  1.8652  1.0730
24275SOL     OW73957   1.938   6.657   5.777  0.8488  0.5237 -0.4737
24275SOL    HW173958   1.976   6.638   5.863 -0.9719  0.7580  0.4307
24275SOL    HW273959   1.888   6.738   5.791 -1.0103 -0.4419 -1.2436
24276SOL     OW73960   4.567   5.753   5.304  0.6731 -0.2945 -0.5460
24276SOL    HW173961   4.496   5.741   5.241 -1.2041  1.2474  1.1389
24276SOL    HW273962   4.632   5.805   5.258 -0.7603  1.0189 -1.1747
24277SOL     OW73963   3.749   4.251   8.544  0.2339  0.4018 -0.0376
24277SOL    HW173964   3.802   4.172   8.543  0.3309  0.4602  0.5659
24277SOL    HW273965   3.660   4.220   8.525  0.3407  0.2014 -0.2147
24278SOL     OW73966   2.423   0.236   7.121  0.3927 -0.4012 -0.5613
24278SOL    HW173967   2.513   0.230   7.089  0.6853 -2.1802  0.4083
24278SOL    HW273968   2.394   0.145   7.127 -0.5296 -0.0333  1.6656
24279SOL     OW73969   7.070   6.149   7.969  0.8163  0.4719  0.0377
24279SOL    HW173970   7.049   6.115   8.056  0.2055  0.7269 -0.0009
24279SOL    HW273971   6.986   6.178   7.935  0.8212 -0.8333 -1.1671
24280SOL     OW73972   5.017   5.033   1.432 -0.6659 -0.1550 -0.0302
24280SOL    HW173973   5.006   5.065   1.342  0.6666 -0.9383 -0.4914
24280SOL    HW273974   5.041   4.941   1.422 -2.6221 -0.8653  1.2124
24281SOL     OW73975   4.998   8.983   5.521  0.4436  0.6266 -0.4612
24281SOL    HW173976   4.939   9.058   5.534  1.2635  1.2630 -0.3779
24281SOL    HW273977   4.968   8.919   5.586  0.1114  1.1100 -0.1219
24282SOL     OW73978   6.698   8.229   7.767 -0.1679 -0.4696 -0.4385
24282SOL    HW173979   6.727   8.313   7.734 -0.0895 -0.4831 -0.4048
24282SOL    HW273980   6.756   8.165   7.725  0.0411 -0.4739 -0.1506
24283SOL     OW73981   6.408   7.632   4.964 -0.0336 -0.0569 -0.1579
24283SOL    HW173982   6.420   7.675   4.879 -4.4954 -0.0934 -1.0638
24283SOL    HW273983   6.382   7.543   4.942 -1.6071  0.0353  1.1416
24284SOL     OW73984   8.179   0.487   2.035  0.1100 -0.1881 -0.6518
24284SOL    HW173985   8.153   0.403   2.074  2.2218 -0.4592  0.2913
24284SOL    HW273986   8.132   0.553   2.086 -1.8486 -0.7204 -1.6197
24285SOL     OW73987   3.095   8.593   3.197 -0.3256  0.0989 -0.0399
24285SOL    HW173988   3.090   8.498   3.193  0.7668  0.0892 -3.0344
24285SOL    HW273989   3.005   8.620   3.216 -0.9041 -1.4684 -0.4021
24286SOL     OW73990   5.194   8.456   4.205  0.2372  0.1373  0.0340
24286SOL    HW173991   5.230   8.519   4.141  1.0735 -0.6072 -0.2484
24286SOL    HW273992   5.102   8.448   4.181  0.6096 -0.4057 -1.3428
24287SOL     OW73993   8.071   2.387   3.065 -0.5828  0.0541  0.3285
24287SOL    HW173994   8.154   2.388   3.018 -0.1185 -1.6680  1.0254
24287SOL    HW273995   8.008   2.349   3.003 -0.0208 -2.0091  0.9676
24288SOL     OW73996   1.127   0.171   6.160  0.1393  0.4333  0.8907
24288SOL    HW173997   1.215   0.136   6.149  0.4542  1.7830 -1.5022
24288SOL    HW273998   1.123   0.198   6.252  1.2105 -2.1009  1.7905
24289SOL     OW73999   8.846   7.499   4.248  0.5122 -0.3546 -0.1414
24289SOL    HW174000   8.854   7.434   4.317 -0.3515 -0.3872 -0.0559
24289SOL    HW274001   8.804   7.451   4.176 -0.0672  0.0793 -0.0994
24290SOL     OW74002   5.943   5.465   4.906 -0.0497 -0.8452 -0.2457
24290SOL    HW174003   5.946   5.499   4.996  0.2770 -1.9310  0.1717
24290SOL    HW274004   5.896   5.533   4.857 -1.6775 -0.9380  1.0645
24291SOL     OW74005   2.577   3.851   4.152  0.2157  0.4234 -0.1083
24291SOL    HW174006   2.522   3.786   4.108  0.5893 -1.3141  1.7839
24291SOL    HW274007   2.519   3.924   4.171 -1.0260 -0.6429  0.3305
24292SOL     OW74008   4.378   1.046   6.050 -0.1522  0.3476  0.5220
24292SOL    HW174009   4.464   1.011   6.071 -0.3826 -1.8876 -1.8055
24292SOL    HW274010   4.330   1.044   6.132  1.3124 -0.5426  1.3929
24293SOL     OW74011   1.102   4.976   7.648 -0.0926 -0.4905 -0.2425
24293SOL    HW174012   1.104   5.049   7.710  0.4020 -0.7959  0.1122
24293SOL    HW274013   1.043   5.004   7.579  0.1727  0.2880 -0.1600
24294SOL     OW74014   5.450   1.789   6.728  0.5332 -0.3630  0.5309
24294SOL    HW174015   5.509   1.754   6.795  0.3914  0.3218  1.0237
24294SOL    HW274016   5.367   1.743   6.743  0.1417  0.6389  1.6236
24295SOL     OW74017   3.074   2.776   7.515 -0.2702 -0.5563  0.1787
24295SOL    HW174018   2.983   2.751   7.530 -0.5576 -0.1116 -0.7752
24295SOL    HW274019   3.122   2.731   7.585 -1.0912 -1.5841  0.1168
24296SOL     OW74020   2.975   0.985   2.328  0.0940 -0.2623 -0.0624
24296SOL    HW174021   2.924   0.999   2.248 -0.0996 -1.8100 -0.2528
24296SOL    HW274022   3.056   0.944   2.298  0.7390  0.6291  0.4025
24297SOL     OW74023   3.627   5.996   6.866 -0.0112  0.2195 -0.1738
24297SOL    HW174024   3.662   5.957   6.946  1.2146  1.2007 -0.2063
24297SOL    HW274025   3.596   5.921   6.815  1.1465 -0.6204  0.2955
24298SOL     OW74026   6.624   7.492   2.311 -0.1927  0.1264 -0.5988
24298SOL    HW174027   6.719   7.480   2.316  0.0111  1.5489 -0.4575
24298SOL    HW274028   6.610   7.534   2.225 -0.2968  2.6776  0.5599
24299SOL     OW74029   3.074   0.035   7.532 -0.3338  0.7380  0.3962
24299SOL    HW174030   3.022  -0.044   7.550  1.4469 -0.4863  0.4623
24299SOL    HW274031   3.145   0.004   7.476  1.6760  1.8196  2.2251
24300SOL     OW74032   4.993   6.934   3.778 -0.2681  0.2548 -0.3501
24300SOL    HW174033   5.016   6.847   3.744 -0.3963  0.7328 -1.7537
24300SOL    HW274034   5.066   6.990   3.750  0.2936  0.4399  1.3785
24301SOL     OW74035   7.998   1.764   7.236 -0.0818  0.6138 -0.2352
24301SOL    HW174036   8.040   1.679   7.221 -0.5821  0.6499 -2.1223
24301SOL    HW274037   7.904   1.744   7.240 -0.1104  0.9171  0.8063
24302SOL     OW74038   1.203   5.434   0.217  0.2307  0.3881 -0.0907
24302SOL    HW174039   1.232   5.400   0.132  1.2389 -2.7423  1.3753
24302SOL    HW274040   1.259   5.511   0.232  0.4719  0.6193 -1.9171
24303SOL     OW74041   2.273   0.356   5.880  0.0822 -0.5093  0.5228
24303SOL    HW174042   2.206   0.327   5.942  0.1249  0.2221  0.9137
24303SOL    HW274043   2.339   0.287   5.884  0.2424 -0.3106  1.5391
24304SOL     OW74044   6.611   6.295   5.631 -0.2997 -0.2041 -0.0494
24304SOL    HW174045   6.571   6.333   5.552 -2.3866 -0.1982  0.9352
24304SOL    HW274046   6.538   6.251   5.675  0.5540  0.7125  2.4254
24305SOL     OW74047   4.355   6.075   1.372  0.6306  0.6019 -0.5501
24305SOL    HW174048   4.449   6.088   1.388  0.5403  2.9424 -1.5175
24305SOL    HW274049   4.348   6.069   1.277 -0.0178 -2.0361 -0.4210
24306SOL     OW74050   8.743   8.250   7.063  0.0476  0.3275  0.3575
24306SOL    HW174051   8.775   8.161   7.052 -1.4271 -0.1910  0.1251
24306SOL    HW274052   8.790   8.300   6.996 -1.7387 -0.9812 -2.0071
24307SOL     OW74053   3.814   6.476   6.790 -0.3602 -0.0450 -0.4715
24307SOL    HW174054   3.820   6.437   6.878 -2.1964  1.2440  0.2833
24307SOL    HW274055   3.735   6.437   6.752 -0.1328  0.1701 -1.1722
24308SOL     OW74056   7.437   1.760   6.389  0.5939 -0.0762  0.5674
24308SOL    HW174057   7.347   1.749   6.420  0.5851  0.6665  0.8202
24308SOL    HW274058   7.452   1.685   6.331 -0.3504  0.0621  0.1354
24309SOL     OW74059   2.690   2.681   5.609 -0.5596  0.1148 -0.1940
24309SOL    HW174060   2.726   2.611   5.662 -1.2710 -0.1338 -0.0241
24309SOL    HW274061   2.656   2.744   5.672  0.0414  0.5998 -0.3453
24310SOL     OW74062   3.954   2.242   6.429  0.3144 -0.4898 -0.3836
24310SOL    HW174063   3.909   2.325   6.445  0.4282 -0.5950  0.5068
24310SOL    HW274064   4.045   2.266   6.412  0.6177 -0.5088  1.1205
24311SOL     OW74065   8.786   1.728   5.146 -0.1185 -0.2857 -0.5455
24311SOL    HW174066   8.807   1.638   5.123 -0.7584 -0.3549 -0.8695
24311SOL    HW274067   8.850   1.751   5.213  0.2352 -0.8802 -0.6740
24312SOL     OW74068   0.029   3.652   5.379 -0.0209 -0.1602  0.3962
24312SOL    HW174069   0.036   3.585   5.311 -1.0264 -2.1114  2.1150
24312SOL    HW274070   0.088   3.622   5.448 -1.8074 -0.2910  1.9471
24313SOL     OW74071   3.863   0.595   1.893  0.8582  0.1642  0.2932
24313SOL    HW174072   3.882   0.685   1.919 -0.5499  0.2851  1.0099
24313SOL    HW274073   3.898   0.588   1.804 -0.2886  1.8957 -0.3500
24314SOL     OW74074   7.968   4.251   5.135  0.3141  0.3010 -0.6136
24314SOL    HW174075   8.003   4.207   5.057 -0.9540  0.3412 -1.2382
24314SOL    HW274076   7.969   4.344   5.112 -0.2356  0.2981 -0.6725
24315SOL     OW74077   6.983   1.171   6.013  0.4267  0.2405 -0.2147
24315SOL    HW174078   6.897   1.182   5.972  0.2134  2.9887  0.7832
24315SOL    HW274079   6.987   1.078   6.034 -2.6463  0.1291  0.3790
24316SOL     OW74080   0.530   7.404   6.862 -0.1683  0.1154  0.0122
24316SOL    HW174081   0.495   7.330   6.912 -1.5092 -0.1905 -1.3132
24316SOL    HW274082   0.623   7.408   6.887 -0.1570 -1.7505  0.4294
24317SOL     OW74083   3.488   0.301   3.386  0.2435 -0.1343  0.6135
24317SOL    HW174084   3.499   0.236   3.317  1.7167  0.4682  0.2505
24317SOL    HW274085   3.422   0.361   3.352 -0.4926 -0.9320  0.5881
24318SOL     OW74086   4.682   5.773   3.039 -0.1033 -0.2248 -0.3021
24318SOL    HW174087   4.719   5.758   3.126 -0.8090  0.0099  0.0406
24318SOL    HW274088   4.697   5.866   3.022 -0.9864 -0.0140  0.0530
24319SOL     OW74089   5.295   7.384   7.587 -0.4113  0.0150  0.3292
24319SOL    HW174090   5.218   7.409   7.639 -0.0473  0.6648  0.5696
24319SOL    HW274091   5.310   7.459   7.529 -1.0357 -0.8532 -0.9955
24320SOL     OW74092   6.432   3.381   2.234  0.0920  0.2915  0.0928
24320SOL    HW174093   6.510   3.434   2.222 -0.3132  1.1411  1.0907
24320SOL    HW274094   6.359   3.438   2.208 -0.1922 -0.6533 -1.3210
24321SOL     OW74095   0.828   5.784   2.863  0.2951  0.5356 -0.1130
24321SOL    HW174096   0.913   5.742   2.850 -0.3513 -0.1891 -2.4604
24321SOL    HW274097   0.809   5.771   2.956  2.4183  0.1366  0.3228
24322SOL     OW74098   1.192   1.052   8.541  0.2532 -0.4435 -0.4657
24322SOL    HW174099   1.158   0.987   8.602  1.3960 -1.5507 -0.9514
24322SOL    HW274100   1.285   1.031   8.533  0.7011  1.3880 -0.5006
24323SOL     OW74101   5.275   1.276   8.903 -0.2768 -0.1336 -0.1197
24323SOL    HW174102   5.255   1.214   8.973 -0.3367 -0.1779 -0.1762
24323SOL    HW274103   5.349   1.327   8.936 -0.8106  0.3776  0.3105
24324SOL     OW74104   2.071   3.996   3.860 -0.2561 -0.1928 -0.0636
24324SOL    HW174105   2.111   4.083   3.851  0.4290 -0.6492 -1.9147
24324SOL    HW274106   2.015   4.003   3.937 -0.8270  2.1244 -0.6231
24325SOL     OW74107   8.541   8.315   1.968  0.2840 -0.0556 -0.1211
24325SOL    HW174108   8.502   8.256   1.904  2.3958 -0.8400 -0.7776
24325SOL    HW274109   8.593   8.259   2.025 -0.4188  0.8064  1.4358
24326SOL     OW74110   4.099   8.350   2.047 -0.7445  0.4142  0.3090
24326SOL    HW174111   4.085   8.444   2.062  0.1871  1.2126 -2.8913
24326SOL    HW274112   4.042   8.330   1.972  0.5575 -1.0777 -0.3266
24327SOL     OW74113   2.230   1.273   2.643 -0.3645 -0.2212  0.5491
24327SOL    HW174114   2.188   1.196   2.682  0.0996 -1.1369 -0.6980
24327SOL    HW274115   2.164   1.310   2.585 -0.6237  0.4007  1.2267
24328SOL     OW74116   4.538   5.393   3.951  0.3282  0.6637  0.3849
24328SOL    HW174117   4.621   5.441   3.951  0.4094  0.5262  0.1197
24328SOL    HW274118   4.472   5.459   3.927  0.5077  0.5295 -0.4920
24329SOL     OW74119   1.975   2.386   2.555 -0.0062  0.3013  0.4313
24329SOL    HW174120   2.003   2.409   2.644  2.0979  0.5946 -0.2330
24329SOL    HW274121   1.881   2.372   2.562 -0.1690  1.8746  2.3864
24330SOL     OW74122   8.698   6.892   4.608  0.2921  0.4448 -0.0169
24330SOL    HW174123   8.651   6.975   4.604 -1.8186 -0.6327  0.9140
24330SOL    HW274124   8.652   6.835   4.547  0.3653 -0.6466  0.9076
24331SOL     OW74125   5.126   6.723   0.920 -0.1791 -0.0308 -0.3973
24331SOL    HW174126   5.130   6.807   0.873  1.6362 -0.1270 -0.4725
24331SOL    HW274127   5.139   6.657   0.852 -1.7653 -0.4133 -0.3634
24332SOL     OW74128   0.538   7.692   2.062  0.4648 -0.6254 -0.3693
24332SOL    HW174129   0.590   7.771   2.075 -0.6842  0.5138 -2.3145
24332SOL    HW274130   0.448   7.720   2.071  0.0330 -1.7117 -1.1076
24333SOL     OW74131   1.883   2.700   6.508 -0.5242 -0.3833 -0.2795
24333SOL    HW174132   1.807   2.667   6.460 -1.2367 -0.1813  0.6846
24333SOL    HW274133   1.849   2.721   6.595  0.4325  0.6024 -0.1220
24334SOL     OW74134   7.498   5.696   3.056 -0.5567  0.5512 -0.7803
24334SOL    HW174135   7.575   5.722   3.004  0.2796  0.2896  0.3007
24334SOL    HW274136   7.458   5.779   3.083 -0.7071  0.6889 -1.3912
24335SOL     OW74137   5.704   7.151   2.030  0.3619  0.2314  0.4580
24335SOL    HW174138   5.740   7.063   2.030  1.8427  0.7993 -0.9419
24335SOL    HW274139   5.775   7.207   1.999 -0.2035  2.0951  2.2669
24336SOL     OW74140   2.344   2.556   2.675 -0.5864 -0.1958 -0.1383
24336SOL    HW174141   2.346   2.461   2.678 -0.7579 -0.1904  0.1846
24336SOL    HW274142   2.366   2.584   2.764 -1.2991  0.0538 -0.0318
24337SOL     OW74143   1.659   8.988   2.844 -0.4711  0.1207  0.0803
24337SOL    HW174144   1.721   8.985   2.771 -1.6936  0.8729 -1.0310
24337SOL    HW274145   1.573   8.998   2.803 -1.2294  0.3218  1.6190
24338SOL     OW74146   7.372   7.857   6.312  0.1372  0.1212 -1.0448
24338SOL    HW174147   7.363   7.869   6.406 -2.5636 -0.0215 -1.1839
24338SOL    HW274148   7.447   7.799   6.301 -0.3812 -1.0479  1.1255
24339SOL     OW74149   3.560   8.895   0.935  0.0135 -0.6004  0.1741
24339SOL    HW174150   3.568   8.966   1.000 -0.8070 -0.8730  0.5915
24339SOL    HW274151   3.574   8.938   0.851 -0.0230 -0.0195  0.4579
24340SOL     OW74152   6.832   0.107   8.663 -0.3970  0.2088  0.7418
24340SOL    HW174153   6.829   0.101   8.567  0.4786  1.0552  0.6487
24340SOL    HW274154   6.742   0.129   8.688 -0.0470  2.9748 -0.1505
24341SOL     OW74155   4.402   2.524   6.731 -0.2628 -0.1343  0.7921
24341SOL    HW174156   4.390   2.432   6.706  2.0253 -0.2387 -0.1441
24341SOL    HW274157   4.347   2.534   6.809 -2.9976 -1.4103 -0.7958
24342SOL     OW74158   7.720   0.586   1.181  0.2913 -0.4631 -0.5414
24342SOL    HW174159   7.750   0.620   1.265 -0.9152  0.1560 -0.3363
24342SOL    HW274160   7.711   0.492   1.195  1.1903 -0.5301 -0.3362
24343SOL     OW74161   0.012   1.368   6.670  0.2681  0.5425 -0.1166
24343SOL    HW174162  -0.067   1.387   6.720  0.3196 -1.0836  0.6326
24343SOL    HW274163   0.068   1.318   6.729  1.7818  1.4604 -0.7082
24344SOL     OW74164   5.722   7.404   7.664  0.2607 -0.2672  0.0389
24344SOL    HW174165   5.740   7.406   7.570  2.6981 -2.5848  0.3512
24344SOL    HW274166   5.628   7.385   7.670 -0.5367  2.3859 -1.8048
24345SOL     OW74167   2.369   5.311   1.135 -0.0744 -0.1932 -0.0461
24345SOL    HW174168   2.397   5.223   1.163  0.7004  0.5746  1.8004
24345SOL    HW274169   2.402   5.369   1.204 -2.2669  1.3389 -0.1924
24346SOL     OW74170   8.031   7.159   0.038 -0.0624  0.1270 -0.3551
24346SOL    HW174171   8.110   7.109   0.016  1.0476 -0.2268  3.6150
24346SOL    HW274172   8.060   7.223   0.102 -2.5984  1.8767 -0.7980
24347SOL     OW74173   8.903   3.997   5.385  0.5672  0.0096 -0.5759
24347SOL    HW174174   8.869   3.908   5.374 -0.0343  0.2526 -0.7879
24347SOL    HW274175   8.838   4.052   5.339  0.3627  0.6542  0.4633
24348SOL     OW74176   5.645   5.169   6.901  0.1916 -0.1297  0.0778
24348SOL    HW174177   5.674   5.230   6.970 -2.1892 -0.8139  1.8037
24348SOL    HW274178   5.599   5.224   6.838 -1.0692  0.0599  1.1164
24349SOL     OW74179   8.631   7.159   4.581 -0.4506 -0.1818  0.2214
24349SOL    HW174180   8.560   7.217   4.554  0.2659 -0.1232 -1.6415
24349SOL    HW274181   8.686   7.213   4.638 -0.0064  0.8853 -1.1671
24350SOL     OW74182   6.984   4.982   7.603 -0.2264  0.4177 -0.2715
24350SOL    HW174183   7.044   5.056   7.594  0.0065  0.3794  0.7719
24350SOL    HW274184   6.900   5.015   7.572 -0.3610  1.4605  1.1259
24351SOL     OW74185   5.964   1.222   6.918  0.0041 -0.1069  0.0557
24351SOL    HW174186   5.906   1.179   6.854 -0.9735 -0.2155  0.9814
24351SOL    HW274187   5.928   1.310   6.928  0.5282  0.1148 -0.0060
24352SOL     OW74188   1.835   0.521   1.279 -0.3198 -0.3818 -0.3916
24352SOL    HW174189   1.924   0.533   1.311 -0.7599 -1.5400  1.3913
24352SOL    HW274190   1.779   0.544   1.354 -1.4963 -0.4172 -1.2318
24353SOL     OW74191   4.430   4.992   9.017 -0.7279 -0.5279  0.1240
24353SOL    HW174192   4.515   4.964   9.052 -0.3228  2.1067  1.4825
24353SOL    HW274193   4.366   4.947   9.072 -0.1042  1.1029  2.3131
24354SOL     OW74194   3.591   1.295   7.594 -0.7148  0.0960  0.7379
24354SOL    HW174195   3.552   1.311   7.680  0.4577  0.7519  1.1684
24354SOL    HW274196   3.636   1.376   7.572 -1.7624  0.2701 -0.9444
24355SOL     OW74197   2.155   3.555   4.786 -0.0217 -0.2155  0.0320
24355SOL    HW174198   2.236   3.555   4.735 -0.0431 -0.7149 -0.0042
24355SOL    HW274199   2.114   3.639   4.766  0.4587  0.0196  0.0076
24356SOL     OW74200   0.419   5.287   8.094 -0.0763  0.0232 -0.2825
24356SOL    HW174201   0.413   5.305   8.000 -1.1711 -1.3155 -0.4910
24356SOL    HW274202   0.379   5.363   8.135  1.1218  0.9956 -0.8387
24357SOL     OW74203   8.760   3.235   0.155 -0.3139 -0.2376  0.4357
24357SOL    HW174204   8.771   3.236   0.060  4.2557  1.6785  0.7286
24357SOL    HW274205   8.707   3.313   0.174  1.4399  1.2322 -0.4564
24358SOL     OW74206   0.305   8.219   5.234 -0.0411  0.0583  0.4281
24358SOL    HW174207   0.299   8.263   5.319 -1.0865  0.4529  0.1608
24358SOL    HW274208   0.399   8.212   5.217  0.1499  1.3984  0.8819
24359SOL     OW74209   1.625   8.438   1.732 -0.3453  0.2014 -0.3335
24359SOL    HW174210   1.545   8.491   1.732  0.4849  1.5108 -0.8353
24359SOL    HW274211   1.648   8.430   1.639  1.3314  1.8514 -0.1406
24360SOL     OW74212   4.870   8.277   2.194 -0.0576  0.1063 -0.1722
24360SOL    HW174213   4.881   8.325   2.112  0.7332 -0.6755 -0.5402
24360SOL    HW274214   4.913   8.193   2.178 -1.0679 -0.5674  0.5949
24361SOL     OW74215   6.925   4.070   0.296 -0.1516  0.3615  0.4299
24361SOL    HW174216   6.888   4.054   0.382 -1.7678  1.9598  0.0895
24361SOL    HW274217   6.902   3.993   0.245 -1.8608  0.7154  0.6217
24362SOL     OW74218   6.818   6.552   7.739 -0.1826  0.5616  0.7438
24362SOL    HW174219   6.854   6.623   7.686 -1.6912  0.5475 -0.4026
24362SOL    HW274220   6.889   6.489   7.746  0.2107  0.7528 -0.9591
24363SOL     OW74221   8.849   1.674   6.369  0.3978  0.8322 -0.4889
24363SOL    HW174222   8.809   1.761   6.368  1.3005  1.2638 -0.3992
24363SOL    HW274223   8.915   1.679   6.439 -1.6600 -0.9217  1.7321
24364SOL     OW74224   2.944   0.232   3.398  0.0271 -0.5519  0.2483
24364SOL    HW174225   2.891   0.153   3.397  0.3995 -0.8094  0.6860
24364SOL    HW274226   2.970   0.243   3.489 -1.2322  0.8981  0.4792
24365SOL     OW74227   3.251   2.880   2.855  0.3850  0.0262 -0.0609
24365SOL    HW174228   3.195   2.943   2.900 -0.9094  0.7994 -2.5888
24365SOL    HW274229   3.322   2.932   2.817 -0.2161 -0.1224 -1.4409
24366SOL     OW74230   2.646   6.322   1.781 -0.1378 -0.2561 -0.1148
24366SOL    HW174231   2.617   6.260   1.713  0.2585 -0.1797 -0.3552
24366SOL    HW274232   2.725   6.281   1.817  1.2723  1.0075 -1.5973
24367SOL     OW74233   2.397   5.772   1.570  0.7354 -0.3663 -0.8463
24367SOL    HW174234   2.305   5.778   1.594  0.5814  1.3900 -1.7459
24367SOL    HW274235   2.444   5.789   1.652  0.2314  1.6762 -0.9514
24368SOL     OW74236   0.561   4.929   9.117  0.4109 -0.4037 -0.8372
24368SOL    HW174237   0.562   4.980   9.036  0.0634  0.1220 -0.5150
24368SOL    HW274238   0.602   4.985   9.182  1.3539 -1.1046 -0.7994
24369SOL     OW74239   3.905   0.547   2.929  0.0835 -0.0570  0.2200
24369SOL    HW174240   3.874   0.458   2.910  2.0402 -1.2137  2.0188
24369SOL    HW274241   3.969   0.565   2.860 -0.1660 -0.0975 -0.0284
24370SOL     OW74242   6.723   5.266   6.029 -0.0258  0.1281  0.0882
24370SOL    HW174243   6.815   5.276   6.005 -0.1647  1.2003 -0.0182
24370SOL    HW274244   6.708   5.171   6.025  0.7630  0.0281 -1.0195
24371SOL     OW74245   7.694   2.249   5.054 -0.1694 -0.2977 -0.0712
24371SOL    HW174246   7.716   2.203   4.973  0.0868 -0.7443  0.2483
24371SOL    HW274247   7.632   2.190   5.098 -0.2001 -0.1190  0.1248
24372SOL     OW74248   6.810   0.878   2.060  0.5406 -0.0927 -0.0372
24372SOL    HW174249   6.876   0.814   2.033  0.8630  0.5900 -0.9134
24372SOL    HW274250   6.834   0.900   2.150 -0.8961 -2.8462  1.1554
24373SOL     OW74251   6.251   8.137   0.008 -0.1485  0.3807 -0.1400
24373SOL    HW174252   6.285   8.226   0.019 -0.2162  0.0490  4.0603
24373SOL    HW274253   6.161   8.141   0.041  0.2566 -1.4763  1.3223
24374SOL     OW74254   1.604   5.495   3.025  0.1327  0.2931 -0.4725
24374SOL    HW174255   1.527   5.551   3.019  0.4612  0.6753 -1.5321
24374SOL    HW274256   1.609   5.452   2.939 -0.6323 -2.1155  0.6102
24375SOL     OW74257   5.637   8.709   7.539 -0.6197 -0.6528 -0.8289
24375SOL    HW174258   5.688   8.769   7.595 -1.0803 -0.2074 -0.8827
24375SOL    HW274259   5.554   8.754   7.525 -0.4598 -0.7027 -1.9823
24376SOL     OW74260   3.303   4.188   7.786  0.4402 -0.4158 -0.2882
24376SOL    HW174261   3.356   4.227   7.855  0.2920  1.3188 -1.1162
24376SOL    HW274262   3.241   4.256   7.762 -0.0593 -1.2885 -1.5768
24377SOL     OW74263   0.847   6.812   3.157 -0.3824  0.2926  0.0146
24377SOL    HW174264   0.872   6.778   3.243 -1.8663 -0.9716 -0.0251
24377SOL    HW274265   0.814   6.900   3.175  1.3788  0.9227  0.4086
24378SOL     OW74266   7.491   6.255   4.219  0.5588  0.2186  0.0403
24378SOL    HW174267   7.486   6.351   4.223 -0.6660  0.3002 -1.8627
24378SOL    HW274268   7.479   6.227   4.309  2.1106  1.8612  0.8299
24379SOL     OW74269   5.714   5.063   1.811  0.3735 -0.3179 -0.0330
24379SOL    HW174270   5.790   5.113   1.840  0.1687  0.2491 -0.4513
24379SOL    HW274271   5.745   5.014   1.735  0.1717  0.3698 -0.5660
24380SOL     OW74272   6.417   1.028   9.092  0.0117 -0.5670 -0.0190
24380SOL    HW174273   6.377   1.049   9.007  0.0947 -1.9679 -0.4277
24380SOL    HW274274   6.504   0.994   9.069  0.5558  0.2918  0.7249
24381SOL     OW74275   4.152   8.577   4.153 -0.2202 -0.1902 -0.0057
24381SOL    HW174276   4.159   8.622   4.237 -3.6119 -0.8091  0.7642
24381SOL    HW274277   4.154   8.648   4.088 -2.0303  0.7961  0.9475
24382SOL     OW74278   7.522   2.101   2.110  0.0915 -0.0849 -0.3157
24382SOL    HW174279   7.539   2.007   2.115  0.1157 -0.0781 -0.2707
24382SOL    HW274280   7.543   2.125   2.020 -0.4067 -0.2224 -0.4744
24383SOL     OW74281   8.938   7.008   5.957 -0.6030 -0.2571 -0.0829
24383SOL    HW174282   9.015   6.963   5.991  1.5521  2.1608 -1.3776
24383SOL    HW274283   8.884   7.025   6.034  2.3587  1.8423  1.7252
24384SOL     OW74284   6.607   7.145   4.493 -0.5298  0.7833 -0.3365
24384SOL    HW174285   6.688   7.173   4.537 -0.0552  0.5870 -1.0763
24384SOL    HW274286   6.613   7.050   4.491  0.3462  0.8326 -2.4475
24385SOL     OW74287   5.738   4.359   5.578  0.1490  0.2827 -0.0810
24385SOL    HW174288   5.789   4.356   5.659  0.3903 -2.2656 -0.2310
24385SOL    HW274289   5.652   4.323   5.603 -0.9400  2.5701 -0.2913
24386SOL     OW74290   3.758   0.236   1.633 -0.2298  0.1125  0.4409
24386SOL    HW174291   3.729   0.207   1.547  0.3865 -0.2687  0.3551
24386SOL    HW274292   3.678   0.268   1.676 -0.4843  0.6141 -0.3851
24387SOL     OW74293   8.539   2.611   7.711 -0.3192 -0.4573  0.2118
24387SOL    HW174294   8.607   2.679   7.717  0.8515 -1.4364 -1.1022
24387SOL    HW274295   8.574   2.538   7.762 -1.2016 -0.3857  0.9430
24388SOL     OW74296   2.100   5.263   8.863  0.3867  0.2200  0.6156
24388SOL    HW174297   2.097   5.169   8.842 -0.6568  0.3011  0.3290
24388SOL    HW274298   2.079   5.307   8.780  0.2487  0.6798  0.8898
24389SOL     OW74299   6.122   5.489   2.716  0.3553 -0.3426 -0.0798
24389SOL    HW174300   6.101   5.443   2.797  1.1008 -1.9496 -0.7604
24389SOL    HW274301   6.044   5.541   2.696 -0.5947 -1.4669  0.6269
24390SOL     OW74302   1.055   5.543   2.989 -0.4727 -0.2120  0.1728
24390SOL    HW174303   1.094   5.460   2.964 -1.8091 -1.2024  1.2052
24390SOL    HW274304   1.004   5.523   3.068 -1.2907  1.4586  0.1219
24391SOL     OW74305   4.534   7.585   4.864  0.3429 -0.0590 -0.0230
24391SOL    HW174306   4.454   7.570   4.813  1.1324  1.4849 -1.8554
24391SOL    HW274307   4.604   7.551   4.809  1.0710 -0.1922  0.9700
24392SOL     OW74308   4.673   3.672   7.796 -0.6955  0.4158 -0.5783
24392SOL    HW174309   4.634   3.608   7.856  0.1956  1.2663  0.9908
24392SOL    HW274310   4.629   3.657   7.713 -1.0771 -1.6847 -0.0557
24393SOL     OW74311   3.089   4.880   7.670 -0.1510  0.3773 -0.0785
24393SOL    HW174312   2.997   4.902   7.652 -0.2404  1.1600  1.1709
24393SOL    HW274313   3.091   4.784   7.670 -0.9127  0.3512 -0.3802
24394SOL     OW74314   2.942   0.124   0.404  0.5413  0.1596 -0.2908
24394SOL    HW174315   2.949   0.193   0.470 -0.8457  0.1170 -0.0681
24394SOL    HW274316   3.017   0.066   0.421 -1.2124 -1.4021  3.1052
24395SOL     OW74317   2.961   0.842   7.933 -0.3682 -0.0194 -0.9109
24395SOL    HW174318   2.948   0.819   7.841  0.9681 -1.6340 -0.7476
24395SOL    HW274319   3.040   0.897   7.933 -0.8366  0.6676 -0.7946
24396SOL     OW74320   8.772   2.599   4.083 -0.4356  0.6721  0.0601
24396SOL    HW174321   8.790   2.678   4.031 -1.1841  1.4261  0.8973
24396SOL    HW274322   8.822   2.612   4.164  1.1016 -0.7106 -0.6123
24397SOL     OW74323   6.589   5.431   1.629  0.0553 -0.5933 -0.6190
24397SOL    HW174324   6.582   5.485   1.708  2.0990  0.4276 -1.0852
24397SOL    HW274325   6.679   5.441   1.600 -0.3611 -1.7733 -2.5312
24398SOL     OW74326   4.033   8.898   6.412  0.6211 -0.5988 -0.4487
24398SOL    HW174327   3.949   8.923   6.373 -0.5412 -1.2083  1.5200
24398SOL    HW274328   4.099   8.944   6.360 -0.8725 -0.5279 -2.3926
24399SOL     OW74329   3.098   7.506   2.879 -0.2961 -0.1953  0.3557
24399SOL    HW174330   3.128   7.533   2.792  0.5418  0.8394  0.9492
24399SOL    HW274331   3.023   7.564   2.897 -3.1163 -3.0000 -1.2771
24400SOL     OW74332   7.646   4.508   7.768 -0.3188 -0.0819 -0.4143
24400SOL    HW174333   7.709   4.467   7.708  0.4589  0.6892 -0.1566
24400SOL    HW274334   7.576   4.539   7.712 -1.0945 -2.0028 -0.5867
24401SOL     OW74335   2.660   7.356   2.298 -0.8519  0.1460  0.0006
24401SOL    HW174336   2.676   7.287   2.363 -1.3324 -0.2426 -0.2871
24401SOL    HW274337   2.745   7.401   2.290 -0.4905 -0.5021  0.0894
24402SOL     OW74338   6.332   0.797   5.156  0.1473 -0.6726 -0.6954
24402SOL    HW174339   6.317   0.769   5.066 -1.6400 -1.3157 -0.2437
24402SOL    HW274340   6.249   0.838   5.182  0.2527 -1.4368  0.9859
24403SOL     OW74341   9.027   2.313   7.107 -0.1830  0.4249 -0.2703
24403SOL    HW174342   9.037   2.405   7.133 -0.0763  0.6684 -1.1285
24403SOL    HW274343   9.102   2.268   7.146 -1.4094  0.2627  2.0213
24404SOL     OW74344   6.880   1.104   3.185  0.0921  0.2107  0.4737
24404SOL    HW174345   6.943   1.136   3.249  0.8202  0.2359 -0.2343
24404SOL    HW274346   6.911   1.016   3.163 -0.7883 -0.2358  0.9718
24405SOL     OW74347   7.740   9.090   5.307  0.1319 -0.2952  0.2897
24405SOL    HW174348   7.659   9.057   5.346 -0.1740 -1.2412 -1.0452
24405SOL    HW274349   7.714   9.169   5.260  0.0874 -0.3050  0.2976
24406SOL     OW74350   0.143   1.366   2.261 -0.3411  0.3629  0.4552
24406SOL    HW174351   0.130   1.306   2.334 -1.1689  2.4432  2.1372
24406SOL    HW274352   0.238   1.384   2.262  0.5372 -3.1280 -2.0695
24407SOL     OW74353   0.997   4.140   4.471  0.5280  0.0433 -0.3574
24407SOL    HW174354   0.919   4.096   4.436  0.7267  0.2294 -1.0568
24407SOL    HW274355   1.062   4.070   4.477 -0.2644 -0.5872  2.2253
24408SOL     OW74356   0.185   4.214   9.016 -0.1012  0.1235 -0.4148
24408SOL    HW174357   0.214   4.140   8.962 -0.8035 -2.6602  2.6892
24408SOL    HW274358   0.137   4.270   8.955  2.1436 -0.8839 -3.3469
24409SOL     OW74359   7.776   4.476   8.214 -0.1360  0.2844 -0.5727
24409SOL    HW174360   7.804   4.531   8.287  2.2056 -1.0857 -0.3413
24409SOL    HW274361   7.844   4.409   8.207 -1.9871 -1.5877 -1.9156
24410SOL     OW74362   3.349   2.964   7.776 -0.8810 -0.5153 -0.6518
24410SOL    HW174363   3.442   2.983   7.772 -1.0761  0.3478 -1.4595
24410SOL    HW274364   3.343   2.869   7.761  0.0270 -1.1540  2.3821
24411SOL     OW74365   0.020   2.577   1.487 -0.4899  0.2209  0.0379
24411SOL    HW174366   0.070   2.636   1.430 -1.6711  1.7137  0.4780
24411SOL    HW274367   0.046   2.601   1.576 -1.5128  0.5939  0.2460
24412SOL     OW74368   4.099   0.893   2.405 -0.3113  0.2277  0.1443
24412SOL    HW174369   4.052   0.838   2.342 -0.6228  0.5604  0.0771
24412SOL    HW274370   4.044   0.893   2.483 -0.1417  0.1657  0.2635
24413SOL     OW74371   2.326   8.833   1.428 -0.5076 -0.0177  0.1760
24413SOL    HW174372   2.261   8.898   1.401 -0.8098 -0.4567 -0.1607
24413SOL    HW274373   2.403   8.852   1.374 -0.9331 -0.5595 -0.6413
24414SOL     OW74374   3.978   8.817   3.191 -1.0329  1.0423  0.6284
24414SOL    HW174375   4.011   8.730   3.210 -2.7414 -0.0412 -1.0034
24414SOL    HW274376   3.883   8.808   3.193 -1.3298  3.4504  2.7680
24415SOL     OW74377   3.469   4.196   4.590 -0.1823 -0.0484  0.3700
24415SOL    HW174378   3.416   4.259   4.542  0.9457  2.2148  1.9494
24415SOL    HW274379   3.406   4.148   4.645 -1.1296 -0.8577 -1.3348
24416SOL     OW74380   6.643   3.693   3.751 -0.3430 -0.2518 -0.5371
24416SOL    HW174381   6.552   3.720   3.740  0.1543  1.4464 -0.8267
24416SOL    HW274382   6.644   3.600   3.727 -1.9246 -0.2080 -0.8688
24417SOL     OW74383   6.784   2.143   6.728  0.3414  0.0995  0.6840
24417SOL    HW174384   6.722   2.208   6.695 -0.0901  0.1605  1.5926
24417SOL    HW274385   6.730   2.068   6.754  0.8354 -0.6438 -0.3683
24418SOL     OW74386   2.885   8.369   6.863 -0.3082 -0.0257  0.0368
24418SOL    HW174387   2.962   8.396   6.912 -0.0516  0.6791 -0.7397
24418SOL    HW274388   2.853   8.291   6.910  0.7631 -0.2301  0.4624
24419SOL     OW74389   3.612   5.359   3.246 -0.1406  0.3209 -0.0845
24419SOL    HW174390   3.565   5.316   3.174  0.0823  0.5635 -0.3757
24419SOL    HW274391   3.677   5.295   3.274  1.2784  1.0251 -1.5772
24420SOL     OW74392   5.033   6.037   1.541 -0.2420 -0.2175  0.2523
24420SOL    HW174393   5.123   6.006   1.529  0.0370 -0.4390  2.4367
24420SOL    HW274394   5.018   6.096   1.468  1.8310  0.1076  0.0186
24421SOL     OW74395   3.021   1.472   1.199 -0.4457  0.1168  0.5190
24421SOL    HW174396   3.095   1.441   1.146 -0.4641 -0.4097  0.7991
24421SOL    HW274397   3.058   1.482   1.287 -0.4345  0.9139  0.4289
24422SOL     OW74398   7.252   4.464   8.778  0.4491 -0.2614  0.1423
24422SOL    HW174399   7.229   4.554   8.805 -1.4564 -0.8660  0.7303
24422SOL    HW274400   7.171   4.414   8.792  1.2609 -1.9326 -0.8646
24423SOL     OW74401   2.778   7.269   5.406 -0.0379 -0.1405  0.5616
24423SOL    HW174402   2.847   7.323   5.446 -0.0612  0.3304 -0.0195
24423SOL    HW274403   2.700   7.287   5.458  0.2007 -0.4360  1.0301
24424SOL     OW74404   3.205   1.494   5.176  0.2735  0.2164 -0.0026
24424SOL    HW174405   3.245   1.477   5.090 -0.5211 -0.6070 -0.2201
24424SOL    HW274406   3.111   1.484   5.161 -0.0892  2.3885  0.4401
24425SOL     OW74407   5.101   6.141   0.137  0.4940 -0.0100  0.1837
24425SOL    HW174408   5.121   6.073   0.073  0.5138  0.5741 -0.4520
24425SOL    HW274409   5.153   6.118   0.214  0.8757 -0.4408 -0.1936
24426SOL     OW74410   2.479   8.379   3.029 -0.0740  0.1991 -0.3932
24426SOL    HW174411   2.487   8.372   2.933 -1.5364  0.3376 -0.5480
24426SOL    HW274412   2.567   8.399   3.059  0.1993  1.2676 -1.8254
24427SOL     OW74413   0.702   2.551   2.291 -0.3988 -0.0013 -0.0517
24427SOL    HW174414   0.666   2.479   2.342  1.4899 -1.3803 -0.5617
24427SOL    HW274415   0.738   2.510   2.213  0.2842  1.5685 -0.6128
24428SOL     OW74416   8.857   5.248   1.897  0.0843 -0.4880  0.3690
24428SOL    HW174417   8.895   5.230   1.983 -2.0727 -0.5366  1.3869
24428SOL    HW274418   8.805   5.327   1.910  0.2362 -0.1123 -1.0960
24429SOL     OW74419   0.862   9.104   6.963  0.6606 -0.1135  0.1802
24429SOL    HW174420   0.815   9.107   6.879 -2.0034 -1.0921  1.5074
24429SOL    HW274421   0.853   9.013   6.992  0.1305  0.5200  2.1944
24430SOL     OW74422   2.647   2.824   3.572  0.2838 -0.0497 -0.1860
24430SOL    HW174423   2.605   2.823   3.486  0.7160 -0.0325 -0.4017
24430SOL    HW274424   2.649   2.732   3.599 -2.7037  0.1796  1.2455
24431SOL     OW74425   2.689   4.985   3.818 -0.1802 -0.9391 -0.5865
24431SOL    HW174426   2.751   5.046   3.780  1.0651 -1.7821  0.0285
24431SOL    HW274427   2.606   5.033   3.820  0.9147  1.0462  0.6548
24432SOL     OW74428   2.418   2.938   5.197 -0.5007  0.3844  0.1877
24432SOL    HW174429   2.469   3.016   5.174 -0.1816  0.1934  0.2351
24432SOL    HW274430   2.374   2.914   5.116  0.3524 -0.0879 -0.1556
24433SOL     OW74431   1.355   3.026   5.672 -0.3675 -0.0835 -0.2590
24433SOL    HW174432   1.329   3.054   5.584 -0.0355 -2.4873 -1.2069
24433SOL    HW274433   1.415   2.953   5.656  0.6518  0.2058  1.9797
24434SOL     OW74434   1.299   8.479   5.928 -0.2476 -0.1006  0.5712
24434SOL    HW174435   1.298   8.457   5.835  2.0327  2.2084 -0.1154
24434SOL    HW274436   1.229   8.544   5.939 -0.7707 -0.6595  0.5699
24435SOL     OW74437   6.154   1.490   6.684 -0.0876 -0.1725  0.0574
24435SOL    HW174438   6.215   1.473   6.756  1.3127 -4.1287 -1.7548
24435SOL    HW274439   6.210   1.493   6.606 -1.8789  0.0587 -1.2870
24436SOL     OW74440   1.036   5.012   5.957 -0.0874  0.4486 -0.6625
24436SOL    HW174441   0.988   4.929   5.958 -1.2751  1.1100 -0.5493
24436SOL    HW274442   1.036   5.040   6.049  1.9700 -0.3146 -0.3780
24437SOL     OW74443   7.659   7.592   7.098  0.3175  0.2690 -0.0785
24437SOL    HW174444   7.664   7.553   7.011 -0.3498  0.1933 -0.0861
24437SOL    HW274445   7.566   7.591   7.119  0.4471  0.5593  0.5129
24438SOL     OW74446   2.618   5.369   4.162  0.1989 -0.2722 -0.4097
24438SOL    HW174447   2.539   5.362   4.110 -0.3393 -0.3420  0.3968
24438SOL    HW274448   2.676   5.425   4.110 -0.1600 -0.6640 -1.2518
24439SOL     OW74449   2.096   5.690   6.503 -0.1758 -0.2946  0.6151
24439SOL    HW174450   2.143   5.755   6.452  0.3745 -1.5739 -0.5752
24439SOL    HW274451   2.076   5.734   6.586 -1.1235  1.8730 -0.6603
24440SOL     OW74452   0.536   2.760   2.692 -0.0708  0.3541 -0.0751
24440SOL    HW174453   0.441   2.751   2.695  0.1240 -2.0878  2.1929
24440SOL    HW274454   0.563   2.759   2.784  2.1765  0.8858 -0.6697
24441SOL     OW74455   6.637   2.867   2.431 -0.3957 -0.7449  0.1614
24441SOL    HW174456   6.547   2.900   2.432 -0.4403 -0.8728  0.2912
24441SOL    HW274457   6.680   2.919   2.363 -0.2032  0.2855  1.0383
24442SOL     OW74458   0.027   2.831   4.170 -0.2065  0.4140  0.0569
24442SOL    HW174459   0.065   2.818   4.083 -1.1519  0.2046 -0.3388
24442SOL    HW274460   0.005   2.925   4.172 -0.4710  0.3564 -0.0572
24443SOL     OW74461   8.107   8.839   1.372 -0.3980 -0.8974  0.6297
24443SOL    HW174462   8.017   8.826   1.404 -0.9079 -1.6418 -0.9947
24443SOL    HW274463   8.100   8.828   1.277  1.3576 -0.5680  0.4386
24444SOL     OW74464   0.862   2.393   2.104 -0.1933 -0.1552  0.0943
24444SOL    HW174465   0.877   2.385   2.010  1.7675 -1.0957  0.4357
24444SOL    HW274466   0.898   2.312   2.141 -1.5286 -0.1125  1.6184
24445SOL     OW74467   2.632   1.705   4.286  0.0425 -0.1942 -0.0466
24445SOL    HW174468   2.574   1.632   4.306  0.7931 -1.0049 -0.7321
24445SOL    HW274469   2.687   1.673   4.215  0.4524  1.0150 -0.2930
24446SOL     OW74470   8.935   0.881   7.875  0.4154  0.0988  0.1557
24446SOL    HW174471   8.990   0.842   7.944 -0.5465 -0.0025  0.8877
24446SOL    HW274472   8.969   0.971   7.866 -0.4890  0.6677  1.9609
24447SOL     OW74473   3.856   7.029   4.915 -0.2095  0.0056  0.0006
24447SOL    HW174474   3.791   7.058   4.979  0.3205  0.2710  0.4286
24447SOL    HW274475   3.940   7.060   4.950  0.0406  0.6098 -1.0817
24448SOL     OW74476   3.643   1.647   3.288  0.2782  0.3525 -0.8777
24448SOL    HW174477   3.576   1.588   3.321 -1.3826  2.6677  0.1902
24448SOL    HW274478   3.724   1.621   3.332 -1.1375  1.0648  2.3841
24449SOL     OW74479   2.733   7.453   1.799  0.7035 -0.2266 -0.1195
24449SOL    HW174480   2.798   7.383   1.796 -0.1228 -1.0015 -0.8369
24449SOL    HW274481   2.717   7.467   1.892 -1.0324 -2.9114  0.1358
24450SOL     OW74482   8.148   2.208   7.038 -0.2909  0.2181 -0.1706
24450SOL    HW174483   8.145   2.255   7.122 -0.5703  1.3148 -0.7686
24450SOL    HW274484   8.066   2.232   6.995  1.1679  2.2279 -2.0695
24451SOL     OW74485   4.532   4.464   6.207  0.4093  0.1171  0.5297
24451SOL    HW174486   4.498   4.494   6.123  0.5774  0.0507  0.4371
24451SOL    HW274487   4.472   4.396   6.235  0.1226  0.4188  0.6571
24452SOL     OW74488   2.060   1.279   6.904 -0.0516  0.0079  0.2317
24452SOL    HW174489   2.003   1.205   6.887 -1.1329  0.8110  0.2563
24452SOL    HW274490   2.086   1.310   6.817 -1.7085  1.1673  0.1014
24453SOL     OW74491   1.835   7.837   7.307  0.0144 -0.4073 -0.2174
24453SOL    HW174492   1.773   7.817   7.378 -0.7911  0.1303 -0.7569
24453SOL    HW274493   1.911   7.782   7.326 -0.8239 -1.4669  0.1809
24454SOL     OW74494   0.020   0.639   7.930 -0.3612  0.5924  0.4925
24454SOL    HW174495   0.078   0.589   7.872 -1.9910 -0.8849  0.0323
24454SOL    HW274496   0.061   0.634   8.016  0.5805  0.2599  0.0374
24455SOL     OW74497   1.197   2.564   3.945 -1.2650  0.0555  0.2138
24455SOL    HW174498   1.205   2.650   3.988  0.7681  0.5322 -0.9560
24455SOL    HW274499   1.110   2.533   3.969 -1.8252  2.1767  1.1787
24456SOL     OW74500   7.922   0.613   3.357 -0.5136  0.0879 -0.1263
24456SOL    HW174501   7.891   0.702   3.340 -1.2026 -0.0210  0.4986
24456SOL    HW274502   7.843   0.559   3.357 -0.0088 -0.6887 -1.4370
24457SOL     OW74503   3.793   0.275   7.284  0.0532 -0.1627 -0.4483
24457SOL    HW174504   3.868   0.216   7.278 -0.3771 -0.8278  0.5496
24457SOL    HW274505   3.778   0.285   7.378  0.2709  1.7559 -0.5789
24458SOL     OW74506   7.234   3.044   2.484  0.4621 -0.2393  0.0364
24458SOL    HW174507   7.178   3.005   2.417 -0.6174  0.6562  0.3922
24458SOL    HW274508   7.320   3.051   2.443 -0.1931  0.3514 -1.2720
24459SOL     OW74509   7.196   3.602   2.812  0.0498  0.4185 -0.5776
24459SOL    HW174510   7.283   3.573   2.784  0.4876 -0.3086  1.3480
24459SOL    HW274511   7.208   3.693   2.837 -0.1931  0.8688 -2.0136
24460SOL     OW74512   8.580   1.874   8.036 -0.5206 -0.9948  0.3350
24460SOL    HW174513   8.509   1.921   7.992  0.7464  1.3754  0.6381
24460SOL    HW274514   8.551   1.868   8.127 -0.3838 -0.0715  0.4519
24461SOL     OW74515   6.805   5.214   7.612 -0.3023  0.3855  0.3116
24461SOL    HW174516   6.898   5.225   7.633 -0.0886 -0.0081 -0.3738
24461SOL    HW274517   6.789   5.280   7.544  0.2088 -1.3417 -1.5998
24462SOL     OW74518   1.727   5.688   0.025 -0.2937 -0.4023 -0.2160
24462SOL    HW174519   1.639   5.713  -0.004 -0.6517 -1.0219  0.3071
24462SOL    HW274520   1.773   5.772   0.036 -0.0561 -0.1390 -2.7504
24463SOL     OW74521   3.612   7.668   8.158  0.6607 -0.8226  0.2430
24463SOL    HW174522   3.700   7.649   8.188  0.5595  0.4667  1.4384
24463SOL    HW274523   3.589   7.752   8.199  0.5053  1.1440 -3.4071
24464SOL     OW74524   3.598   3.762   2.537 -0.3907 -0.3473  0.0332
24464SOL    HW174525   3.669   3.747   2.599 -1.1046 -0.9414  0.7423
24464SOL    HW274526   3.612   3.851   2.504  0.4872 -0.3418  0.4030
24465SOL     OW74527   3.437   3.632   4.911 -0.2423 -0.3610  0.3811
24465SOL    HW174528   3.369   3.632   4.845 -0.3305  1.3745  0.4038
24465SOL    HW274529   3.409   3.699   4.974  1.9375  1.2158 -0.1745
24466SOL     OW74530   7.558   0.446   3.712 -0.4277  0.2402 -0.3519
24466SOL    HW174531   7.504   0.522   3.736  1.3615  1.1925  0.9149
24466SOL    HW274532   7.645   0.467   3.747 -0.2000 -3.0854  1.3966
24467SOL     OW74533   1.544   1.706   0.064  0.5465 -0.5275  0.1171
24467SOL    HW174534   1.636   1.720   0.087  0.2384 -0.5591  1.4513
24467SOL    HW274535   1.515   1.637   0.124 -0.3849 -0.4204 -0.2008
24468SOL     OW74536   6.058   0.629   4.013 -0.1012 -0.3317 -0.2692
24468SOL    HW174537   6.136   0.609   4.064  0.3759  0.0683 -0.8273
24468SOL    HW274538   6.090   0.643   3.924 -0.3610  2.7193 -0.0044
24469SOL     OW74539   5.497   2.533   0.674 -0.0568  1.0080 -0.0462
24469SOL    HW174540   5.463   2.448   0.702  0.9028  0.7597  0.4054
24469SOL    HW274541   5.465   2.595   0.740  2.0340  0.4528  1.6050
24470SOL     OW74542   0.562   2.005   8.328  0.1266 -0.0241 -0.0932
24470SOL    HW174543   0.653   1.988   8.350 -0.1159 -1.3960 -0.0863
24470SOL    HW274544   0.565   2.066   8.255  1.0673 -0.9108 -0.8054
24471SOL     OW74545   3.335   8.951   2.967 -0.2484  0.2425 -0.4943
24471SOL    HW174546   3.348   8.862   2.934 -1.0229 -0.2939  0.6176
24471SOL    HW274547   3.389   9.005   2.909 -0.2003 -0.8700 -1.5401
24472SOL     OW74548   2.595   7.535   2.656  0.3654 -0.6355  0.1936
24472SOL    HW174549   2.592   7.475   2.731  2.2720 -0.8859  0.1418
24472SOL    HW274550   2.683   7.523   2.620 -0.4061 -0.3001 -1.9264
24473SOL     OW74551   3.698   6.149   7.924 -0.3238  0.4435  0.3434
24473SOL    HW174552   3.787   6.181   7.940  0.5659 -1.3916 -0.6658
24473SOL    HW274553   3.642   6.224   7.944  1.4908  1.8875  0.2810
24474SOL     OW74554   1.397   2.342   2.137 -0.1077 -0.1134 -0.2825
24474SOL    HW174555   1.377   2.384   2.221  1.9757  1.2871 -0.3835
24474SOL    HW274556   1.406   2.249   2.158 -0.8551  0.0442  0.8008
24475SOL     OW74557   7.652   7.124   6.245 -0.1599  0.0536  0.4138
24475SOL    HW174558   7.719   7.172   6.196  0.2639 -1.7555 -0.8792
24475SOL    HW274559   7.571   7.137   6.195 -0.5672  1.2498  1.3240
24476SOL     OW74560   6.479   5.916   7.927 -0.3290  0.1719  0.3650
24476SOL    HW174561   6.567   5.920   7.964 -0.5843  1.5224  0.8991
24476SOL    HW274562   6.423   5.889   8.000 -0.3081 -1.3112 -0.1277
24477SOL     OW74563   8.749   0.059   8.027  0.1640  0.2034  0.1603
24477SOL    HW174564   8.701   0.121   8.082  0.5436  0.2596  0.4323
24477SOL    HW274565   8.682   0.014   7.976 -0.0489  1.7592 -1.0186
24478SOL     OW74566   8.430   3.563   3.852  0.0688  0.1523 -0.3837
24478SOL    HW174567   8.439   3.524   3.765  0.5064 -0.4219 -0.0898
24478SOL    HW274568   8.402   3.491   3.908 -0.7513  0.6383 -0.1443
24479SOL     OW74569   2.602   6.164   2.037  0.1724  0.4105  0.0529
24479SOL    HW174570   2.623   6.191   1.948 -0.1647  0.8449  0.1015
24479SOL    HW274571   2.515   6.125   2.030  0.1927  0.3441  0.1716
24480SOL     OW74572   3.922   6.771   5.764 -0.0448  0.5921  0.3534
24480SOL    HW174573   3.982   6.718   5.711 -2.6823 -0.8609 -1.3912
24480SOL    HW274574   3.956   6.764   5.853  1.9282 -0.7277 -0.4292
24481SOL     OW74575   1.997   2.710   5.070  0.4930  0.3600 -0.5198
24481SOL    HW174576   1.999   2.707   5.165 -0.7855  1.4841 -0.4263
24481SOL    HW274577   2.057   2.780   5.047  0.0235  0.7817 -0.4745
24482SOL     OW74578   2.930   8.488   8.809  0.8246  0.4609  0.2563
24482SOL    HW174579   2.961   8.428   8.877  0.2894  0.8619  0.8672
24482SOL    HW274580   2.943   8.576   8.846 -1.0218  0.6499  0.5619
24483SOL     OW74581   4.481   7.861   4.432 -0.3741  0.2230  0.2228
24483SOL    HW174582   4.459   7.882   4.341  0.3314 -1.0717 -0.2739
24483SOL    HW274583   4.450   7.771   4.444  1.4200 -0.3937  0.5737
24484SOL     OW74584   3.165   0.600   3.011 -0.2379  1.0457 -0.0242
24484SOL    HW174585   3.159   0.521   2.957 -1.9618 -0.2597  1.9028
24484SOL    HW274586   3.143   0.570   3.099  1.6617  3.2257  1.3065
24485SOL     OW74587   4.715   3.689   1.983  0.3135 -0.1888 -0.5470
24485SOL    HW174588   4.626   3.719   1.967  0.2179 -0.7933 -1.2234
24485SOL    HW274589   4.707   3.593   1.985  0.8872 -0.2326 -0.2543
24486SOL     OW74590   5.798   4.165   6.464  0.3260 -0.2008  0.3087
24486SOL    HW174591   5.861   4.192   6.398  0.3481 -0.9763 -0.0008
24486SOL    HW274592   5.851   4.143   6.540  0.6703 -2.6786 -0.5389
24487SOL     OW74593   5.318   8.547   0.785  0.1206  0.0689 -0.2947
24487SOL    HW174594   5.310   8.517   0.876 -0.3795  0.4543 -0.2089
24487SOL    HW274595   5.268   8.484   0.734  0.4512 -0.1809 -0.3096
24488SOL     OW74596   2.122   1.970   0.552  0.1278 -0.1556  0.0094
24488SOL    HW174597   2.048   2.019   0.515 -0.7241 -1.5247 -0.1873
24488SOL    HW274598   2.089   1.937   0.636 -0.0262 -1.9867 -0.7257
24489SOL     OW74599   5.931   2.297   4.309  0.2396  0.2283 -0.2089
24489SOL    HW174600   5.977   2.265   4.231  0.2676 -0.6884  0.1679
24489SOL    HW274601   5.940   2.392   4.305  0.9065  0.1456 -0.9148
24490SOL     OW74602   2.390   2.092   0.637  0.3060 -0.3082 -0.5389
24490SOL    HW174603   2.380   2.017   0.695  1.3246 -0.4342 -0.4998
24490SOL    HW274604   2.480   2.086   0.606  0.3344  0.7670 -0.7166
24491SOL     OW74605   5.309   1.775   4.839 -0.3824  0.0969  0.1724
24491SOL    HW174606   5.373   1.785   4.768 -0.8170  0.1732 -0.2127
24491SOL    HW274607   5.294   1.864   4.869  0.2730  0.0062  0.7857
24492SOL     OW74608   7.147   5.209   4.295 -0.0032  0.2371 -0.1857
24492SOL    HW174609   7.165   5.201   4.202  2.1312 -1.9760  0.3065
24492SOL    HW274610   7.060   5.171   4.307  0.4451 -1.1518 -1.0950
24493SOL     OW74611   8.434   7.302   6.628 -0.1674  0.2902  0.0630
24493SOL    HW174612   8.510   7.320   6.683 -0.4577  0.1348  0.5345
24493SOL    HW274613   8.381   7.241   6.681  0.8334 -2.0703 -1.4724
24494SOL     OW74614   4.816   4.690   6.472  0.7480 -0.2076  0.6948
24494SOL    HW174615   4.825   4.602   6.508  0.8195 -0.3861  0.2420
24494SOL    HW274616   4.767   4.738   6.539  0.7148 -0.5880  0.9458
24495SOL     OW74617   4.477   8.903   1.268  0.3506 -0.0020 -0.0448
24495SOL    HW174618   4.386   8.931   1.257  0.9001  1.9375 -0.0448
24495SOL    HW274619   4.481   8.871   1.358  0.0182  1.4536  0.5144
24496SOL     OW74620   7.653   2.028   0.905  0.1660  0.2871 -0.0763
24496SOL    HW174621   7.719   1.984   0.959  0.6471 -0.6178 -1.3550
24496SOL    HW274622   7.615   1.958   0.852 -1.8207  0.7889  0.5723
24497SOL     OW74623   7.628   5.501   5.026  0.2221  0.1683 -0.3504
24497SOL    HW174624   7.590   5.548   4.952  0.7722  1.3110  0.0699
24497SOL    HW274625   7.562   5.506   5.095 -0.1586 -0.6223 -0.6401
24498SOL     OW74626   7.328   6.435   4.374 -0.2270 -0.3987 -0.3161
24498SOL    HW174627   7.327   6.372   4.446  1.5839 -1.4943 -1.1788
24498SOL    HW274628   7.236   6.447   4.352 -0.8609  0.0158  2.1573
24499SOL     OW74629   4.771   0.035   1.373 -0.4644  0.2002  0.1222
24499SOL    HW174630   4.761   0.076   1.459 -0.4414 -1.4656  0.9519
24499SOL    HW274631   4.682   0.016   1.345 -0.4134 -0.3455  0.3272
24500SOL     OW74632   7.588   1.603   1.018  0.1050 -0.3182 -0.4207
24500SOL    HW174633   7.504   1.633   0.982  0.3934 -1.8518 -2.6294
24500SOL    HW274634   7.565   1.562   1.101 -1.4921 -1.3665 -1.3211
24501SOL     OW74635   4.092   0.298   3.466  0.2110  0.1896 -0.4188
24501SOL    HW174636   4.046   0.215   3.481  0.0960  0.5785  1.7092
24501SOL    HW274637   4.023   0.362   3.451  0.3052 -0.0850 -2.2033
24502SOL     OW74638   7.385   6.249   7.204  0.2142 -0.3466  0.8794
24502SOL    HW174639   7.449   6.303   7.250 -0.9001  0.0256  2.0489
24502SOL    HW274640   7.306   6.254   7.258 -1.2019  0.1903 -1.1285
24503SOL     OW74641   7.493   7.310   0.097 -0.4523  0.3325 -0.2075
24503SOL    HW174642   7.480   7.263   0.179 -0.2741  1.3173  0.3995
24503SOL    HW274643   7.588   7.318   0.089 -0.3850 -1.0432 -1.2820
24504SOL     OW74644   6.903   1.089   0.902 -0.2998 -0.3953 -0.1642
24504SOL    HW174645   6.951   1.013   0.936  0.4993  0.7347  1.3671
24504SOL    HW274646   6.915   1.085   0.808 -0.4284 -2.2596 -0.1333
24505SOL     OW74647   4.731   3.158   3.088  0.2065  0.4374  0.5700
24505SOL    HW174648   4.816   3.185   3.121  0.0214  0.8659  0.7103
24505SOL    HW274649   4.723   3.202   3.003  1.0505 -1.3403 -0.4972
24506SOL     OW74650   8.172   3.558   5.518 -0.2966 -0.4850  0.1465
24506SOL    HW174651   8.089   3.606   5.516 -0.9286 -1.4392  1.6478
24506SOL    HW274652   8.176   3.521   5.607  1.1530 -1.4689 -0.2962
24507SOL     OW74653   0.213   7.039   2.824  0.1040  0.3757  0.2330
24507SOL    HW174654   0.190   6.961   2.774  2.0234  0.2225 -0.5093
24507SOL    HW274655   0.207   7.011   2.916 -1.0629 -0.0568  0.0464
24508SOL     OW74656   2.535   5.797   2.243 -0.2846 -0.4593  0.3608
24508SOL    HW174657   2.461   5.747   2.207  0.3964 -1.0302 -0.2778
24508SOL    HW274658   2.497   5.881   2.266 -1.3134 -1.0221  0.8025
24509SOL     OW74659   4.211   6.775   7.083  0.6622 -0.1806 -0.4411
24509SOL    HW174660   4.210   6.800   6.991 -2.5936  1.0154 -0.2014
24509SOL    HW274661   4.205   6.679   7.082 -3.1254 -0.1091 -1.6662
24510SOL     OW74662   7.759   4.190   5.768  0.4232  0.1083  0.7787
24510SOL    HW174663   7.673   4.169   5.804  0.1472  0.0870  0.1104
24510SOL    HW274664   7.753   4.167   5.676  0.9493  0.7030  0.5895
24511SOL     OW74665   7.288   0.467   8.940  0.1897  0.4602 -0.0071
24511SOL    HW174666   7.197   0.466   8.971 -0.0046  0.8172 -0.5519
24511SOL    HW274667   7.316   0.557   8.951 -0.5776  1.1441 -2.7992
24512SOL     OW74668   4.960   2.082   5.818 -0.2403  0.0651  0.3731
24512SOL    HW174669   4.869   2.092   5.846 -0.0749  2.4117  0.2004
24512SOL    HW274670   4.985   1.994   5.849 -2.5268 -0.6107  0.4248
24513SOL     OW74671   7.206   0.809   3.560  0.3931 -0.0027 -0.0790
24513SOL    HW174672   7.165   0.772   3.481  1.2498  0.3587 -0.7063
24513SOL    HW274673   7.219   0.733   3.617 -0.1040 -0.2928 -0.3436
24514SOL     OW74674   7.681   5.892   2.780  0.1671 -0.4360 -0.1371
24514SOL    HW174675   7.620   5.965   2.787 -0.4097 -1.0250  1.4371
24514SOL    HW274676   7.651   5.843   2.704 -1.1069 -0.4998  0.3800
24515SOL     OW74677   1.220   6.705   1.592 -0.2706 -0.3529 -0.2411
24515SOL    HW174678   1.166   6.634   1.557 -0.5812 -0.6168  0.7402
24515SOL    HW274679   1.198   6.780   1.538  0.0104 -0.9781 -1.2535
24516SOL     OW74680   5.100   1.034   2.342 -0.2306  0.0266 -0.2282
24516SOL    HW174681   5.123   0.971   2.409 -1.0249  0.6344  0.6408
24516SOL    HW274682   5.177   1.090   2.334 -0.4719  0.5435  0.8854
24517SOL     OW74683   7.020   1.131   2.002 -1.1157  0.4221 -0.2256
24517SOL    HW174684   6.946   1.084   2.040 -0.0865  1.0809  2.8476
24517SOL    HW274685   6.983   1.212   1.968 -2.1249 -0.3327 -1.0094
24518SOL     OW74686   4.259   2.765   4.759  0.0826 -0.2338  0.0353
24518SOL    HW174687   4.201   2.694   4.731 -1.3050  1.4046 -1.4295
24518SOL    HW274688   4.226   2.790   4.845  0.4923 -1.2290  0.5016
24519SOL     OW74689   4.321   6.738   8.876  0.3805 -0.0202 -0.0312
24519SOL    HW174690   4.324   6.661   8.819 -0.8445 -1.4571  1.7090
24519SOL    HW274691   4.403   6.784   8.859  1.0314 -1.5688 -1.3310
24520SOL     OW74692   1.808   3.920   4.480  0.7238  0.0980  0.4367
24520SOL    HW174693   1.832   3.827   4.474 -1.1970 -0.4774  0.9231
24520SOL    HW274694   1.734   3.929   4.420  1.0308  1.3907  0.2290
24521SOL     OW74695   5.256   0.453   4.657  0.1488 -0.6249 -0.2214
24521SOL    HW174696   5.320   0.517   4.688 -0.2377 -0.0601 -0.5570
24521SOL    HW274697   5.293   0.419   4.576  0.5873 -1.1968  0.2139
24522SOL     OW74698   0.538   3.415   8.559 -0.4693  0.5698 -0.6925
24522SOL    HW174699   0.488   3.338   8.532  0.9989  0.0550 -2.0744
24522SOL    HW274700   0.585   3.443   8.481  0.9369  1.3743  0.3787
24523SOL     OW74701   2.781   0.539   0.692  0.5920  0.4675 -0.3821
24523SOL    HW174702   2.724   0.595   0.745 -0.3950 -0.3307 -0.5696
24523SOL    HW274703   2.752   0.554   0.602  2.3492  1.9129 -0.7466
24524SOL     OW74704   5.374   5.003   5.733  0.7179 -0.1773 -0.0814
24524SOL    HW174705   5.290   4.996   5.779  0.1770 -0.9266 -1.1417
24524SOL    HW274706   5.368   5.086   5.686  1.0458  0.3169  0.7174
24525SOL     OW74707   9.085   0.178   6.598  0.3503  0.1512  0.0837
24525SOL    HW174708   9.000   0.140   6.618  0.2323  1.2493  1.9290
24525SOL    HW274709   9.131   0.111   6.548 -1.2710 -0.7861 -0.2154
24526SOL     OW74710   6.284   7.225   7.583  0.1690 -1.0367  0.4200
24526SOL    HW174711   6.242   7.201   7.665  1.7800 -0.2689  1.5292
24526SOL    HW274712   6.230   7.297   7.549 -0.1887 -0.9673  1.1117
24527SOL     OW74713   8.677   3.932   7.304  0.1181 -0.1374 -0.2654
24527SOL    HW174714   8.710   3.913   7.216 -0.3538  2.3052 -1.0469
24527SOL    HW274715   8.745   3.986   7.343 -0.9423  1.2395 -0.2533
24528SOL     OW74716   7.517   3.358   0.250 -0.2747 -0.3757  0.2470
24528SOL    HW174717   7.527   3.397   0.163 -0.1311 -0.4997  0.2074
24528SOL    HW274718   7.466   3.278   0.235  0.6605 -0.9711  0.1167
24529SOL     OW74719   4.069   2.130   1.956 -0.4745  0.3763  0.2056
24529SOL    HW174720   4.004   2.088   2.012 -1.7584  0.1488 -1.3828
24529SOL    HW274721   4.135   2.061   1.941 -1.5745 -0.4902 -0.8122
24530SOL     OW74722   0.623   2.249   8.559  0.0323 -0.1617  0.2002
24530SOL    HW174723   0.669   2.325   8.594  1.8251 -0.4724 -1.3099
24530SOL    HW274724   0.688   2.179   8.561 -1.3856 -1.4920  0.9415
24531SOL     OW74725   4.151   5.876   6.355 -0.2909  0.2361  0.0112
24531SOL    HW174726   4.074   5.925   6.385  0.8078  1.5599  0.7512
24531SOL    HW274727   4.191   5.844   6.435 -0.0796 -0.4730 -0.3757
24532SOL     OW74728   5.520   0.458   7.695 -0.2302 -0.4379 -0.2554
24532SOL    HW174729   5.563   0.543   7.684 -0.6434 -0.0207  1.1894
24532SOL    HW274730   5.562   0.419   7.771 -2.6229  0.1974  1.5424
24533SOL     OW74731   8.816   8.284   3.092 -0.4393  0.0004  0.0617
24533SOL    HW174732   8.793   8.344   3.021 -0.2823 -0.6074 -0.5103
24533SOL    HW274733   8.793   8.331   3.172 -0.3028  0.8276 -0.3799
24534SOL     OW74734   2.231   4.779   4.894  0.2265  0.3463 -0.1282
24534SOL    HW174735   2.170   4.773   4.968 -0.7342 -0.1509 -0.9384
24534SOL    HW274736   2.316   4.754   4.931 -0.2550  0.0053  0.7887
24535SOL     OW74737   8.789   6.723   7.291 -0.1068 -0.0377  0.2978
24535SOL    HW174738   8.787   6.687   7.202  0.3622 -0.2143  0.3559
24535SOL    HW274739   8.845   6.663   7.340  1.1125  1.0395  0.2677
24536SOL     OW74740   4.541   7.689   2.640 -0.2861  0.1663 -0.3806
24536SOL    HW174741   4.509   7.664   2.553 -1.1543  0.6288 -0.2057
24536SOL    HW274742   4.623   7.641   2.650 -1.4972 -2.0604 -0.3713
24537SOL     OW74743   4.738   0.456   5.725 -0.8470 -0.8292 -0.1907
24537SOL    HW174744   4.792   0.384   5.757 -0.1120 -0.1175  0.2112
24537SOL    HW274745   4.756   0.528   5.785  0.6096  0.5782 -2.1781
24538SOL     OW74746   7.642   7.570   6.836  0.4059 -0.3032  0.2830
24538SOL    HW174747   7.648   7.496   6.776 -1.6190 -0.4820  0.2393
24538SOL    HW274748   7.603   7.640   6.784  1.0201  0.3647  0.6996
24539SOL     OW74749   5.425   7.053   6.732 -0.3252 -0.2413  0.0452
24539SOL    HW174750   5.375   7.021   6.807  0.3574  0.3842  0.7976
24539SOL    HW274751   5.515   7.061   6.766  0.4768 -2.0647 -1.4597
24540SOL     OW74752   1.737   5.933   6.910 -0.1413  0.0714 -0.1980
24540SOL    HW174753   1.741   5.952   6.816 -0.2405  0.1917 -0.1776
24540SOL    HW274754   1.812   5.875   6.925 -0.5734 -0.5794 -0.4927
24541SOL     OW74755   7.214   9.083   2.488 -0.2227  0.0862 -0.2834
24541SOL    HW174756   7.212   9.015   2.555  1.1549 -0.3902 -0.6879
24541SOL    HW274757   7.123   9.113   2.481 -0.4891 -0.2328  1.3826
24542SOL     OW74758   6.252   8.785   1.421 -0.0995  0.4834  1.1248
24542SOL    HW174759   6.216   8.742   1.499 -1.7392 -0.5051 -0.1100
24542SOL    HW274760   6.304   8.716   1.379  0.4228  0.8853  1.1051
24543SOL     OW74761   6.467   0.526   1.802  0.2135  0.1678 -0.1403
24543SOL    HW174762   6.451   0.432   1.789 -0.1575  0.2032  0.0523
24543SOL    HW274763   6.545   0.529   1.859  0.4493 -0.0158 -0.4481
24544SOL     OW74764   2.024   8.573   8.987 -0.1108  0.0815 -0.4697
24544SOL    HW174765   2.079   8.534   8.920 -0.6103 -0.9193 -0.3249
24544SOL    HW274766   2.051   8.531   9.068 -0.6847 -0.0001 -0.3118
24545SOL     OW74767   4.792   7.878   0.017  0.5660  0.0777 -0.5110
24545SOL    HW174768   4.748   7.960   0.042 -0.6737 -0.1182 -1.8892
24545SOL    HW274769   4.743   7.810   0.063 -2.1723 -0.3510 -3.6490
24546SOL     OW74770   5.491   4.531   6.517  0.0387 -0.2235  0.5773
24546SOL    HW174771   5.443   4.518   6.435 -0.8867  0.0453  1.0546
24546SOL    HW274772   5.495   4.444   6.556 -0.2774 -0.2128  0.6403
24547SOL     OW74773   0.600   0.675   7.272 -0.1004  0.2097 -0.4139
24547SOL    HW174774   0.528   0.614   7.257 -0.4030  0.3567  0.3990
24547SOL    HW274775   0.656   0.632   7.337 -0.3878  0.8367  0.2674
24548SOL     OW74776   3.582   8.436   8.895  0.4745 -0.2560  0.2500
24548SOL    HW174777   3.657   8.380   8.874  0.3870 -0.7314  1.1659
24548SOL    HW274778   3.594   8.459   8.987  0.4409  1.1480 -0.0644
24549SOL     OW74779   7.531   7.932   4.415 -0.4732 -0.2059  0.6012
24549SOL    HW174780   7.501   7.942   4.325  1.1091 -1.0629 -0.0506
24549SOL    HW274781   7.506   7.843   4.439 -0.6057 -0.0883  0.9145
24550SOL     OW74782   7.536   7.714   2.590  0.4015  0.5716 -0.1011
24550SOL    HW174783   7.460   7.665   2.559  0.7968 -0.4782  0.5589
24550SOL    HW274784   7.580   7.742   2.510 -0.5747  1.0706 -0.4949
24551SOL     OW74785   7.666   8.887   5.977  0.5428 -0.1266 -0.5235
24551SOL    HW174786   7.722   8.903   5.901  1.4359  0.3077  0.2110
24551SOL    HW274787   7.726   8.877   6.050 -0.2884 -0.8210  0.0943
24552SOL     OW74788   5.937   6.517   7.305  0.6273 -0.1065 -0.2926
24552SOL    HW174789   5.990   6.491   7.229 -1.1732 -0.4657 -1.5047
24552SOL    HW274790   5.947   6.612   7.310  0.5293 -0.0370 -1.2067
24553SOL     OW74791   4.933   6.681   2.071  0.1669  0.5371  0.0600
24553SOL    HW174792   4.941   6.648   1.981 -1.5922 -0.7544  0.3101
24553SOL    HW274793   4.994   6.627   2.121  0.7447  0.8810 -0.2658
24554SOL     OW74794   0.172   1.401   1.715 -0.2139 -0.0931 -0.4722
24554SOL    HW174795   0.255   1.353   1.711 -0.0707  0.1278 -0.1894
24554SOL    HW274796   0.107   1.339   1.682  0.2809  0.2649 -2.1882
24555SOL     OW74797   4.297   4.345   3.735 -0.0150 -0.3887  0.4067
24555SOL    HW174798   4.293   4.255   3.770  1.3497 -0.7542 -0.2859
24555SOL    HW274799   4.275   4.335   3.642  2.4256 -0.4328 -0.2446
24556SOL     OW74800   4.617   4.111   6.696 -0.2037 -0.1999 -0.3591
24556SOL    HW174801   4.587   4.065   6.775  0.6447 -1.6607 -0.8446
24556SOL    HW274802   4.663   4.044   6.646  0.9496  1.1673 -1.1956
24557SOL     OW74803   3.009   7.189   1.494 -0.0124  0.3013  0.0307
24557SOL    HW174804   3.081   7.187   1.557 -1.7996 -1.4605  2.1829
24557SOL    HW274805   2.947   7.252   1.532 -0.2610  0.7291 -1.0543
24558SOL     OW74806   1.714   0.219   0.268  0.1220  0.1776 -0.2012
24558SOL    HW174807   1.766   0.291   0.232 -0.7765  1.4790  0.9996
24558SOL    HW274808   1.763   0.192   0.346 -0.4164  0.6480  0.3030
24559SOL     OW74809   3.746   7.476   2.818  0.0377 -0.3517  0.5066
24559SOL    HW174810   3.678   7.492   2.884 -0.3552  1.2305 -0.2209
24559SOL    HW274811   3.791   7.560   2.809 -0.4016 -0.2866 -1.7386
24560SOL     OW74812   3.607   8.185   1.764 -0.6390 -0.3729  0.5017
24560SOL    HW174813   3.562   8.184   1.848  0.9092  2.0051  1.4542
24560SOL    HW274814   3.679   8.124   1.774 -0.2325  0.1830  1.0813
24561SOL     OW74815   2.680   8.313   4.760 -0.2708  0.0052 -0.0501
24561SOL    HW174816   2.737   8.321   4.683 -0.0802  0.7542  0.1643
24561SOL    HW274817   2.717   8.241   4.810  0.6788  0.6714  0.2382
24562SOL     OW74818   4.633   5.687   0.626  0.2864 -0.2585 -0.4133
24562SOL    HW174819   4.594   5.600   0.623  0.6378 -0.3843 -1.5222
24562SOL    HW274820   4.579   5.734   0.690 -0.0171 -1.2225  0.0676
24563SOL     OW74821   4.345   3.154   1.054  1.1288 -0.3747  0.1922
24563SOL    HW174822   4.305   3.111   0.978  0.4520  0.7234 -0.0914
24563SOL    HW274823   4.436   3.124   1.052  0.7474 -1.5624 -0.1501
24564SOL     OW74824   8.682   0.158   4.283 -0.4445 -0.4974  0.0509
24564SOL    HW174825   8.672   0.202   4.199  2.3321  1.8918  0.8293
24564SOL    HW274826   8.611   0.195   4.337  0.2407  1.1172 -0.0924
24565SOL     OW74827   5.558   8.299   2.251 -0.1889 -0.4552  0.6895
24565SOL    HW174828   5.569   8.269   2.341 -1.4486 -0.8481  0.7335
24565SOL    HW274829   5.593   8.388   2.251 -1.4928  0.1030  1.9587
24566SOL     OW74830   7.277   5.173   2.700 -0.2637  0.3711  0.1894
24566SOL    HW174831   7.346   5.115   2.733 -1.2179 -1.1617 -0.4036
24566SOL    HW274832   7.210   5.171   2.768 -0.4917  0.4234 -0.0321
24567SOL     OW74833   6.247   2.585   7.621 -0.1716  0.1033  0.0153
24567SOL    HW174834   6.318   2.645   7.598 -0.6863  0.0517 -1.8886
24567SOL    HW274835   6.172   2.642   7.637 -0.3373  0.0406 -0.5225
24568SOL     OW74836   0.073   4.470   8.518  0.3772  0.2847  0.5347
24568SOL    HW174837   0.062   4.436   8.607  1.9440 -0.1311  0.5930
24568SOL    HW274838   0.059   4.394   8.461 -2.2894  0.8808  0.2768
24569SOL     OW74839   0.735   1.504   4.290  0.2201 -0.0107  0.2374
24569SOL    HW174840   0.658   1.472   4.336 -0.4525  1.6232  0.3254
24569SOL    HW274841   0.791   1.427   4.279 -1.9439 -1.5131 -0.9130
24570SOL     OW74842   5.478   3.850   0.493  0.9177 -0.1642  0.0618
24570SOL    HW174843   5.432   3.847   0.409  1.9013  0.7600 -0.5199
24570SOL    HW274844   5.410   3.830   0.558  0.2048 -1.1415 -0.9606
24571SOL     OW74845   8.008   4.450   7.019 -0.8395 -0.3553  0.0712
24571SOL    HW174846   7.973   4.366   7.048 -1.4433 -0.1368 -0.0102
24571SOL    HW274847   8.052   4.431   6.936 -1.0458 -0.5749  0.0130
24572SOL     OW74848   4.690   6.388   5.902 -0.1624 -0.0539  0.5781
24572SOL    HW174849   4.598   6.367   5.884 -0.1099 -0.6690  0.9918
24572SOL    HW274850   4.739   6.338   5.837  0.0063 -1.9653  2.0849
24573SOL     OW74851   2.958   3.249   6.042 -0.0136 -0.3299 -0.6022
24573SOL    HW174852   2.954   3.286   5.953  0.7614 -0.9734 -0.9094
24573SOL    HW274853   3.051   3.237   6.059 -0.2064 -1.3074 -0.1614
24574SOL     OW74854   8.302   2.144   4.997 -0.4652  0.7324 -0.7580
24574SOL    HW174855   8.310   2.234   4.965 -0.4652  0.6152 -1.0916
24574SOL    HW274856   8.213   2.140   5.032 -0.1655  1.1158  0.0672
24575SOL     OW74857   2.329   1.492   0.909  0.2428  0.1795  0.2847
24575SOL    HW174858   2.307   1.417   0.964  1.2418  0.0414  0.5149
24575SOL    HW274859   2.392   1.542   0.961  0.0209  0.8734 -0.1029
24576SOL     OW74860   4.313   2.309   1.380 -0.3727 -0.2001 -0.1718
24576SOL    HW174861   4.384   2.289   1.440 -0.4031 -1.6037 -0.5678
24576SOL    HW274862   4.278   2.224   1.355 -1.5782  0.4301 -0.7242
24577SOL     OW74863   7.786   4.712   5.723  0.4280  0.0107  0.1671
24577SOL    HW174864   7.725   4.645   5.753  0.5679  0.2959  1.1006
24577SOL    HW274865   7.741   4.754   5.650  0.1197 -0.7433 -0.0847
24578SOL     OW74866   1.578   5.453   2.739  0.2918 -0.0077 -0.1174
24578SOL    HW174867   1.485   5.472   2.728  0.1106 -0.8318 -0.0524
24578SOL    HW274868   1.582   5.358   2.748  1.1641  0.0002 -0.3484
24579SOL     OW74869   7.946   6.190   8.098 -0.4105  0.1256  0.8025
24579SOL    HW174870   8.038   6.165   8.084 -0.9324 -1.5789  0.2469
24579SOL    HW274871   7.909   6.119   8.150 -1.6744  0.2910  0.1623
24580SOL     OW74872   0.627   5.535   4.784  0.2274 -0.2228 -0.4003
24580SOL    HW174873   0.618   5.481   4.862 -0.2803 -2.6523 -2.0278
24580SOL    HW274874   0.537   5.563   4.764  0.3511  0.3576 -0.1798
24581SOL     OW74875   7.615   1.511   4.737  1.0630 -0.1077  0.1791
24581SOL    HW174876   7.585   1.421   4.747  1.6000 -0.3070  0.0309
24581SOL    HW274877   7.538   1.559   4.708  0.1403 -0.0386  2.5388
24582SOL     OW74878   2.385   8.200   5.614 -0.5798 -0.2926 -0.0665
24582SOL    HW174879   2.402   8.112   5.648 -0.0876  0.0497  0.5800
24582SOL    HW274880   2.363   8.252   5.691  1.6111  0.7532 -0.0816
24583SOL     OW74881   5.019   7.499   7.977  0.2252 -0.1461  0.1834
24583SOL    HW174882   5.076   7.490   8.053  0.6552  1.1171  0.0455
24583SOL    HW274883   4.947   7.553   8.008  0.1487 -0.0415 -0.1709
24584SOL     OW74884   0.640   1.769   5.111 -0.1295 -0.3137  0.3000
24584SOL    HW174885   0.574   1.706   5.082 -0.5094  0.3345 -0.2814
24584SOL    HW274886   0.701   1.777   5.037  0.5274 -0.7951  0.7756
24585SOL     OW74887   5.281   3.885   2.576 -0.2187 -0.1443 -0.2517
24585SOL    HW174888   5.204   3.941   2.562 -0.6255 -0.7240 -0.3416
24585SOL    HW274889   5.296   3.890   2.671 -1.8399 -1.9231  0.1576
24586SOL     OW74890   5.404   7.726   4.625 -0.5012 -0.3478  0.5355
24586SOL    HW174891   5.476   7.667   4.648  2.7309  3.0270  0.0064
24586SOL    HW274892   5.397   7.719   4.530  1.9671  1.9941  0.0509
24587SOL     OW74893   7.539   2.103   3.677 -0.1304  0.3381 -0.1037
24587SOL    HW174894   7.632   2.081   3.676  0.0468  1.0407  0.2308
24587SOL    HW274895   7.495   2.023   3.647  0.6016  0.1233 -0.6276
24588SOL     OW74896   4.008   2.547   3.493 -0.1920  0.2879  0.2285
24588SOL    HW174897   4.029   2.487   3.422  3.1200  1.0239  0.4464
24588SOL    HW274898   3.922   2.583   3.469  0.4818  0.0361 -3.0738
24589SOL     OW74899   6.017   0.084   3.116 -0.3917 -0.1539 -0.3841
24589SOL    HW174900   6.006   0.176   3.095 -0.2416  0.0040  0.2011
24589SOL    HW274901   5.968   0.037   3.049 -2.8620  0.4307  0.8797
24590SOL     OW74902   4.168   0.578   7.651  1.2071 -0.3529  0.4182
24590SOL    HW174903   4.209   0.492   7.639  1.2129 -0.3068  0.0788
24590SOL    HW274904   4.109   0.586   7.576  1.5689  0.1413  0.1828
24591SOL     OW74905   7.432   2.022   7.387  0.5516  0.7145 -0.2127
24591SOL    HW174906   7.429   2.036   7.481 -2.2443  2.0961 -0.4184
24591SOL    HW274907   7.501   2.082   7.356 -0.4847  2.4422  0.6911
24592SOL     OW74908   6.576   2.895   8.888 -0.5113  0.1694 -0.4479
24592SOL    HW174909   6.618   2.850   8.815 -0.8019  0.0400 -0.5375
24592SOL    HW274910   6.493   2.849   8.899 -0.6730  0.4870 -0.3409
24593SOL     OW74911   6.382   5.611   0.862 -0.1007 -0.3032 -0.1349
24593SOL    HW174912   6.426   5.574   0.786 -1.7302 -2.1027 -0.2731
24593SOL    HW274913   6.367   5.702   0.839  1.6058 -0.1762 -0.9218
24594SOL     OW74914   8.171   6.455   5.731  0.0702  0.3720  0.3610
24594SOL    HW174915   8.135   6.371   5.703 -1.6428  0.6269  1.6419
24594SOL    HW274916   8.124   6.475   5.811  0.3591  2.6314  0.0159
24595SOL     OW74917   1.225   4.131   2.822 -0.2572 -0.6621  0.5759
24595SOL    HW174918   1.302   4.188   2.818 -0.3772 -0.5868 -1.3826
24595SOL    HW274919   1.189   4.146   2.910  0.5792  1.1302  0.6543
24596SOL     OW74920   5.965   0.362   4.406 -0.6640  0.1860  0.3989
24596SOL    HW174921   6.020   0.326   4.475  0.6325 -0.8697 -1.1044
24596SOL    HW274922   5.900   0.293   4.388 -0.3529  0.0196 -0.1157
24597SOL     OW74923   5.392   6.678   5.966 -0.6821 -0.3328 -0.1073
24597SOL    HW174924   5.390   6.767   5.930 -0.4035 -0.8493 -1.4580
24597SOL    HW274925   5.468   6.678   6.025 -1.9304  0.9150  1.6064
24598SOL     OW74926   2.809   8.677   6.931 -0.0165  0.6964 -0.4159
24598SOL    HW174927   2.744   8.704   6.866  0.1792 -0.0726 -0.9488
24598SOL    HW274928   2.820   8.583   6.915  1.0308  0.7672 -0.1595
24599SOL     OW74929   7.408   1.771   4.843 -0.0498 -0.2298  0.0092
24599SOL    HW174930   7.396   1.850   4.895  1.1080  0.9171 -1.3728
24599SOL    HW274931   7.433   1.704   4.907  1.3420  1.1247  0.9727
24600SOL     OW74932   8.042   0.781   2.522  0.1194  0.2261 -0.2272
24600SOL    HW174933   7.962   0.773   2.574  0.0595  0.5876 -0.2616
24600SOL    HW274934   8.112   0.789   2.586  0.3359 -1.7509 -0.1544
24601SOL     OW74935   7.782   2.144   6.211 -0.9082  0.5326 -0.0995
24601SOL    HW174936   7.705   2.087   6.220 -1.3699  1.2321  0.4293
24601SOL    HW274937   7.784   2.195   6.291  0.9822 -0.5039  0.5825
24602SOL     OW74938   0.635   7.931   2.097 -0.4984  0.2922  0.0264
24602SOL    HW174939   0.583   7.961   2.172 -0.6846  1.0830 -0.4053
24602SOL    HW274940   0.724   7.923   2.131 -0.0768  2.9419 -0.1657
24603SOL     OW74941   0.026   4.143   5.277  0.0834 -0.5881  0.1082
24603SOL    HW174942  -0.032   4.078   5.316  0.9441 -1.7576 -0.4820
24603SOL    HW274943   0.010   4.138   5.183 -1.1964  1.4419  0.1599
24604SOL     OW74944   7.301   6.640   8.164  0.3258 -0.1062  0.3543
24604SOL    HW174945   7.365   6.569   8.149  0.5879  0.0842  0.5662
24604SOL    HW274946   7.249   6.642   8.083  2.2036  1.4019 -0.9203
24605SOL     OW74947   6.012   6.513   8.376 -0.2041 -0.8889  0.2582
24605SOL    HW174948   5.968   6.466   8.446 -1.3686  0.5307  0.5379
24605SOL    HW274949   6.007   6.605   8.403  0.9468 -0.4900 -0.8170
24606SOL     OW74950   1.320   2.424   5.114  0.1014 -0.6051  0.1995
24606SOL    HW174951   1.329   2.340   5.160  1.3877 -0.3763  0.3892
24606SOL    HW274952   1.410   2.453   5.098 -0.3128 -0.1614 -1.5572
24607SOL     OW74953   8.076   3.145   5.359  0.7172  0.0612 -0.3305
24607SOL    HW174954   7.984   3.157   5.336  0.9190  1.3257 -0.5261
24607SOL    HW274955   8.124   3.172   5.281  1.2785 -0.1812 -0.0784
24608SOL     OW74956   4.855   8.200   1.605 -0.1164  1.0674 -0.1626
24608SOL    HW174957   4.837   8.288   1.573  0.9929  1.9346  1.4693
24608SOL    HW274958   4.943   8.180   1.572  0.0271  0.9793  0.2646
24609SOL     OW74959   6.300   1.848   7.706 -0.0208 -0.2898  0.2260
24609SOL    HW174960   6.316   1.924   7.762  0.4327 -0.4871  0.3668
24609SOL    HW274961   6.284   1.886   7.619 -1.6456  0.0789  0.6469
24610SOL     OW74962   7.626   1.305   0.394  0.4095 -0.2199  0.2949
24610SOL    HW174963   7.706   1.263   0.362  0.5411  1.1755 -1.3211
24610SOL    HW274964   7.564   1.295   0.322 -0.0107  1.0347  0.4666
24611SOL     OW74965   7.868   3.015   2.905 -0.0355  0.0819 -0.2395
24611SOL    HW174966   7.808   3.024   2.979 -0.5382 -1.7784 -0.3731
24611SOL    HW274967   7.843   3.085   2.845 -2.5501 -0.9850 -0.5698
24612SOL     OW74968   6.608   4.432   0.746 -0.3056 -0.0905 -0.0289
24612SOL    HW174969   6.682   4.417   0.688  1.9440  0.8547  2.4188
24612SOL    HW274970   6.605   4.527   0.759 -0.1284 -0.3246  2.0711
24613SOL     OW74971   7.588   2.681   4.324 -0.1415 -0.2072  0.0239
24613SOL    HW174972   7.517   2.712   4.268  0.8424  1.5022 -0.3459
24613SOL    HW274973   7.644   2.758   4.336  2.4008 -1.8256 -0.8567
24614SOL     OW74974   5.230   2.437   5.433  0.6189  0.0836 -0.0846
24614SOL    HW174975   5.260   2.432   5.524  0.6273  0.4061 -0.0711
24614SOL    HW274976   5.227   2.345   5.404  1.5590  0.0403 -0.0690
24615SOL     OW74977   4.540   8.107   5.718 -0.5640 -0.2617  0.1922
24615SOL    HW174978   4.529   8.055   5.638 -0.6056 -0.2821  0.2114
24615SOL    HW274979   4.634   8.103   5.736 -0.5322 -0.1239  0.0547
24616SOL     OW74980   8.233   1.575   6.559 -0.5281  0.0428  0.2840
24616SOL    HW174981   8.155   1.595   6.507 -0.4027 -0.5600 -0.1465
24616SOL    HW274982   8.289   1.653   6.550 -1.4720  0.8838  1.3793
24617SOL     OW74983   0.987   8.853   5.377 -0.5920  0.0423  0.2287
24617SOL    HW174984   0.918   8.860   5.311  0.9522  0.9184 -1.3949
24617SOL    HW274985   0.988   8.760   5.402 -1.6792 -0.1666 -0.4582
24618SOL     OW74986   0.487   6.999   7.110  0.0748 -0.3610 -0.0547
24618SOL    HW174987   0.495   7.048   7.192 -0.4632  1.1742 -0.8704
24618SOL    HW274988   0.555   6.933   7.114 -0.0750 -0.4418  1.7184
24619SOL     OW74989   2.664   7.049   4.306  0.3618  0.1697 -0.2610
24619SOL    HW174990   2.673   7.128   4.252  0.6338  0.8743  0.7885
24619SOL    HW274991   2.570   7.027   4.300  0.2014  0.8232 -0.2102
24620SOL     OW74992   7.070   8.092   8.102 -0.2173  0.0797 -0.2080
24620SOL    HW174993   7.020   8.091   8.021  0.1877  0.6052 -0.4698
24620SOL    HW274994   7.155   8.128   8.078 -0.0142  0.0304  0.4052
24621SOL     OW74995   8.128   7.921   1.028  0.0328 -0.3694  0.0788
24621SOL    HW174996   8.100   7.868   1.103 -1.3580  0.1134 -0.0584
24621SOL    HW274997   8.095   8.009   1.049  2.1673  0.4413  0.2473
24622SOL     OW74998   6.034   5.797   3.802  0.6805  0.0110 -0.5277
24622SOL    HW174999   6.060   5.715   3.760 -1.3860 -0.0814 -1.7859
24622SOL    HW275000   5.964   5.832   3.746  0.1561  1.6398  1.0280
24623SOL     OW75001   7.825   7.025   9.059  0.1124  0.0405  0.4177
24623SOL    HW175002   7.781   6.982   9.132 -2.0100  0.4259 -0.5321
24623SOL    HW275003   7.889   7.083   9.100 -2.5189  1.9417  2.2013
24624SOL     OW75004   6.473   5.569   5.527  0.0099 -0.5056  0.0884
24624SOL    HW175005   6.450   5.531   5.442 -0.7469  0.5512 -0.1938
24624SOL    HW275006   6.442   5.505   5.590  1.1364 -1.6043 -0.4154
24625SOL     OW75007   4.242   3.413   6.685  0.1584 -0.3084  0.6337
24625SOL    HW175008   4.262   3.492   6.635  1.4519  0.8388  2.8269
24625SOL    HW275009   4.151   3.392   6.662 -0.1565  1.7119 -0.1321
24626SOL     OW75010   2.396   4.539   6.616  0.2149 -0.9835  0.4702
24626SOL    HW175011   2.319   4.505   6.570  0.3878 -0.6013 -0.1108
24626SOL    HW275012   2.392   4.634   6.601  1.7736 -1.1296 -1.0754
24627SOL     OW75013   8.495   7.201   2.263 -0.4189  0.5442 -0.5307
24627SOL    HW175014   8.550   7.157   2.327 -0.3559  0.9641 -0.2958
24627SOL    HW275015   8.547   7.200   2.182 -0.2070  0.6413 -0.3964
24628SOL     OW75016   0.503   5.707   7.209 -0.5603  0.1375  0.1154
24628SOL    HW175017   0.467   5.622   7.184 -0.4583 -0.0885  0.7179
24628SOL    HW275018   0.453   5.734   7.285  0.8456 -0.4161  1.2799
24629SOL     OW75019   1.818   1.996   1.104  0.7747 -0.3474 -0.5735
24629SOL    HW175020   1.906   1.977   1.136  0.0108 -1.1566  1.1799
24629SOL    HW275021   1.760   1.956   1.169 -0.9167 -2.8190 -3.3513
24630SOL     OW75022   6.883   6.961   4.731  0.1406 -0.0195  0.2400
24630SOL    HW175023   6.799   6.922   4.758  0.6451 -0.2444  1.6000
24630SOL    HW275024   6.859   7.038   4.680 -0.9079  0.2627  1.1235
24631SOL     OW75025   7.141   3.527   2.097  0.0972 -0.4067 -0.2321
24631SOL    HW175026   7.130   3.515   2.002  0.1962  1.1048 -0.4599
24631SOL    HW275027   7.053   3.516   2.133  0.2231 -1.9717 -0.3692
24632SOL     OW75028   2.172   8.098   2.453 -0.1726  0.1750 -1.0821
24632SOL    HW175029   2.146   8.026   2.396  0.6184 -0.9280 -0.0828
24632SOL    HW275030   2.202   8.056   2.534  1.1425  1.5671 -0.7972
24633SOL     OW75031   7.638   6.750   6.465  0.4335 -0.1798  0.1844
24633SOL    HW175032   7.589   6.672   6.490 -0.4437  0.4132  0.3665
24633SOL    HW275033   7.592   6.822   6.509 -0.2195  0.7086 -1.8417
24634SOL     OW75034   0.293   6.042   8.009  0.1829  0.7042 -0.5876
24634SOL    HW175035   0.212   5.995   7.992 -0.8906  2.5098 -0.6925
24634SOL    HW275036   0.296   6.053   8.104  1.5826 -1.4372 -0.3037
24635SOL     OW75037   8.252   8.275   4.780  0.3791 -0.6595  0.1379
24635SOL    HW175038   8.256   8.187   4.818 -2.3008 -0.1835  1.7917
24635SOL    HW275039   8.192   8.266   4.706 -1.9017  0.0919  1.7582
24636SOL     OW75040   8.884   4.806   6.434  0.3902  0.3966  0.2434
24636SOL    HW175041   8.822   4.759   6.491 -0.1300  0.7105 -0.0555
24636SOL    HW275042   8.857   4.897   6.439  0.2586  0.4089 -0.6090
24637SOL     OW75043   4.228   3.509   0.513  0.2390  0.0701 -0.0717
24637SOL    HW175044   4.261   3.444   0.452  0.3449 -0.4449  0.5186
24637SOL    HW275045   4.161   3.462   0.564  0.7092  0.2480  0.7361
24638SOL     OW75046   2.661   0.039   7.037 -0.5387 -0.3289  0.0404
24638SOL    HW175047   2.719   0.026   7.112 -0.6385 -0.0607  0.1684
24638SOL    HW275048   2.720   0.063   6.965 -0.3622 -1.4086 -0.1888
24639SOL     OW75049   2.967   7.508   5.421 -0.2182  0.0557 -0.1352
24639SOL    HW175050   2.931   7.551   5.498 -3.8168 -2.5285 -0.0893
24639SOL    HW275051   3.017   7.576   5.376 -2.0312  3.0127  1.9541
24640SOL     OW75052   5.363   0.749   4.966  0.1564 -1.0202 -0.0189
24640SOL    HW175053   5.324   0.661   4.968  1.9257 -1.8434  0.6956
24640SOL    HW275054   5.395   0.762   5.055 -1.0543  0.8552  0.1873
24641SOL     OW75055   0.005   8.585   0.394  0.2116 -0.2304  0.5003
24641SOL    HW175056   0.067   8.556   0.462  1.5749 -0.5403 -0.8313
24641SOL    HW275057  -0.069   8.525   0.403  0.5811 -0.5723  1.4040
24642SOL     OW75058   4.710   3.405   1.729  0.7628  0.4910  0.4720
24642SOL    HW175059   4.658   3.421   1.807 -0.3712 -0.5990 -0.0422
24642SOL    HW275060   4.760   3.326   1.748  0.9284  0.5519  0.3031
24643SOL     OW75061   2.354   6.879   7.550  0.1061 -0.4482 -0.3207
24643SOL    HW175062   2.317   6.892   7.637 -1.8344  0.5324 -1.2351
24643SOL    HW275063   2.294   6.817   7.508 -0.3494  0.9142 -1.7394
24644SOL     OW75064   2.505   3.920   3.194  0.0281 -0.0305  0.1499
24644SOL    HW175065   2.457   3.996   3.226 -1.6841 -1.2648  0.6720
24644SOL    HW275066   2.441   3.870   3.143  0.7402 -1.7115  0.7951
24645SOL     OW75067   6.458   3.986   3.865 -0.1038  0.2262 -0.3644
24645SOL    HW175068   6.540   4.018   3.903 -0.1929  0.8855 -0.7161
24645SOL    HW275069   6.390   4.020   3.922 -0.1161 -0.8710  0.3106
24646SOL     OW75070   0.859   6.379   6.522  0.0574  0.1227  0.3617
24646SOL    HW175071   0.836   6.433   6.598 -0.6463 -0.2848  0.4477
24646SOL    HW275072   0.799   6.305   6.527  0.2901 -0.1175 -0.3640
24647SOL     OW75073   4.500   4.231   0.466  0.8526 -0.4919  0.0796
24647SOL    HW175074   4.515   4.276   0.382  0.3420  0.0876  0.2953
24647SOL    HW275075   4.490   4.139   0.442  0.3179 -0.2770 -0.5395
24648SOL     OW75076   5.600   7.227   0.140  0.0080  0.4177 -0.7928
24648SOL    HW175077   5.694   7.209   0.145  0.1350  1.1349 -0.4941
24648SOL    HW275078   5.561   7.142   0.122  0.4262 -0.4915  2.1633
24649SOL     OW75079   0.529   5.635   3.364 -0.3754  0.9345 -0.5595
24649SOL    HW175080   0.607   5.596   3.403 -0.3478  0.0294 -1.4718
24649SOL    HW275081   0.550   5.728   3.356 -0.1211  1.0198  0.9064
24650SOL     OW75082   7.048   3.301   3.049  0.1609  0.1954  0.4748
24650SOL    HW175083   7.073   3.221   3.003  0.4925 -0.6992  2.1257
24650SOL    HW275084   7.000   3.352   2.984  1.4086 -0.5781 -1.1181
24651SOL     OW75085   1.735   7.483   3.078  0.7361 -0.3745  0.4516
24651SOL    HW175086   1.770   7.531   3.153  1.2278  1.0450 -0.6277
24651SOL    HW275087   1.655   7.442   3.110  0.0798  1.4978  1.3786
24652SOL     OW75088   1.463   1.342   1.171  0.5667 -0.0034 -0.1629
24652SOL    HW175089   1.555   1.365   1.189  0.1722  1.1686  0.4488
24652SOL    HW275090   1.434   1.294   1.248  0.5687 -0.1083 -0.2265
24653SOL     OW75091   8.370   0.302   6.169 -0.2997  0.0439  0.5122
24653SOL    HW175092   8.369   0.363   6.243 -2.4486 -1.1580  1.5755
24653SOL    HW275093   8.399   0.355   6.094 -1.4534  2.2149  1.5162
24654SOL     OW75094   1.006   2.126   0.454  0.0322  0.3081 -0.4656
24654SOL    HW175095   0.927   2.100   0.501  0.5711  0.0585  0.3199
24654SOL    HW275096   0.981   2.206   0.407  0.8104  3.9235  4.4497
24655SOL     OW75097   7.700   0.699   1.675 -0.2948  0.0061  0.2259
24655SOL    HW175098   7.688   0.616   1.722 -1.0628  1.2205  2.3408
24655SOL    HW275099   7.639   0.759   1.718 -1.1596  1.2275 -2.5051
24656SOL     OW75100   5.162   2.133   5.613 -0.1770 -0.0180  0.1965
24656SOL    HW175101   5.101   2.172   5.675  0.0409  0.0132  0.3932
24656SOL    HW275102   5.220   2.079   5.667 -1.3338 -1.7497 -0.2134
24657SOL     OW75103   1.955   1.289   8.112 -0.4997  0.1567 -0.0828
24657SOL    HW175104   1.972   1.294   8.206 -0.5150  0.4103 -0.0924
24657SOL    HW275105   2.033   1.247   8.075 -1.6547 -2.6158  0.3843
24658SOL     OW75106   3.563   5.285   7.319 -0.5855  0.3926  0.5133
24658SOL    HW175107   3.609   5.355   7.273  0.5877 -0.4472  0.3542
24658SOL    HW275108   3.595   5.289   7.409 -1.8390  1.1568  0.9396
24659SOL     OW75109   2.290   6.978   0.096 -0.7388 -0.7716  0.0860
24659SOL    HW175110   2.242   6.944   0.020  0.2818  2.2382 -2.0897
24659SOL    HW275111   2.222   7.013   0.154 -1.4322 -1.4941 -0.2698
24660SOL     OW75112   5.844   2.223   7.330 -0.2350 -0.0355 -0.2857
24660SOL    HW175113   5.884   2.288   7.388  0.0845 -0.0058 -0.5407
24660SOL    HW275114   5.880   2.140   7.360  0.3715  0.0340 -0.8038
24661SOL     OW75115   8.892   4.483   4.625  0.2517  0.2300  0.6741
24661SOL    HW175116   8.951   4.539   4.574 -0.4679  0.6064  0.2346
24661SOL    HW275117   8.862   4.417   4.563 -0.2356  0.3862  0.7412
24662SOL     OW75118   1.603   2.425   4.065 -0.4124  0.1480  0.1933
24662SOL    HW175119   1.556   2.365   4.123 -0.0970  0.7077  1.0539
24662SOL    HW275120   1.553   2.424   3.984  0.4459 -2.4662 -0.3893
24663SOL     OW75121   1.762   3.798   1.573  0.3288  0.0438 -0.1616
24663SOL    HW175122   1.712   3.864   1.525 -2.4358 -2.0430 -0.4099
24663SOL    HW275123   1.806   3.746   1.505  0.6282  0.2270 -0.1091
24664SOL     OW75124   3.907   0.112   4.598  0.3220 -0.0739 -0.2026
24664SOL    HW175125   3.902   0.053   4.523  0.3258  2.9948 -2.8520
24664SOL    HW275126   3.815   0.125   4.624  0.2209 -0.1718 -0.5045
24665SOL     OW75127   2.581   4.470   0.529  0.4631 -0.0430 -0.4048
24665SOL    HW175128   2.640   4.476   0.604  0.0982  0.0469 -0.1242
24665SOL    HW275129   2.579   4.376   0.508  0.3923 -0.0940 -0.1651
24666SOL     OW75130   5.118   5.143   0.130 -0.3033  0.2852  0.0886
24666SOL    HW175131   5.106   5.108   0.042  0.5623  0.7070 -0.2095
24666SOL    HW275132   5.163   5.074   0.178  0.4770  0.5815 -0.2050
24667SOL     OW75133   0.080   0.736   1.900 -0.0501 -0.2408 -0.8050
24667SOL    HW175134   0.072   0.830   1.884 -1.1697  0.6957  3.8123
24667SOL    HW275135  -0.010   0.704   1.904 -0.0288 -0.2390  2.7630
24668SOL     OW75136   0.969   1.622   2.314 -0.1764 -0.3752 -0.0356
24668SOL    HW175137   0.966   1.693   2.250  0.3066  0.0385  0.3827
24668SOL    HW275138   0.881   1.586   2.314 -0.4888  0.3615 -0.1226
24669SOL     OW75139   8.646   6.748   5.444  0.0824 -0.0438 -0.6573
24669SOL    HW175140   8.580   6.761   5.513  0.3253  1.3080 -0.6501
24669SOL    HW275141   8.610   6.678   5.389 -1.1521  0.3527 -0.3874
24670SOL     OW75142   6.916   0.318   2.877  0.2290  0.4010  0.4066
24670SOL    HW175143   6.970   0.357   2.946 -0.2128 -1.2082  1.7556
24670SOL    HW275144   6.964   0.239   2.851 -0.4993  0.0066  0.2129
24671SOL     OW75145   4.254   8.162   2.694  0.2628  0.4747 -0.2475
24671SOL    HW175146   4.261   8.067   2.700 -0.5615  0.4057 -0.2572
24671SOL    HW275147   4.254   8.192   2.785 -0.8615  0.3437 -0.1891
24672SOL     OW75148   7.681   4.997   2.085  0.4311  0.2977 -1.0439
24672SOL    HW175149   7.653   5.062   2.021 -4.5654  0.9405  1.2711
24672SOL    HW275150   7.697   5.048   2.165 -1.4848 -0.9483  0.2331
24673SOL     OW75151   0.459   0.740   3.261 -0.3975  0.4995 -0.3312
24673SOL    HW175152   0.529   0.676   3.272 -0.2877  0.6222 -0.3154
24673SOL    HW275153   0.439   0.737   3.167 -1.1898 -0.3936 -0.1541
24674SOL     OW75154   8.900   5.795   3.617  0.0577 -0.2944  0.0467
24674SOL    HW175155   8.872   5.878   3.579  1.5483  0.9386  1.4373
24674SOL    HW275156   8.980   5.773   3.569  1.9429  1.2658  2.2332
24675SOL     OW75157   4.543   7.031   4.925 -0.1770  0.2445  0.5055
24675SOL    HW175158   4.569   6.990   5.008  0.5089 -0.6995 -0.1637
24675SOL    HW275159   4.625   7.060   4.886 -0.3767 -0.3590 -0.3817
24676SOL     OW75160   4.200   6.869   6.763 -0.0713 -0.2806  0.4257
24676SOL    HW175161   4.134   6.914   6.815  0.7592  0.3699  0.9475
24676SOL    HW275162   4.163   6.782   6.746 -1.8655  0.6622 -0.8845
24677SOL     OW75163   8.186   2.666   5.237  0.2252 -0.2078 -0.0002
24677SOL    HW175164   8.217   2.576   5.238 -0.1066 -0.3216  1.0088
24677SOL    HW275165   8.162   2.685   5.328 -1.4133  0.2929 -0.4893
24678SOL     OW75166   9.055   8.041   0.309  0.9191  0.0732 -0.1250
24678SOL    HW175167   9.150   8.038   0.312  0.9116 -0.2808 -0.1958
24678SOL    HW275168   9.028   7.949   0.299  0.5690  0.1612  0.0031
24679SOL     OW75169   6.868   5.665   1.313  0.0946  0.0073 -0.2437
24679SOL    HW175170   6.889   5.666   1.219 -1.8100  0.7271 -0.7163
24679SOL    HW275171   6.776   5.639   1.316  0.4470 -1.2143  1.5420
24680SOL     OW75172   3.069   9.002   7.980 -0.4054 -0.0486 -0.0081
24680SOL    HW175173   3.116   8.941   8.037  0.9213  1.3360  0.4248
24680SOL    HW275174   3.132   9.070   7.960 -0.6966 -0.6290 -3.4702
24681SOL     OW75175   7.923   0.919   2.868 -0.1881 -0.3142  0.6139
24681SOL    HW175176   7.989   0.869   2.917  1.3965 -1.0629 -2.0702
24681SOL    HW275177   7.880   0.853   2.813 -0.7498  0.7051 -0.1900
24682SOL     OW75178   6.676   3.907   7.266 -0.3090  0.4457 -0.2708
24682SOL    HW175179   6.756   3.912   7.214 -0.0464 -1.2358 -0.0765
24682SOL    HW275180   6.629   3.831   7.232 -0.6989  0.0207  1.1337
24683SOL     OW75181   3.017   2.550   3.357  0.6680  0.2840  0.4406
24683SOL    HW175182   3.073   2.501   3.297  0.9661  1.7023 -0.4819
24683SOL    HW275183   3.056   2.638   3.361 -0.2534  0.6785  1.4828
24684SOL     OW75184   2.177   6.174   6.996  0.0794  0.2562 -0.0461
24684SOL    HW175185   2.200   6.084   6.973  1.8599  0.5857  0.3175
24684SOL    HW275186   2.081   6.177   6.989 -0.1245 -1.9706  1.0839
24685SOL     OW75187   5.982   4.509   3.158  0.3523 -0.0363  0.1190
24685SOL    HW175188   5.981   4.420   3.121  0.3987  0.6502 -1.5950
24685SOL    HW275189   5.890   4.535   3.159  0.4974  0.6219 -1.2768
24686SOL     OW75190   4.963   2.809   2.729 -0.5635  0.2277 -0.4848
24686SOL    HW175191   4.915   2.866   2.669  0.5772  0.3490 -1.2959
24686SOL    HW275192   4.913   2.727   2.729 -0.6944  0.3008 -1.4216
24687SOL     OW75193   7.964   3.580   6.121 -0.9471 -0.3047 -0.0859
24687SOL    HW175194   7.929   3.666   6.099 -1.1610  0.1393  1.7932
24687SOL    HW275195   7.954   3.528   6.041  0.2401  1.7067 -1.6452
24688SOL     OW75196   2.695   7.671   6.034 -0.4645  0.0738  0.1924
24688SOL    HW175197   2.648   7.596   6.071  0.7620 -0.1721  1.3412
24688SOL    HW275198   2.779   7.673   6.081  0.4058  0.9017 -1.2941
24689SOL     OW75199   0.524   5.515   5.432 -0.4426  0.0371  1.1040
24689SOL    HW175200   0.608   5.519   5.386 -0.1628 -1.9889  1.3451
24689SOL    HW275201   0.466   5.572   5.381  1.0027  1.3639  0.8401
24690SOL     OW75202   9.104   7.021   7.884  0.2547  0.5296 -0.0006
24690SOL    HW175203   9.169   6.951   7.883 -1.6149 -1.3210  0.1833
24690SOL    HW275204   9.055   7.009   7.803 -2.3132 -0.7013  1.5908
24691SOL     OW75205   8.960   8.939   1.322  0.2071  0.1785  0.0651
24691SOL    HW175206   8.938   9.018   1.273 -0.4324 -0.0803 -0.0730
24691SOL    HW275207   9.049   8.917   1.292  0.4184  0.8791  0.1627
24692NA      NA75208   5.021   5.314   0.162  0.1334 -0.0813 -0.3076
24693NA      NA75209   0.456   7.079   5.441  0.2613  0.2802  0.0006
24694NA      NA75210   3.980   5.240   6.568  0.1541  0.3616 -0.1792
24695NA      NA75211   2.895   0.467   0.090 -0.0862 -0.4089 -0.0521
24696NA      NA75212   7.893   5.651   4.065  0.1150  0.3517  0.2853
24697NA      NA75213   6.206   2.408   8.772 -0.1262 -0.4916  0.0598
24698NA      NA75214   5.011   3.932   8.393 -0.6246 -0.1408 -0.0157
24699NA      NA75215   7.039   4.749   2.730 -0.4368  0.3429  0.1148
24700NA      NA75216   5.757   5.655   1.412 -0.2857  0.1214  0.0303
24701NA      NA75217   8.852   5.220   6.404  0.5246 -0.2532 -0.0948
24702NA      NA75218   6.941   4.249   7.474  0.1250 -0.1565  0.4331
24703NA      NA75219   8.616   2.193   7.038  0.2830 -0.2007 -0.2429
24704NA      NA75220   8.123   0.083   0.543 -0.0777 -0.0038  0.0632
24705NA      NA75221   3.614   7.013   3.700 -0.1733 -0.2163 -0.1483
24706NA      NA75222   3.799   2.741   8.038 -0.0601  0.3517 -0.0309
24707NA      NA75223   6.796   3.825   3.829 -0.0993  0.0783 -0.3721
24708NA      NA75224   2.500   7.358   1.486 -0.0780 -0.0524  0.4010
24709NA      NA75225   1.204   6.247   7.561 -0.3013 -0.1281 -0.1162
24710NA      NA75226   2.007   3.953   1.858  0.3507 -0.1216  0.1195
24711NA      NA75227   1.516   3.082   8.286 -0.0886 -0.2339 -0.3760
24712NA      NA75228   8.310   1.430   0.811 -0.5568  0.5462 -0.3407
24713NA      NA75229   5.558   8.104   1.863 -0.3895  0.1051 -0.1218
24714NA      NA75230   8.667   4.267   2.135 -0.3471  0.1678  0.1662
24715NA      NA75231   4.018   6.208   6.446 -0.1330  0.6614  0.1059
24716NA      NA75232   4.568   5.207   0.170 -0.3674  0.5995 -0.1945
24717NA      NA75233   7.827   6.878   5.516  0.2020  0.0932  0.2877
24718NA      NA75234   4.088   0.598   5.725  0.2886 -0.4137 -0.3490
24719NA      NA75235   2.893   5.237   3.084  0.7789  0.3562 -0.3605
24720NA      NA75236   0.925   6.737   2.980  0.4007 -0.2812 -0.2493
24721NA      NA75237   8.000   6.540   5.114 -0.5247  0.3443 -0.0236
24722NA      NA75238   1.408   1.486   1.026 -0.1225  0.2599  0.5791
24723NA      NA75239   5.251   7.897   4.682  0.4642 -0.2139 -0.5644
24724NA      NA75240   0.832   1.081   5.736  0.5021  0.1742 -0.1447
24725NA      NA75241   6.418   2.974   0.404 -0.5444 -0.3588  0.5798
24726NA      NA75242   6.368   5.451   6.146  0.0572  0.0883  0.3636
24727NA      NA75243   4.205   2.585   0.401 -0.7681 -0.2789  0.0949
24728NA      NA75244   2.237   5.230   7.608 -0.7341 -0.2531  0.0958
24729NA      NA75245   5.895   7.727   6.513 -0.1595 -0.1870  0.0354
24730NA      NA75246   4.346   7.503   6.314  0.0589 -0.1739 -0.5347
24731NA      NA75247   7.473   3.040   0.781 -0.4767 -0.0630 -0.3920
24732NA      NA75248   8.003   8.147   5.154 -0.0698  0.1625 -0.6515
24733NA      NA75249   1.343   4.499   8.612  0.0830 -0.5351  0.1354
24734NA      NA75250   8.321   2.456   8.412  0.1807 -0.4592  0.3253
24735NA      NA75251   7.540   7.446   1.809  0.0802  0.1785  0.1171
24736NA      NA75252   4.251   4.225   9.052 -0.0771 -0.5271 -0.2207
24737NA      NA75253   6.184   4.211   4.760 -0.0831 -0.1587 -0.2261
24738NA      NA75254   8.241   5.749   7.764  0.2395 -0.6038 -0.0054
24739NA      NA75255   8.062   4.904   3.323 -0.0593  0.1576 -0.1492
24740NA      NA75256   7.620   8.305   9.089 -0.4265 -0.5303 -0.0150
24741NA      NA75257   4.941   3.893   4.969  0.4186 -0.0235  0.0335
24742NA      NA75258   8.993   3.705   0.118 -0.1577  0.0294 -0.2618
24743NA      NA75259   3.088   7.568   0.775  0.1686  0.0224  0.9107
24744NA      NA75260   5.720   4.321   9.017 -0.4318 -0.5572 -0.4652
24745NA      NA75261   4.622   0.364   0.218 -0.1407 -0.6195  0.1475
24746NA      NA75262   0.348   5.593   5.725 -0.1462 -0.4297 -0.2167
24747NA      NA75263   7.346   0.382   2.649 -0.1234  0.2551  0.4028
24748NA      NA75264   5.496   2.207   1.387 -0.4878 -0.2959  0.2231
24749NA      NA75265   6.558   4.177   0.158 -0.0686  0.8651  0.0294
24750NA      NA75266   4.803   0.150   7.283 -0.1266 -0.0976  0.1299
24751NA      NA75267   5.614   8.923   6.726  0.0628  0.0262  0.1819
24752NA      NA75268   6.257   6.609   2.547  0.3193  0.1462  0.4358
24753NA      NA75269   4.465   5.824   5.483 -0.3219  0.9451 -0.1509
24754NA      NA75270   7.654   8.285   5.567  0.1722  0.0260  0.4079
24755NA      NA75271   6.181   3.264   8.297 -0.1996  0.1046 -0.2304
24756NA      NA75272   8.314   8.961   6.024 -0.3868  0.0947 -0.6170
24757NA      NA75273   2.173   3.492   0.535  0.5580  0.7360 -0.1611
24758NA      NA75274   7.719   1.831   7.760 -0.2799  0.0273 -0.2988
24759NA      NA75275   2.590   2.176   8.252 -0.0965  0.0666  0.3576
24760NA      NA75276   8.755   1.179   3.936  0.0608 -1.1209  0.0352
24761NA      NA75277   0.282   3.602   0.952 -0.1629  0.1242  0.1529
24762NA      NA75278   2.379   2.778   1.779 -0.4460  0.0006  0.1952
24763CL      CL75279   0.941   0.870   8.694  0.1856  0.2056  0.5560
24764CL      CL75280   0.640   3.198   6.817  0.1772 -0.2518 -0.2572
24765CL      CL75281   0.214   5.401   5.716 -0.0883  0.4048 -0.1728
24766CL      CL75282   1.549   0.718   2.577 -0.0156  0.4361  0.3045
24767CL      CL75283   5.075   3.133   1.568 -0.0495 -0.6415  0.3897
24768CL      CL75284   1.461   4.856   2.037  0.1092  0.4032  0.7601
24769CL      CL75285   0.065   4.408   8.811 -0.3349 -0.0529  0.1265
24770CL      CL75286   4.891   4.735   9.079  0.2267  0.0067  0.4530
24771CL      CL75287   6.039   2.795   8.920  0.1616  0.4066  0.3199
24772CL      CL75288   8.024   8.177   1.233 -0.3006  0.0701 -0.3487
24773CL      CL75289   7.066   0.866   6.122 -0.0738  0.2413 -0.0124
24774CL      CL75290   2.361   2.359   3.883  0.1036  0.0834 -0.1499
24775CL      CL75291   8.275   3.270   8.778 -0.0889 -0.3578  0.0733
24776CL      CL75292   3.286   8.325   0.054 -0.2981  0.0358  0.0933
24777CL      CL75293   4.493   5.388   0.573 -0.2566 -0.1928  0.3784
24778CL      CL75294   0.317   7.367   0.256  0.0022  0.2062 -0.2715
24779CL      CL75295   5.831   4.470   8.490  0.0651  0.1035  0.3073
24780CL      CL75296   8.006   5.068   3.158 -0.1492  0.3324  0.1550
24781CL      CL75297   1.417   4.725   6.059 -0.2041  0.0963 -0.3582
24782CL      CL75298   0.619   3.508   2.290  0.2133 -0.5492  0.2916
24783CL      CL75299   8.474   9.110   2.412  0.1991  0.0096 -0.1934
24784CL      CL75300   8.504   8.948   3.331  0.2817  0.0493  0.1183
24785CL      CL75301   3.403   3.382   1.434  0.0032  0.1249 -0.5256
24786CL      CL75302   6.001   3.285   7.377 -0.6607 -0.0626  0.1760
24787CL      CL75303   0.943   7.423   3.098  0.1027  0.2261  0.3624
24788CL      CL75304   4.503   0.547   3.338  0.4244 -0.2966 -0.1657
24789CL      CL75305   2.724   6.821   6.228  0.4286  0.0475  0.1087
24790CL      CL75306   5.571   4.475   4.856  0.1598  0.3069 -0.0482
24791CL      CL75307   3.716   8.060   5.193 -0.1862  0.3822  0.1921
24792CL      CL75308   3.886   4.853   7.148 -0.1101  0.1026 -0.4347
24793CL      CL75309   0.161   9.055   2.654  0.1890  0.0760 -0.3841
24794CL      CL75310   4.925   3.352   6.084  0.1686 -0.1512  0.1369
24795CL      CL75311   2.371   2.576   8.128 -0.1573 -0.2906  0.0836
24796CL      CL75312   0.991   8.848   6.409  0.0598  0.0792  0.1507
24797CL      CL75313   2.904   1.541   6.732  0.2383 -0.3352 -0.2093
24798CL      CL75314   5.994   8.325   7.961 -0.4917  0.2502 -0.3006
24799CL      CL75315   5.612   6.730   6.197 -0.4987 -0.1824  0.2340
24800CL      CL75316   4.326   7.356   3.910  0.1752 -0.2863 -0.0184
24801CL      CL75317   3.988   4.736   2.724 -0.1887 -0.1892  0.1345
24802CL      CL75318   1.980   1.552   0.647  0.2447  0.1590 -0.0118
24803CL      CL75319   8.475   4.439   3.005  0.3617  0.0702  0.0280
24804CL      CL75320   4.107   1.959   4.344  0.0451 -0.0699  0.3077
24805CL      CL75321   9.094   8.815   6.500  0.3234 -0.2388 -0.1539
24806CL      CL75322   1.884   0.462   4.698  0.1943 -0.0661 -0.2598
24807CL      CL75323   5.132   0.235   7.030  0.4345 -0.3900  0.3166
24808CL      CL75324   6.819   7.280   4.682  0.0881 -0.4691  0.4388
24809CL      CL75325   8.883   5.177   6.848  0.5190  0.0004 -0.1065
24810CL      CL75326   5.256   8.302   0.970 -0.1556  0.1605  0.3526
24811CL      CL75327   5.481   0.201   3.843  0.0182  0.1107 -0.0616
24812CL      CL75328   4.904   3.708   0.249 -0.1045  0.1803  0.2250
24813CL      CL75329   3.957   1.842   0.026  0.3879  0.0060  0.2811
24814CL      CL75330   8.760   8.853   5.823  0.1328 -0.4780 -0.0954
24815CL      CL75331   1.881   4.542   1.265  0.1843 -0.3312  0.0079
24816CL      CL75332   8.232   7.625   8.743 -0.0596  0.1661 -0.4127
24817CL      CL75333   4.404   4.127   8.363 -0.2900  0.3114  0.3489
24818CL      CL75334   8.045   8.079   5.376  0.4242 -0.0544 -0.1673
24819CL      CL75335   7.317   7.125   6.138 -0.0912  0.2445  0.1848
24820CL      CL75336   6.174   1.492   9.070 -0.0320  0.4768 -0.0549
24821CL      CL75337   6.709   7.510   1.456 -0.1125 -0.1339 -0.1128
24822CL      CL75338   4.863   6.952   8.202  0.3363  0.1200 -0.2237
24823CL      CL75339   3.829   3.713   3.489  0.0170 -0.0163 -0.1315
24824CL      CL75340   8.327   2.111   2.857 -0.3592  0.3856  0.0787
24825CL      CL75341   8.143   4.973   3.538 -0.6247  0.0264 -0.2669
24826CL      CL75342   4.193   0.525   6.737  0.2938  0.3276  0.1015
24827CL      CL75343   6.482   2.222   6.188  0.2603 -0.3824  0.0824
24828CL      CL75344   1.203   7.431   5.792  0.2175 -0.6112  0.1424
24829CL      CL75345   1.529   1.947   3.420  0.0866  0.4815 -0.0415
24830CL      CL75346   8.895   3.996   1.950 -0.2242 -0.0148 -0.4644
24831CL      CL75347   7.092   4.884   5.346  0.4434  0.3649 -0.2388
24832CL      CL75348   8.387   6.782   3.342  0.0955 -0.0274 -0.0322
24833CL      CL75349   0.995   6.582   1.379  0.2321 -0.0841 -0.1983
24834CL      CL75350   6.104   6.073   6.237  0.1146 -0.1652 -0.0456
24835CL      CL75351   3.837   9.038   4.366 -0.2138 -0.2636 -0.3249
24836CL      CL75352   6.242   4.623   6.492 -0.0297 -0.0373  0.4146
24837CL      CL75353   3.535   0.148   3.093 -0.2027  0.0959 -0.3797
24838CL      CL75354   8.358   3.890   2.970  0.2633  0.1312 -0.2365
24839CL      CL75355   3.082   0.750   5.225  0.3657 -0.0470 -0.0666
24840CL      CL75356   2.031   0.558   2.697  0.1945 -0.2271 -0.1813
24841CL      CL75357   8.897   1.375   3.870 -0.1171  0.4460  0.2844
24842CL      CL75358   8.143   2.297   7.349 -0.0333  0.2903  0.1627
24843CL      CL75359   1.241   7.035   1.133  0.0000  0.2392 -0.2854
24844CL      CL75360   6.941   4.970   4.241 -0.1443  0.0202 -0.5864
24845CL      CL75361   8.160   4.604   8.416  0.2154 -0.3864  0.2816
24846CL      CL75362   4.647   2.030   7.615  0.1550  0.4979 -0.1557
24847CL      CL75363   5.209   4.032   8.298 -0.3210  0.2281 -0.0534
24848CL      CL75364   5.458   8.949   6.548  0.0504 -0.1117  0.3724
24849CL      CL75365   8.657   0.776   4.732 -0.1425  0.0772  0.0536
24850CL      CL75366   6.606   8.876   2.866  0.2979 -0.6997  0.1630
24851CL      CL75367   6.369   4.857   1.328  0.1327  0.3313 -0.0951
24852CL      CL75368   2.098   8.141   3.251 -0.4349  0.1208 -0.0967
24853CL      CL75369   5.978   8.225   2.004 -0.1605  0.1948  0.3178
24854CL      CL75370   0.023   0.399   5.046 -0.2971 -0.1121 -0.1804
24855CL      CL75371   7.562   5.774   2.509  0.0596  0.5148  0.2555
24856CL      CL75372   2.320   1.234   1.087  0.1750 -0.0396  0.0191
24857CL      CL75373   0.439   1.978   7.523 -0.0229  0.2321 -0.1549
24858CL      CL75374   3.393   0.744   2.707 -0.1945 -0.5116  0.2215
24859CL      CL75375   1.060   6.820   4.909 -0.3950 -0.2258  0.2447
24860CL      CL75376   6.374   8.911   5.214 -0.0253 -0.1128 -0.2187
24861CL      CL75377   0.746   4.904   8.637 -0.2118 -0.2635 -0.1059
24862CL      CL75378   1.877   6.659   2.367  0.1515  0.2488  0.1926
24863CL      CL75379   1.235   6.850   4.313  0.1558  0.0396 -0.1583
24864CL      CL75380   0.797   7.104   3.414 -0.0037  0.0628  0.1651
24865CL      CL75381   8.155   6.947   1.899  0.1665 -0.3897  0.0780
   9.11750   9.11750   9.11750
