;
;   File g4.5Ncore_cooh_petim.itp  was generated
;   By user: sairam (1000)
;   On host: sairam
;   At date: Mon. April  1 09:51:57 2024
;
;   This is a standalone topology file
;
;   Created by:
;   ParmEd:       amb2gro_top_gro.py, VERSION 3.4.1
;   Executable:   amb2gro_top_gro.py
;   Library dir:  /usr/local/gromacs/share/gromacs/top
;   Command line:
;     ./amb2gro_top_gro.py -p g4.5Ncore_cooh_petim.prmtop -c g4.5Ncore_cooh_petim.inpcrd -t g4.5Ncore_cooh_petim.itp -g g4.5Ncore_cooh_petim.gro -b g4.5Ncore_cooh_petim.pdb
;

;[ defaults ]
;; nbfunc        comb-rule       gen-pairs       fudgeLJ fudgeQQ
;1               2               yes             0.5          0.83333333  
;
;[ atomtypes ]
;; name    at.num    mass    charge ptype  sigma      epsilon
;n3             7  14.010000  0.00000000  A     0.32499985        0.71128
;c3             6  12.010000  0.00000000  A     0.33996695      0.4577296
;h1             1   1.008000  0.00000000  A      0.2471353      0.0656888
;hc             1   1.008000  0.00000000  A     0.26495328      0.0656888
;os             8  16.000000  0.00000000  A     0.30000123        0.71128
;c              6  12.010000  0.00000000  A     0.33996695       0.359824
;o              8  16.000000  0.00000000  A     0.29599219        0.87864
;oh             8  16.000000  0.00000000  A     0.30664734      0.8803136
;ho             1   1.008000  0.00000000  A              0              0


[ moleculetype ]
; Name            nrexcl
g4.5Ncore_cooh_petim          3

[ atoms ]
;   nr       type  resnr residue  atom   cgnr    charge       mass  typeB    chargeB      massB
; residue    1 aaa rtp aaa q 0.0
    1         n3      1    aaa     N1      1 -0.65416500  14.010000   ; qtot -0.654165
    2         c3      1    aaa     C1      2 0.05178400  12.010000   ; qtot -0.602381
    3         h1      1    aaa     H1      3 0.06475500   1.008000   ; qtot -0.537626
    4         h1      1    aaa     H2      4 0.06475500   1.008000   ; qtot -0.472871
    5         c3      1    aaa     C2      5 0.05178400  12.010000   ; qtot -0.421087
    6         h1      1    aaa     H3      6 0.06475500   1.008000   ; qtot -0.356332
    7         h1      1    aaa     H4      7 0.06475500   1.008000   ; qtot -0.291577
    8         c3      1    aaa     C3      8 0.05178400  12.010000   ; qtot -0.239793
    9         h1      1    aaa     H5      9 0.06475500   1.008000   ; qtot -0.175038
   10         h1      1    aaa     H6     10 0.06475500   1.008000   ; qtot -0.110283
   11         c3      1    aaa     C4     11 0.07871100  12.010000   ; qtot -0.031572
   12         hc      1    aaa     H7     12 0.08683700   1.008000   ; qtot 0.055265
   13         hc      1    aaa     H8     13 0.08683700   1.008000   ; qtot 0.142102
   14         c3      1    aaa     C5     14 0.07871100  12.010000   ; qtot 0.220813
   15         hc      1    aaa     H9     15 0.08683700   1.008000   ; qtot 0.307650
   16         hc      1    aaa    H10     16 0.08683700   1.008000   ; qtot 0.394487
   17         c3      1    aaa     C6     17 0.07871100  12.010000   ; qtot 0.473198
   18         hc      1    aaa    H11     18 0.08683700   1.008000   ; qtot 0.560035
   19         hc      1    aaa    H12     19 0.08683700   1.008000   ; qtot 0.646872
   20         c3      1    aaa     C7     20 -0.74941200  12.010000   ; qtot -0.102540
   21         h1      1    aaa    H13     21 0.26689400   1.008000   ; qtot 0.164354
   22         h1      1    aaa    H14     22 0.26689400   1.008000   ; qtot 0.431248
   23         c3      1    aaa     C8     23 -0.74941200  12.010000   ; qtot -0.318164
   24         h1      1    aaa    H15     24 0.26689400   1.008000   ; qtot -0.051270
   25         h1      1    aaa    H16     25 0.26689400   1.008000   ; qtot 0.215624
   26         c3      1    aaa     C9     26 -0.74941200  12.010000   ; qtot -0.533788
   27         h1      1    aaa    H17     27 0.26689400   1.008000   ; qtot -0.266894
   28         h1      1    aaa    H18     28 0.26689400   1.008000   ; qtot 0.000000
; residue    2 bbb rtp bbb q -0.0
   29         n3      2    bbb     N1     29 -0.59685800  14.010000   ; qtot -0.596858
   30         c3      2    bbb     C1     30 0.10137000  12.010000   ; qtot -0.495488
   31         h1      2    bbb     H1     31 0.04411300   1.008000   ; qtot -0.451375
   32         h1      2    bbb     H2     32 0.04411300   1.008000   ; qtot -0.407262
   33         c3      2    bbb     C2     33 0.10137000  12.010000   ; qtot -0.305892
   34         h1      2    bbb     H3     34 0.04411300   1.008000   ; qtot -0.261779
   35         h1      2    bbb     H4     35 0.04411300   1.008000   ; qtot -0.217666
   36         c3      2    bbb     C3     36 -0.00195300  12.010000   ; qtot -0.219619
   37         h1      2    bbb     H5     37 0.05064400   1.008000   ; qtot -0.168975
   38         h1      2    bbb     H6     38 0.05064400   1.008000   ; qtot -0.118331
   39         c3      2    bbb     C4     39 -0.01612100  12.010000   ; qtot -0.134452
   40         hc      2    bbb     H7     40 0.04936100   1.008000   ; qtot -0.085091
   41         hc      2    bbb     H8     41 0.04936100   1.008000   ; qtot -0.035730
   42         c3      2    bbb     C5     42 0.11363000  12.010000   ; qtot 0.077900
   43         hc      2    bbb     H9     43 0.06265900   1.008000   ; qtot 0.140559
   44         hc      2    bbb    H10     44 0.06265900   1.008000   ; qtot 0.203218
   45         c3      2    bbb     C6     45 0.11363000  12.010000   ; qtot 0.316848
   46         hc      2    bbb    H11     46 0.06265900   1.008000   ; qtot 0.379507
   47         hc      2    bbb    H12     47 0.06265900   1.008000   ; qtot 0.442166
   48         c3      2    bbb     C7     48 0.05858200  12.010000   ; qtot 0.500748
   49         h1      2    bbb    H13     49 0.06123400   1.008000   ; qtot 0.561982
   50         h1      2    bbb    H14     50 0.06123400   1.008000   ; qtot 0.623216
   51         c3      2    bbb     C8     51 -0.72423400  12.010000   ; qtot -0.101018
   52         h1      2    bbb    H15     52 0.25637600   1.008000   ; qtot 0.155358
   53         h1      2    bbb    H16     53 0.25637600   1.008000   ; qtot 0.411734
   54         c3      2    bbb     C9     54 -0.72423400  12.010000   ; qtot -0.312500
   55         h1      2    bbb    H17     55 0.25637600   1.008000   ; qtot -0.056124
   56         h1      2    bbb    H18     56 0.25637600   1.008000   ; qtot 0.200252
   57         os      2    bbb     O1     57 -0.20025300  16.000000   ; qtot -0.000001
; residue    3 bbb rtp bbb q -0.0
   58         n3      3    bbb     N1     58 -0.59685800  14.010000   ; qtot -0.596859
   59         c3      3    bbb     C1     59 0.10137000  12.010000   ; qtot -0.495489
   60         h1      3    bbb     H1     60 0.04411300   1.008000   ; qtot -0.451376
   61         h1      3    bbb     H2     61 0.04411300   1.008000   ; qtot -0.407263
   62         c3      3    bbb     C2     62 0.10137000  12.010000   ; qtot -0.305893
   63         h1      3    bbb     H3     63 0.04411300   1.008000   ; qtot -0.261780
   64         h1      3    bbb     H4     64 0.04411300   1.008000   ; qtot -0.217667
   65         c3      3    bbb     C3     65 -0.00195300  12.010000   ; qtot -0.219620
   66         h1      3    bbb     H5     66 0.05064400   1.008000   ; qtot -0.168976
   67         h1      3    bbb     H6     67 0.05064400   1.008000   ; qtot -0.118332
   68         c3      3    bbb     C4     68 -0.01612100  12.010000   ; qtot -0.134453
   69         hc      3    bbb     H7     69 0.04936100   1.008000   ; qtot -0.085092
   70         hc      3    bbb     H8     70 0.04936100   1.008000   ; qtot -0.035731
   71         c3      3    bbb     C5     71 0.11363000  12.010000   ; qtot 0.077899
   72         hc      3    bbb     H9     72 0.06265900   1.008000   ; qtot 0.140558
   73         hc      3    bbb    H10     73 0.06265900   1.008000   ; qtot 0.203217
   74         c3      3    bbb     C6     74 0.11363000  12.010000   ; qtot 0.316847
   75         hc      3    bbb    H11     75 0.06265900   1.008000   ; qtot 0.379506
   76         hc      3    bbb    H12     76 0.06265900   1.008000   ; qtot 0.442165
   77         c3      3    bbb     C7     77 0.05858200  12.010000   ; qtot 0.500747
   78         h1      3    bbb    H13     78 0.06123400   1.008000   ; qtot 0.561981
   79         h1      3    bbb    H14     79 0.06123400   1.008000   ; qtot 0.623215
   80         c3      3    bbb     C8     80 -0.72423400  12.010000   ; qtot -0.101019
   81         h1      3    bbb    H15     81 0.25637600   1.008000   ; qtot 0.155357
   82         h1      3    bbb    H16     82 0.25637600   1.008000   ; qtot 0.411733
   83         c3      3    bbb     C9     83 -0.72423400  12.010000   ; qtot -0.312501
   84         h1      3    bbb    H17     84 0.25637600   1.008000   ; qtot -0.056125
   85         h1      3    bbb    H18     85 0.25637600   1.008000   ; qtot 0.200251
   86         os      3    bbb     O1     86 -0.20025300  16.000000   ; qtot -0.000002
; residue    4 bbb rtp bbb q -0.0
   87         n3      4    bbb     N1     87 -0.59685800  14.010000   ; qtot -0.596860
   88         c3      4    bbb     C1     88 0.10137000  12.010000   ; qtot -0.495490
   89         h1      4    bbb     H1     89 0.04411300   1.008000   ; qtot -0.451377
   90         h1      4    bbb     H2     90 0.04411300   1.008000   ; qtot -0.407264
   91         c3      4    bbb     C2     91 0.10137000  12.010000   ; qtot -0.305894
   92         h1      4    bbb     H3     92 0.04411300   1.008000   ; qtot -0.261781
   93         h1      4    bbb     H4     93 0.04411300   1.008000   ; qtot -0.217668
   94         c3      4    bbb     C3     94 -0.00195300  12.010000   ; qtot -0.219621
   95         h1      4    bbb     H5     95 0.05064400   1.008000   ; qtot -0.168977
   96         h1      4    bbb     H6     96 0.05064400   1.008000   ; qtot -0.118333
   97         c3      4    bbb     C4     97 -0.01612100  12.010000   ; qtot -0.134454
   98         hc      4    bbb     H7     98 0.04936100   1.008000   ; qtot -0.085093
   99         hc      4    bbb     H8     99 0.04936100   1.008000   ; qtot -0.035732
  100         c3      4    bbb     C5    100 0.11363000  12.010000   ; qtot 0.077898
  101         hc      4    bbb     H9    101 0.06265900   1.008000   ; qtot 0.140557
  102         hc      4    bbb    H10    102 0.06265900   1.008000   ; qtot 0.203216
  103         c3      4    bbb     C6    103 0.11363000  12.010000   ; qtot 0.316846
  104         hc      4    bbb    H11    104 0.06265900   1.008000   ; qtot 0.379505
  105         hc      4    bbb    H12    105 0.06265900   1.008000   ; qtot 0.442164
  106         c3      4    bbb     C7    106 0.05858200  12.010000   ; qtot 0.500746
  107         h1      4    bbb    H13    107 0.06123400   1.008000   ; qtot 0.561980
  108         h1      4    bbb    H14    108 0.06123400   1.008000   ; qtot 0.623214
  109         c3      4    bbb     C8    109 -0.72423400  12.010000   ; qtot -0.101020
  110         h1      4    bbb    H15    110 0.25637600   1.008000   ; qtot 0.155356
  111         h1      4    bbb    H16    111 0.25637600   1.008000   ; qtot 0.411732
  112         c3      4    bbb     C9    112 -0.72423400  12.010000   ; qtot -0.312502
  113         h1      4    bbb    H17    113 0.25637600   1.008000   ; qtot -0.056126
  114         h1      4    bbb    H18    114 0.25637600   1.008000   ; qtot 0.200250
  115         os      4    bbb     O1    115 -0.20025300  16.000000   ; qtot -0.000003
; residue    5 bbb rtp bbb q -0.0
  116         n3      5    bbb     N1    116 -0.59685800  14.010000   ; qtot -0.596861
  117         c3      5    bbb     C1    117 0.10137000  12.010000   ; qtot -0.495491
  118         h1      5    bbb     H1    118 0.04411300   1.008000   ; qtot -0.451378
  119         h1      5    bbb     H2    119 0.04411300   1.008000   ; qtot -0.407265
  120         c3      5    bbb     C2    120 0.10137000  12.010000   ; qtot -0.305895
  121         h1      5    bbb     H3    121 0.04411300   1.008000   ; qtot -0.261782
  122         h1      5    bbb     H4    122 0.04411300   1.008000   ; qtot -0.217669
  123         c3      5    bbb     C3    123 -0.00195300  12.010000   ; qtot -0.219622
  124         h1      5    bbb     H5    124 0.05064400   1.008000   ; qtot -0.168978
  125         h1      5    bbb     H6    125 0.05064400   1.008000   ; qtot -0.118334
  126         c3      5    bbb     C4    126 -0.01612100  12.010000   ; qtot -0.134455
  127         hc      5    bbb     H7    127 0.04936100   1.008000   ; qtot -0.085094
  128         hc      5    bbb     H8    128 0.04936100   1.008000   ; qtot -0.035733
  129         c3      5    bbb     C5    129 0.11363000  12.010000   ; qtot 0.077897
  130         hc      5    bbb     H9    130 0.06265900   1.008000   ; qtot 0.140556
  131         hc      5    bbb    H10    131 0.06265900   1.008000   ; qtot 0.203215
  132         c3      5    bbb     C6    132 0.11363000  12.010000   ; qtot 0.316845
  133         hc      5    bbb    H11    133 0.06265900   1.008000   ; qtot 0.379504
  134         hc      5    bbb    H12    134 0.06265900   1.008000   ; qtot 0.442163
  135         c3      5    bbb     C7    135 0.05858200  12.010000   ; qtot 0.500745
  136         h1      5    bbb    H13    136 0.06123400   1.008000   ; qtot 0.561979
  137         h1      5    bbb    H14    137 0.06123400   1.008000   ; qtot 0.623213
  138         c3      5    bbb     C8    138 -0.72423400  12.010000   ; qtot -0.101021
  139         h1      5    bbb    H15    139 0.25637600   1.008000   ; qtot 0.155355
  140         h1      5    bbb    H16    140 0.25637600   1.008000   ; qtot 0.411731
  141         c3      5    bbb     C9    141 -0.72423400  12.010000   ; qtot -0.312503
  142         h1      5    bbb    H17    142 0.25637600   1.008000   ; qtot -0.056127
  143         h1      5    bbb    H18    143 0.25637600   1.008000   ; qtot 0.200249
  144         os      5    bbb     O1    144 -0.20025300  16.000000   ; qtot -0.000004
; residue    6 bbb rtp bbb q -0.0
  145         n3      6    bbb     N1    145 -0.59685800  14.010000   ; qtot -0.596862
  146         c3      6    bbb     C1    146 0.10137000  12.010000   ; qtot -0.495492
  147         h1      6    bbb     H1    147 0.04411300   1.008000   ; qtot -0.451379
  148         h1      6    bbb     H2    148 0.04411300   1.008000   ; qtot -0.407266
  149         c3      6    bbb     C2    149 0.10137000  12.010000   ; qtot -0.305896
  150         h1      6    bbb     H3    150 0.04411300   1.008000   ; qtot -0.261783
  151         h1      6    bbb     H4    151 0.04411300   1.008000   ; qtot -0.217670
  152         c3      6    bbb     C3    152 -0.00195300  12.010000   ; qtot -0.219623
  153         h1      6    bbb     H5    153 0.05064400   1.008000   ; qtot -0.168979
  154         h1      6    bbb     H6    154 0.05064400   1.008000   ; qtot -0.118335
  155         c3      6    bbb     C4    155 -0.01612100  12.010000   ; qtot -0.134456
  156         hc      6    bbb     H7    156 0.04936100   1.008000   ; qtot -0.085095
  157         hc      6    bbb     H8    157 0.04936100   1.008000   ; qtot -0.035734
  158         c3      6    bbb     C5    158 0.11363000  12.010000   ; qtot 0.077896
  159         hc      6    bbb     H9    159 0.06265900   1.008000   ; qtot 0.140555
  160         hc      6    bbb    H10    160 0.06265900   1.008000   ; qtot 0.203214
  161         c3      6    bbb     C6    161 0.11363000  12.010000   ; qtot 0.316844
  162         hc      6    bbb    H11    162 0.06265900   1.008000   ; qtot 0.379503
  163         hc      6    bbb    H12    163 0.06265900   1.008000   ; qtot 0.442162
  164         c3      6    bbb     C7    164 0.05858200  12.010000   ; qtot 0.500744
  165         h1      6    bbb    H13    165 0.06123400   1.008000   ; qtot 0.561978
  166         h1      6    bbb    H14    166 0.06123400   1.008000   ; qtot 0.623212
  167         c3      6    bbb     C8    167 -0.72423400  12.010000   ; qtot -0.101022
  168         h1      6    bbb    H15    168 0.25637600   1.008000   ; qtot 0.155354
  169         h1      6    bbb    H16    169 0.25637600   1.008000   ; qtot 0.411730
  170         c3      6    bbb     C9    170 -0.72423400  12.010000   ; qtot -0.312504
  171         h1      6    bbb    H17    171 0.25637600   1.008000   ; qtot -0.056128
  172         h1      6    bbb    H18    172 0.25637600   1.008000   ; qtot 0.200248
  173         os      6    bbb     O1    173 -0.20025300  16.000000   ; qtot -0.000005
; residue    7 bbb rtp bbb q -0.0
  174         n3      7    bbb     N1    174 -0.59685800  14.010000   ; qtot -0.596863
  175         c3      7    bbb     C1    175 0.10137000  12.010000   ; qtot -0.495493
  176         h1      7    bbb     H1    176 0.04411300   1.008000   ; qtot -0.451380
  177         h1      7    bbb     H2    177 0.04411300   1.008000   ; qtot -0.407267
  178         c3      7    bbb     C2    178 0.10137000  12.010000   ; qtot -0.305897
  179         h1      7    bbb     H3    179 0.04411300   1.008000   ; qtot -0.261784
  180         h1      7    bbb     H4    180 0.04411300   1.008000   ; qtot -0.217671
  181         c3      7    bbb     C3    181 -0.00195300  12.010000   ; qtot -0.219624
  182         h1      7    bbb     H5    182 0.05064400   1.008000   ; qtot -0.168980
  183         h1      7    bbb     H6    183 0.05064400   1.008000   ; qtot -0.118336
  184         c3      7    bbb     C4    184 -0.01612100  12.010000   ; qtot -0.134457
  185         hc      7    bbb     H7    185 0.04936100   1.008000   ; qtot -0.085096
  186         hc      7    bbb     H8    186 0.04936100   1.008000   ; qtot -0.035735
  187         c3      7    bbb     C5    187 0.11363000  12.010000   ; qtot 0.077895
  188         hc      7    bbb     H9    188 0.06265900   1.008000   ; qtot 0.140554
  189         hc      7    bbb    H10    189 0.06265900   1.008000   ; qtot 0.203213
  190         c3      7    bbb     C6    190 0.11363000  12.010000   ; qtot 0.316843
  191         hc      7    bbb    H11    191 0.06265900   1.008000   ; qtot 0.379502
  192         hc      7    bbb    H12    192 0.06265900   1.008000   ; qtot 0.442161
  193         c3      7    bbb     C7    193 0.05858200  12.010000   ; qtot 0.500743
  194         h1      7    bbb    H13    194 0.06123400   1.008000   ; qtot 0.561977
  195         h1      7    bbb    H14    195 0.06123400   1.008000   ; qtot 0.623211
  196         c3      7    bbb     C8    196 -0.72423400  12.010000   ; qtot -0.101023
  197         h1      7    bbb    H15    197 0.25637600   1.008000   ; qtot 0.155353
  198         h1      7    bbb    H16    198 0.25637600   1.008000   ; qtot 0.411729
  199         c3      7    bbb     C9    199 -0.72423400  12.010000   ; qtot -0.312505
  200         h1      7    bbb    H17    200 0.25637600   1.008000   ; qtot -0.056129
  201         h1      7    bbb    H18    201 0.25637600   1.008000   ; qtot 0.200247
  202         os      7    bbb     O1    202 -0.20025300  16.000000   ; qtot -0.000006
; residue    8 bbb rtp bbb q -0.0
  203         n3      8    bbb     N1    203 -0.59685800  14.010000   ; qtot -0.596864
  204         c3      8    bbb     C1    204 0.10137000  12.010000   ; qtot -0.495494
  205         h1      8    bbb     H1    205 0.04411300   1.008000   ; qtot -0.451381
  206         h1      8    bbb     H2    206 0.04411300   1.008000   ; qtot -0.407268
  207         c3      8    bbb     C2    207 0.10137000  12.010000   ; qtot -0.305898
  208         h1      8    bbb     H3    208 0.04411300   1.008000   ; qtot -0.261785
  209         h1      8    bbb     H4    209 0.04411300   1.008000   ; qtot -0.217672
  210         c3      8    bbb     C3    210 -0.00195300  12.010000   ; qtot -0.219625
  211         h1      8    bbb     H5    211 0.05064400   1.008000   ; qtot -0.168981
  212         h1      8    bbb     H6    212 0.05064400   1.008000   ; qtot -0.118337
  213         c3      8    bbb     C4    213 -0.01612100  12.010000   ; qtot -0.134458
  214         hc      8    bbb     H7    214 0.04936100   1.008000   ; qtot -0.085097
  215         hc      8    bbb     H8    215 0.04936100   1.008000   ; qtot -0.035736
  216         c3      8    bbb     C5    216 0.11363000  12.010000   ; qtot 0.077894
  217         hc      8    bbb     H9    217 0.06265900   1.008000   ; qtot 0.140553
  218         hc      8    bbb    H10    218 0.06265900   1.008000   ; qtot 0.203212
  219         c3      8    bbb     C6    219 0.11363000  12.010000   ; qtot 0.316842
  220         hc      8    bbb    H11    220 0.06265900   1.008000   ; qtot 0.379501
  221         hc      8    bbb    H12    221 0.06265900   1.008000   ; qtot 0.442160
  222         c3      8    bbb     C7    222 0.05858200  12.010000   ; qtot 0.500742
  223         h1      8    bbb    H13    223 0.06123400   1.008000   ; qtot 0.561976
  224         h1      8    bbb    H14    224 0.06123400   1.008000   ; qtot 0.623210
  225         c3      8    bbb     C8    225 -0.72423400  12.010000   ; qtot -0.101024
  226         h1      8    bbb    H15    226 0.25637600   1.008000   ; qtot 0.155352
  227         h1      8    bbb    H16    227 0.25637600   1.008000   ; qtot 0.411728
  228         c3      8    bbb     C9    228 -0.72423400  12.010000   ; qtot -0.312506
  229         h1      8    bbb    H17    229 0.25637600   1.008000   ; qtot -0.056130
  230         h1      8    bbb    H18    230 0.25637600   1.008000   ; qtot 0.200246
  231         os      8    bbb     O1    231 -0.20025300  16.000000   ; qtot -0.000007
; residue    9 bbb rtp bbb q -0.0
  232         n3      9    bbb     N1    232 -0.59685800  14.010000   ; qtot -0.596865
  233         c3      9    bbb     C1    233 0.10137000  12.010000   ; qtot -0.495495
  234         h1      9    bbb     H1    234 0.04411300   1.008000   ; qtot -0.451382
  235         h1      9    bbb     H2    235 0.04411300   1.008000   ; qtot -0.407269
  236         c3      9    bbb     C2    236 0.10137000  12.010000   ; qtot -0.305899
  237         h1      9    bbb     H3    237 0.04411300   1.008000   ; qtot -0.261786
  238         h1      9    bbb     H4    238 0.04411300   1.008000   ; qtot -0.217673
  239         c3      9    bbb     C3    239 -0.00195300  12.010000   ; qtot -0.219626
  240         h1      9    bbb     H5    240 0.05064400   1.008000   ; qtot -0.168982
  241         h1      9    bbb     H6    241 0.05064400   1.008000   ; qtot -0.118338
  242         c3      9    bbb     C4    242 -0.01612100  12.010000   ; qtot -0.134459
  243         hc      9    bbb     H7    243 0.04936100   1.008000   ; qtot -0.085098
  244         hc      9    bbb     H8    244 0.04936100   1.008000   ; qtot -0.035737
  245         c3      9    bbb     C5    245 0.11363000  12.010000   ; qtot 0.077893
  246         hc      9    bbb     H9    246 0.06265900   1.008000   ; qtot 0.140552
  247         hc      9    bbb    H10    247 0.06265900   1.008000   ; qtot 0.203211
  248         c3      9    bbb     C6    248 0.11363000  12.010000   ; qtot 0.316841
  249         hc      9    bbb    H11    249 0.06265900   1.008000   ; qtot 0.379500
  250         hc      9    bbb    H12    250 0.06265900   1.008000   ; qtot 0.442159
  251         c3      9    bbb     C7    251 0.05858200  12.010000   ; qtot 0.500741
  252         h1      9    bbb    H13    252 0.06123400   1.008000   ; qtot 0.561975
  253         h1      9    bbb    H14    253 0.06123400   1.008000   ; qtot 0.623209
  254         c3      9    bbb     C8    254 -0.72423400  12.010000   ; qtot -0.101025
  255         h1      9    bbb    H15    255 0.25637600   1.008000   ; qtot 0.155351
  256         h1      9    bbb    H16    256 0.25637600   1.008000   ; qtot 0.411727
  257         c3      9    bbb     C9    257 -0.72423400  12.010000   ; qtot -0.312507
  258         h1      9    bbb    H17    258 0.25637600   1.008000   ; qtot -0.056131
  259         h1      9    bbb    H18    259 0.25637600   1.008000   ; qtot 0.200245
  260         os      9    bbb     O1    260 -0.20025300  16.000000   ; qtot -0.000008
; residue   10 bbb rtp bbb q -0.0
  261         n3     10    bbb     N1    261 -0.59685800  14.010000   ; qtot -0.596866
  262         c3     10    bbb     C1    262 0.10137000  12.010000   ; qtot -0.495496
  263         h1     10    bbb     H1    263 0.04411300   1.008000   ; qtot -0.451383
  264         h1     10    bbb     H2    264 0.04411300   1.008000   ; qtot -0.407270
  265         c3     10    bbb     C2    265 0.10137000  12.010000   ; qtot -0.305900
  266         h1     10    bbb     H3    266 0.04411300   1.008000   ; qtot -0.261787
  267         h1     10    bbb     H4    267 0.04411300   1.008000   ; qtot -0.217674
  268         c3     10    bbb     C3    268 -0.00195300  12.010000   ; qtot -0.219627
  269         h1     10    bbb     H5    269 0.05064400   1.008000   ; qtot -0.168983
  270         h1     10    bbb     H6    270 0.05064400   1.008000   ; qtot -0.118339
  271         c3     10    bbb     C4    271 -0.01612100  12.010000   ; qtot -0.134460
  272         hc     10    bbb     H7    272 0.04936100   1.008000   ; qtot -0.085099
  273         hc     10    bbb     H8    273 0.04936100   1.008000   ; qtot -0.035738
  274         c3     10    bbb     C5    274 0.11363000  12.010000   ; qtot 0.077892
  275         hc     10    bbb     H9    275 0.06265900   1.008000   ; qtot 0.140551
  276         hc     10    bbb    H10    276 0.06265900   1.008000   ; qtot 0.203210
  277         c3     10    bbb     C6    277 0.11363000  12.010000   ; qtot 0.316840
  278         hc     10    bbb    H11    278 0.06265900   1.008000   ; qtot 0.379499
  279         hc     10    bbb    H12    279 0.06265900   1.008000   ; qtot 0.442158
  280         c3     10    bbb     C7    280 0.05858200  12.010000   ; qtot 0.500740
  281         h1     10    bbb    H13    281 0.06123400   1.008000   ; qtot 0.561974
  282         h1     10    bbb    H14    282 0.06123400   1.008000   ; qtot 0.623208
  283         c3     10    bbb     C8    283 -0.72423400  12.010000   ; qtot -0.101026
  284         h1     10    bbb    H15    284 0.25637600   1.008000   ; qtot 0.155350
  285         h1     10    bbb    H16    285 0.25637600   1.008000   ; qtot 0.411726
  286         c3     10    bbb     C9    286 -0.72423400  12.010000   ; qtot -0.312508
  287         h1     10    bbb    H17    287 0.25637600   1.008000   ; qtot -0.056132
  288         h1     10    bbb    H18    288 0.25637600   1.008000   ; qtot 0.200244
  289         os     10    bbb     O1    289 -0.20025300  16.000000   ; qtot -0.000009
; residue   11 bbb rtp bbb q -0.0
  290         n3     11    bbb     N1    290 -0.59685800  14.010000   ; qtot -0.596867
  291         c3     11    bbb     C1    291 0.10137000  12.010000   ; qtot -0.495497
  292         h1     11    bbb     H1    292 0.04411300   1.008000   ; qtot -0.451384
  293         h1     11    bbb     H2    293 0.04411300   1.008000   ; qtot -0.407271
  294         c3     11    bbb     C2    294 0.10137000  12.010000   ; qtot -0.305901
  295         h1     11    bbb     H3    295 0.04411300   1.008000   ; qtot -0.261788
  296         h1     11    bbb     H4    296 0.04411300   1.008000   ; qtot -0.217675
  297         c3     11    bbb     C3    297 -0.00195300  12.010000   ; qtot -0.219628
  298         h1     11    bbb     H5    298 0.05064400   1.008000   ; qtot -0.168984
  299         h1     11    bbb     H6    299 0.05064400   1.008000   ; qtot -0.118340
  300         c3     11    bbb     C4    300 -0.01612100  12.010000   ; qtot -0.134461
  301         hc     11    bbb     H7    301 0.04936100   1.008000   ; qtot -0.085100
  302         hc     11    bbb     H8    302 0.04936100   1.008000   ; qtot -0.035739
  303         c3     11    bbb     C5    303 0.11363000  12.010000   ; qtot 0.077891
  304         hc     11    bbb     H9    304 0.06265900   1.008000   ; qtot 0.140550
  305         hc     11    bbb    H10    305 0.06265900   1.008000   ; qtot 0.203209
  306         c3     11    bbb     C6    306 0.11363000  12.010000   ; qtot 0.316839
  307         hc     11    bbb    H11    307 0.06265900   1.008000   ; qtot 0.379498
  308         hc     11    bbb    H12    308 0.06265900   1.008000   ; qtot 0.442157
  309         c3     11    bbb     C7    309 0.05858200  12.010000   ; qtot 0.500739
  310         h1     11    bbb    H13    310 0.06123400   1.008000   ; qtot 0.561973
  311         h1     11    bbb    H14    311 0.06123400   1.008000   ; qtot 0.623207
  312         c3     11    bbb     C8    312 -0.72423400  12.010000   ; qtot -0.101027
  313         h1     11    bbb    H15    313 0.25637600   1.008000   ; qtot 0.155349
  314         h1     11    bbb    H16    314 0.25637600   1.008000   ; qtot 0.411725
  315         c3     11    bbb     C9    315 -0.72423400  12.010000   ; qtot -0.312509
  316         h1     11    bbb    H17    316 0.25637600   1.008000   ; qtot -0.056133
  317         h1     11    bbb    H18    317 0.25637600   1.008000   ; qtot 0.200243
  318         os     11    bbb     O1    318 -0.20025300  16.000000   ; qtot -0.000010
; residue   12 bbb rtp bbb q -0.0
  319         n3     12    bbb     N1    319 -0.59685800  14.010000   ; qtot -0.596868
  320         c3     12    bbb     C1    320 0.10137000  12.010000   ; qtot -0.495498
  321         h1     12    bbb     H1    321 0.04411300   1.008000   ; qtot -0.451385
  322         h1     12    bbb     H2    322 0.04411300   1.008000   ; qtot -0.407272
  323         c3     12    bbb     C2    323 0.10137000  12.010000   ; qtot -0.305902
  324         h1     12    bbb     H3    324 0.04411300   1.008000   ; qtot -0.261789
  325         h1     12    bbb     H4    325 0.04411300   1.008000   ; qtot -0.217676
  326         c3     12    bbb     C3    326 -0.00195300  12.010000   ; qtot -0.219629
  327         h1     12    bbb     H5    327 0.05064400   1.008000   ; qtot -0.168985
  328         h1     12    bbb     H6    328 0.05064400   1.008000   ; qtot -0.118341
  329         c3     12    bbb     C4    329 -0.01612100  12.010000   ; qtot -0.134462
  330         hc     12    bbb     H7    330 0.04936100   1.008000   ; qtot -0.085101
  331         hc     12    bbb     H8    331 0.04936100   1.008000   ; qtot -0.035740
  332         c3     12    bbb     C5    332 0.11363000  12.010000   ; qtot 0.077890
  333         hc     12    bbb     H9    333 0.06265900   1.008000   ; qtot 0.140549
  334         hc     12    bbb    H10    334 0.06265900   1.008000   ; qtot 0.203208
  335         c3     12    bbb     C6    335 0.11363000  12.010000   ; qtot 0.316838
  336         hc     12    bbb    H11    336 0.06265900   1.008000   ; qtot 0.379497
  337         hc     12    bbb    H12    337 0.06265900   1.008000   ; qtot 0.442156
  338         c3     12    bbb     C7    338 0.05858200  12.010000   ; qtot 0.500738
  339         h1     12    bbb    H13    339 0.06123400   1.008000   ; qtot 0.561972
  340         h1     12    bbb    H14    340 0.06123400   1.008000   ; qtot 0.623206
  341         c3     12    bbb     C8    341 -0.72423400  12.010000   ; qtot -0.101028
  342         h1     12    bbb    H15    342 0.25637600   1.008000   ; qtot 0.155348
  343         h1     12    bbb    H16    343 0.25637600   1.008000   ; qtot 0.411724
  344         c3     12    bbb     C9    344 -0.72423400  12.010000   ; qtot -0.312510
  345         h1     12    bbb    H17    345 0.25637600   1.008000   ; qtot -0.056134
  346         h1     12    bbb    H18    346 0.25637600   1.008000   ; qtot 0.200242
  347         os     12    bbb     O1    347 -0.20025300  16.000000   ; qtot -0.000011
; residue   13 bbb rtp bbb q -0.0
  348         n3     13    bbb     N1    348 -0.59685800  14.010000   ; qtot -0.596869
  349         c3     13    bbb     C1    349 0.10137000  12.010000   ; qtot -0.495499
  350         h1     13    bbb     H1    350 0.04411300   1.008000   ; qtot -0.451386
  351         h1     13    bbb     H2    351 0.04411300   1.008000   ; qtot -0.407273
  352         c3     13    bbb     C2    352 0.10137000  12.010000   ; qtot -0.305903
  353         h1     13    bbb     H3    353 0.04411300   1.008000   ; qtot -0.261790
  354         h1     13    bbb     H4    354 0.04411300   1.008000   ; qtot -0.217677
  355         c3     13    bbb     C3    355 -0.00195300  12.010000   ; qtot -0.219630
  356         h1     13    bbb     H5    356 0.05064400   1.008000   ; qtot -0.168986
  357         h1     13    bbb     H6    357 0.05064400   1.008000   ; qtot -0.118342
  358         c3     13    bbb     C4    358 -0.01612100  12.010000   ; qtot -0.134463
  359         hc     13    bbb     H7    359 0.04936100   1.008000   ; qtot -0.085102
  360         hc     13    bbb     H8    360 0.04936100   1.008000   ; qtot -0.035741
  361         c3     13    bbb     C5    361 0.11363000  12.010000   ; qtot 0.077889
  362         hc     13    bbb     H9    362 0.06265900   1.008000   ; qtot 0.140548
  363         hc     13    bbb    H10    363 0.06265900   1.008000   ; qtot 0.203207
  364         c3     13    bbb     C6    364 0.11363000  12.010000   ; qtot 0.316837
  365         hc     13    bbb    H11    365 0.06265900   1.008000   ; qtot 0.379496
  366         hc     13    bbb    H12    366 0.06265900   1.008000   ; qtot 0.442155
  367         c3     13    bbb     C7    367 0.05858200  12.010000   ; qtot 0.500737
  368         h1     13    bbb    H13    368 0.06123400   1.008000   ; qtot 0.561971
  369         h1     13    bbb    H14    369 0.06123400   1.008000   ; qtot 0.623205
  370         c3     13    bbb     C8    370 -0.72423400  12.010000   ; qtot -0.101029
  371         h1     13    bbb    H15    371 0.25637600   1.008000   ; qtot 0.155347
  372         h1     13    bbb    H16    372 0.25637600   1.008000   ; qtot 0.411723
  373         c3     13    bbb     C9    373 -0.72423400  12.010000   ; qtot -0.312511
  374         h1     13    bbb    H17    374 0.25637600   1.008000   ; qtot -0.056135
  375         h1     13    bbb    H18    375 0.25637600   1.008000   ; qtot 0.200241
  376         os     13    bbb     O1    376 -0.20025300  16.000000   ; qtot -0.000012
; residue   14 bbb rtp bbb q -0.0
  377         n3     14    bbb     N1    377 -0.59685800  14.010000   ; qtot -0.596870
  378         c3     14    bbb     C1    378 0.10137000  12.010000   ; qtot -0.495500
  379         h1     14    bbb     H1    379 0.04411300   1.008000   ; qtot -0.451387
  380         h1     14    bbb     H2    380 0.04411300   1.008000   ; qtot -0.407274
  381         c3     14    bbb     C2    381 0.10137000  12.010000   ; qtot -0.305904
  382         h1     14    bbb     H3    382 0.04411300   1.008000   ; qtot -0.261791
  383         h1     14    bbb     H4    383 0.04411300   1.008000   ; qtot -0.217678
  384         c3     14    bbb     C3    384 -0.00195300  12.010000   ; qtot -0.219631
  385         h1     14    bbb     H5    385 0.05064400   1.008000   ; qtot -0.168987
  386         h1     14    bbb     H6    386 0.05064400   1.008000   ; qtot -0.118343
  387         c3     14    bbb     C4    387 -0.01612100  12.010000   ; qtot -0.134464
  388         hc     14    bbb     H7    388 0.04936100   1.008000   ; qtot -0.085103
  389         hc     14    bbb     H8    389 0.04936100   1.008000   ; qtot -0.035742
  390         c3     14    bbb     C5    390 0.11363000  12.010000   ; qtot 0.077888
  391         hc     14    bbb     H9    391 0.06265900   1.008000   ; qtot 0.140547
  392         hc     14    bbb    H10    392 0.06265900   1.008000   ; qtot 0.203206
  393         c3     14    bbb     C6    393 0.11363000  12.010000   ; qtot 0.316836
  394         hc     14    bbb    H11    394 0.06265900   1.008000   ; qtot 0.379495
  395         hc     14    bbb    H12    395 0.06265900   1.008000   ; qtot 0.442154
  396         c3     14    bbb     C7    396 0.05858200  12.010000   ; qtot 0.500736
  397         h1     14    bbb    H13    397 0.06123400   1.008000   ; qtot 0.561970
  398         h1     14    bbb    H14    398 0.06123400   1.008000   ; qtot 0.623204
  399         c3     14    bbb     C8    399 -0.72423400  12.010000   ; qtot -0.101030
  400         h1     14    bbb    H15    400 0.25637600   1.008000   ; qtot 0.155346
  401         h1     14    bbb    H16    401 0.25637600   1.008000   ; qtot 0.411722
  402         c3     14    bbb     C9    402 -0.72423400  12.010000   ; qtot -0.312512
  403         h1     14    bbb    H17    403 0.25637600   1.008000   ; qtot -0.056136
  404         h1     14    bbb    H18    404 0.25637600   1.008000   ; qtot 0.200240
  405         os     14    bbb     O1    405 -0.20025300  16.000000   ; qtot -0.000013
; residue   15 bbb rtp bbb q -0.0
  406         n3     15    bbb     N1    406 -0.59685800  14.010000   ; qtot -0.596871
  407         c3     15    bbb     C1    407 0.10137000  12.010000   ; qtot -0.495501
  408         h1     15    bbb     H1    408 0.04411300   1.008000   ; qtot -0.451388
  409         h1     15    bbb     H2    409 0.04411300   1.008000   ; qtot -0.407275
  410         c3     15    bbb     C2    410 0.10137000  12.010000   ; qtot -0.305905
  411         h1     15    bbb     H3    411 0.04411300   1.008000   ; qtot -0.261792
  412         h1     15    bbb     H4    412 0.04411300   1.008000   ; qtot -0.217679
  413         c3     15    bbb     C3    413 -0.00195300  12.010000   ; qtot -0.219632
  414         h1     15    bbb     H5    414 0.05064400   1.008000   ; qtot -0.168988
  415         h1     15    bbb     H6    415 0.05064400   1.008000   ; qtot -0.118344
  416         c3     15    bbb     C4    416 -0.01612100  12.010000   ; qtot -0.134465
  417         hc     15    bbb     H7    417 0.04936100   1.008000   ; qtot -0.085104
  418         hc     15    bbb     H8    418 0.04936100   1.008000   ; qtot -0.035743
  419         c3     15    bbb     C5    419 0.11363000  12.010000   ; qtot 0.077887
  420         hc     15    bbb     H9    420 0.06265900   1.008000   ; qtot 0.140546
  421         hc     15    bbb    H10    421 0.06265900   1.008000   ; qtot 0.203205
  422         c3     15    bbb     C6    422 0.11363000  12.010000   ; qtot 0.316835
  423         hc     15    bbb    H11    423 0.06265900   1.008000   ; qtot 0.379494
  424         hc     15    bbb    H12    424 0.06265900   1.008000   ; qtot 0.442153
  425         c3     15    bbb     C7    425 0.05858200  12.010000   ; qtot 0.500735
  426         h1     15    bbb    H13    426 0.06123400   1.008000   ; qtot 0.561969
  427         h1     15    bbb    H14    427 0.06123400   1.008000   ; qtot 0.623203
  428         c3     15    bbb     C8    428 -0.72423400  12.010000   ; qtot -0.101031
  429         h1     15    bbb    H15    429 0.25637600   1.008000   ; qtot 0.155345
  430         h1     15    bbb    H16    430 0.25637600   1.008000   ; qtot 0.411721
  431         c3     15    bbb     C9    431 -0.72423400  12.010000   ; qtot -0.312513
  432         h1     15    bbb    H17    432 0.25637600   1.008000   ; qtot -0.056137
  433         h1     15    bbb    H18    433 0.25637600   1.008000   ; qtot 0.200239
  434         os     15    bbb     O1    434 -0.20025300  16.000000   ; qtot -0.000014
; residue   16 bbb rtp bbb q -0.0
  435         n3     16    bbb     N1    435 -0.59685800  14.010000   ; qtot -0.596872
  436         c3     16    bbb     C1    436 0.10137000  12.010000   ; qtot -0.495502
  437         h1     16    bbb     H1    437 0.04411300   1.008000   ; qtot -0.451389
  438         h1     16    bbb     H2    438 0.04411300   1.008000   ; qtot -0.407276
  439         c3     16    bbb     C2    439 0.10137000  12.010000   ; qtot -0.305906
  440         h1     16    bbb     H3    440 0.04411300   1.008000   ; qtot -0.261793
  441         h1     16    bbb     H4    441 0.04411300   1.008000   ; qtot -0.217680
  442         c3     16    bbb     C3    442 -0.00195300  12.010000   ; qtot -0.219633
  443         h1     16    bbb     H5    443 0.05064400   1.008000   ; qtot -0.168989
  444         h1     16    bbb     H6    444 0.05064400   1.008000   ; qtot -0.118345
  445         c3     16    bbb     C4    445 -0.01612100  12.010000   ; qtot -0.134466
  446         hc     16    bbb     H7    446 0.04936100   1.008000   ; qtot -0.085105
  447         hc     16    bbb     H8    447 0.04936100   1.008000   ; qtot -0.035744
  448         c3     16    bbb     C5    448 0.11363000  12.010000   ; qtot 0.077886
  449         hc     16    bbb     H9    449 0.06265900   1.008000   ; qtot 0.140545
  450         hc     16    bbb    H10    450 0.06265900   1.008000   ; qtot 0.203204
  451         c3     16    bbb     C6    451 0.11363000  12.010000   ; qtot 0.316834
  452         hc     16    bbb    H11    452 0.06265900   1.008000   ; qtot 0.379493
  453         hc     16    bbb    H12    453 0.06265900   1.008000   ; qtot 0.442152
  454         c3     16    bbb     C7    454 0.05858200  12.010000   ; qtot 0.500734
  455         h1     16    bbb    H13    455 0.06123400   1.008000   ; qtot 0.561968
  456         h1     16    bbb    H14    456 0.06123400   1.008000   ; qtot 0.623202
  457         c3     16    bbb     C8    457 -0.72423400  12.010000   ; qtot -0.101032
  458         h1     16    bbb    H15    458 0.25637600   1.008000   ; qtot 0.155344
  459         h1     16    bbb    H16    459 0.25637600   1.008000   ; qtot 0.411720
  460         c3     16    bbb     C9    460 -0.72423400  12.010000   ; qtot -0.312514
  461         h1     16    bbb    H17    461 0.25637600   1.008000   ; qtot -0.056138
  462         h1     16    bbb    H18    462 0.25637600   1.008000   ; qtot 0.200238
  463         os     16    bbb     O1    463 -0.20025300  16.000000   ; qtot -0.000015
; residue   17 bbb rtp bbb q -0.0
  464         n3     17    bbb     N1    464 -0.59685800  14.010000   ; qtot -0.596873
  465         c3     17    bbb     C1    465 0.10137000  12.010000   ; qtot -0.495503
  466         h1     17    bbb     H1    466 0.04411300   1.008000   ; qtot -0.451390
  467         h1     17    bbb     H2    467 0.04411300   1.008000   ; qtot -0.407277
  468         c3     17    bbb     C2    468 0.10137000  12.010000   ; qtot -0.305907
  469         h1     17    bbb     H3    469 0.04411300   1.008000   ; qtot -0.261794
  470         h1     17    bbb     H4    470 0.04411300   1.008000   ; qtot -0.217681
  471         c3     17    bbb     C3    471 -0.00195300  12.010000   ; qtot -0.219634
  472         h1     17    bbb     H5    472 0.05064400   1.008000   ; qtot -0.168990
  473         h1     17    bbb     H6    473 0.05064400   1.008000   ; qtot -0.118346
  474         c3     17    bbb     C4    474 -0.01612100  12.010000   ; qtot -0.134467
  475         hc     17    bbb     H7    475 0.04936100   1.008000   ; qtot -0.085106
  476         hc     17    bbb     H8    476 0.04936100   1.008000   ; qtot -0.035745
  477         c3     17    bbb     C5    477 0.11363000  12.010000   ; qtot 0.077885
  478         hc     17    bbb     H9    478 0.06265900   1.008000   ; qtot 0.140544
  479         hc     17    bbb    H10    479 0.06265900   1.008000   ; qtot 0.203203
  480         c3     17    bbb     C6    480 0.11363000  12.010000   ; qtot 0.316833
  481         hc     17    bbb    H11    481 0.06265900   1.008000   ; qtot 0.379492
  482         hc     17    bbb    H12    482 0.06265900   1.008000   ; qtot 0.442151
  483         c3     17    bbb     C7    483 0.05858200  12.010000   ; qtot 0.500733
  484         h1     17    bbb    H13    484 0.06123400   1.008000   ; qtot 0.561967
  485         h1     17    bbb    H14    485 0.06123400   1.008000   ; qtot 0.623201
  486         c3     17    bbb     C8    486 -0.72423400  12.010000   ; qtot -0.101033
  487         h1     17    bbb    H15    487 0.25637600   1.008000   ; qtot 0.155343
  488         h1     17    bbb    H16    488 0.25637600   1.008000   ; qtot 0.411719
  489         c3     17    bbb     C9    489 -0.72423400  12.010000   ; qtot -0.312515
  490         h1     17    bbb    H17    490 0.25637600   1.008000   ; qtot -0.056139
  491         h1     17    bbb    H18    491 0.25637600   1.008000   ; qtot 0.200237
  492         os     17    bbb     O1    492 -0.20025300  16.000000   ; qtot -0.000016
; residue   18 bbb rtp bbb q -0.0
  493         n3     18    bbb     N1    493 -0.59685800  14.010000   ; qtot -0.596874
  494         c3     18    bbb     C1    494 0.10137000  12.010000   ; qtot -0.495504
  495         h1     18    bbb     H1    495 0.04411300   1.008000   ; qtot -0.451391
  496         h1     18    bbb     H2    496 0.04411300   1.008000   ; qtot -0.407278
  497         c3     18    bbb     C2    497 0.10137000  12.010000   ; qtot -0.305908
  498         h1     18    bbb     H3    498 0.04411300   1.008000   ; qtot -0.261795
  499         h1     18    bbb     H4    499 0.04411300   1.008000   ; qtot -0.217682
  500         c3     18    bbb     C3    500 -0.00195300  12.010000   ; qtot -0.219635
  501         h1     18    bbb     H5    501 0.05064400   1.008000   ; qtot -0.168991
  502         h1     18    bbb     H6    502 0.05064400   1.008000   ; qtot -0.118347
  503         c3     18    bbb     C4    503 -0.01612100  12.010000   ; qtot -0.134468
  504         hc     18    bbb     H7    504 0.04936100   1.008000   ; qtot -0.085107
  505         hc     18    bbb     H8    505 0.04936100   1.008000   ; qtot -0.035746
  506         c3     18    bbb     C5    506 0.11363000  12.010000   ; qtot 0.077884
  507         hc     18    bbb     H9    507 0.06265900   1.008000   ; qtot 0.140543
  508         hc     18    bbb    H10    508 0.06265900   1.008000   ; qtot 0.203202
  509         c3     18    bbb     C6    509 0.11363000  12.010000   ; qtot 0.316832
  510         hc     18    bbb    H11    510 0.06265900   1.008000   ; qtot 0.379491
  511         hc     18    bbb    H12    511 0.06265900   1.008000   ; qtot 0.442150
  512         c3     18    bbb     C7    512 0.05858200  12.010000   ; qtot 0.500732
  513         h1     18    bbb    H13    513 0.06123400   1.008000   ; qtot 0.561966
  514         h1     18    bbb    H14    514 0.06123400   1.008000   ; qtot 0.623200
  515         c3     18    bbb     C8    515 -0.72423400  12.010000   ; qtot -0.101034
  516         h1     18    bbb    H15    516 0.25637600   1.008000   ; qtot 0.155342
  517         h1     18    bbb    H16    517 0.25637600   1.008000   ; qtot 0.411718
  518         c3     18    bbb     C9    518 -0.72423400  12.010000   ; qtot -0.312516
  519         h1     18    bbb    H17    519 0.25637600   1.008000   ; qtot -0.056140
  520         h1     18    bbb    H18    520 0.25637600   1.008000   ; qtot 0.200236
  521         os     18    bbb     O1    521 -0.20025300  16.000000   ; qtot -0.000017
; residue   19 bbb rtp bbb q -0.0
  522         n3     19    bbb     N1    522 -0.59685800  14.010000   ; qtot -0.596875
  523         c3     19    bbb     C1    523 0.10137000  12.010000   ; qtot -0.495505
  524         h1     19    bbb     H1    524 0.04411300   1.008000   ; qtot -0.451392
  525         h1     19    bbb     H2    525 0.04411300   1.008000   ; qtot -0.407279
  526         c3     19    bbb     C2    526 0.10137000  12.010000   ; qtot -0.305909
  527         h1     19    bbb     H3    527 0.04411300   1.008000   ; qtot -0.261796
  528         h1     19    bbb     H4    528 0.04411300   1.008000   ; qtot -0.217683
  529         c3     19    bbb     C3    529 -0.00195300  12.010000   ; qtot -0.219636
  530         h1     19    bbb     H5    530 0.05064400   1.008000   ; qtot -0.168992
  531         h1     19    bbb     H6    531 0.05064400   1.008000   ; qtot -0.118348
  532         c3     19    bbb     C4    532 -0.01612100  12.010000   ; qtot -0.134469
  533         hc     19    bbb     H7    533 0.04936100   1.008000   ; qtot -0.085108
  534         hc     19    bbb     H8    534 0.04936100   1.008000   ; qtot -0.035747
  535         c3     19    bbb     C5    535 0.11363000  12.010000   ; qtot 0.077883
  536         hc     19    bbb     H9    536 0.06265900   1.008000   ; qtot 0.140542
  537         hc     19    bbb    H10    537 0.06265900   1.008000   ; qtot 0.203201
  538         c3     19    bbb     C6    538 0.11363000  12.010000   ; qtot 0.316831
  539         hc     19    bbb    H11    539 0.06265900   1.008000   ; qtot 0.379490
  540         hc     19    bbb    H12    540 0.06265900   1.008000   ; qtot 0.442149
  541         c3     19    bbb     C7    541 0.05858200  12.010000   ; qtot 0.500731
  542         h1     19    bbb    H13    542 0.06123400   1.008000   ; qtot 0.561965
  543         h1     19    bbb    H14    543 0.06123400   1.008000   ; qtot 0.623199
  544         c3     19    bbb     C8    544 -0.72423400  12.010000   ; qtot -0.101035
  545         h1     19    bbb    H15    545 0.25637600   1.008000   ; qtot 0.155341
  546         h1     19    bbb    H16    546 0.25637600   1.008000   ; qtot 0.411717
  547         c3     19    bbb     C9    547 -0.72423400  12.010000   ; qtot -0.312517
  548         h1     19    bbb    H17    548 0.25637600   1.008000   ; qtot -0.056141
  549         h1     19    bbb    H18    549 0.25637600   1.008000   ; qtot 0.200235
  550         os     19    bbb     O1    550 -0.20025300  16.000000   ; qtot -0.000018
; residue   20 bbb rtp bbb q -0.0
  551         n3     20    bbb     N1    551 -0.59685800  14.010000   ; qtot -0.596876
  552         c3     20    bbb     C1    552 0.10137000  12.010000   ; qtot -0.495506
  553         h1     20    bbb     H1    553 0.04411300   1.008000   ; qtot -0.451393
  554         h1     20    bbb     H2    554 0.04411300   1.008000   ; qtot -0.407280
  555         c3     20    bbb     C2    555 0.10137000  12.010000   ; qtot -0.305910
  556         h1     20    bbb     H3    556 0.04411300   1.008000   ; qtot -0.261797
  557         h1     20    bbb     H4    557 0.04411300   1.008000   ; qtot -0.217684
  558         c3     20    bbb     C3    558 -0.00195300  12.010000   ; qtot -0.219637
  559         h1     20    bbb     H5    559 0.05064400   1.008000   ; qtot -0.168993
  560         h1     20    bbb     H6    560 0.05064400   1.008000   ; qtot -0.118349
  561         c3     20    bbb     C4    561 -0.01612100  12.010000   ; qtot -0.134470
  562         hc     20    bbb     H7    562 0.04936100   1.008000   ; qtot -0.085109
  563         hc     20    bbb     H8    563 0.04936100   1.008000   ; qtot -0.035748
  564         c3     20    bbb     C5    564 0.11363000  12.010000   ; qtot 0.077882
  565         hc     20    bbb     H9    565 0.06265900   1.008000   ; qtot 0.140541
  566         hc     20    bbb    H10    566 0.06265900   1.008000   ; qtot 0.203200
  567         c3     20    bbb     C6    567 0.11363000  12.010000   ; qtot 0.316830
  568         hc     20    bbb    H11    568 0.06265900   1.008000   ; qtot 0.379489
  569         hc     20    bbb    H12    569 0.06265900   1.008000   ; qtot 0.442148
  570         c3     20    bbb     C7    570 0.05858200  12.010000   ; qtot 0.500730
  571         h1     20    bbb    H13    571 0.06123400   1.008000   ; qtot 0.561964
  572         h1     20    bbb    H14    572 0.06123400   1.008000   ; qtot 0.623198
  573         c3     20    bbb     C8    573 -0.72423400  12.010000   ; qtot -0.101036
  574         h1     20    bbb    H15    574 0.25637600   1.008000   ; qtot 0.155340
  575         h1     20    bbb    H16    575 0.25637600   1.008000   ; qtot 0.411716
  576         c3     20    bbb     C9    576 -0.72423400  12.010000   ; qtot -0.312518
  577         h1     20    bbb    H17    577 0.25637600   1.008000   ; qtot -0.056142
  578         h1     20    bbb    H18    578 0.25637600   1.008000   ; qtot 0.200234
  579         os     20    bbb     O1    579 -0.20025300  16.000000   ; qtot -0.000019
; residue   21 bbb rtp bbb q -0.0
  580         n3     21    bbb     N1    580 -0.59685800  14.010000   ; qtot -0.596877
  581         c3     21    bbb     C1    581 0.10137000  12.010000   ; qtot -0.495507
  582         h1     21    bbb     H1    582 0.04411300   1.008000   ; qtot -0.451394
  583         h1     21    bbb     H2    583 0.04411300   1.008000   ; qtot -0.407281
  584         c3     21    bbb     C2    584 0.10137000  12.010000   ; qtot -0.305911
  585         h1     21    bbb     H3    585 0.04411300   1.008000   ; qtot -0.261798
  586         h1     21    bbb     H4    586 0.04411300   1.008000   ; qtot -0.217685
  587         c3     21    bbb     C3    587 -0.00195300  12.010000   ; qtot -0.219638
  588         h1     21    bbb     H5    588 0.05064400   1.008000   ; qtot -0.168994
  589         h1     21    bbb     H6    589 0.05064400   1.008000   ; qtot -0.118350
  590         c3     21    bbb     C4    590 -0.01612100  12.010000   ; qtot -0.134471
  591         hc     21    bbb     H7    591 0.04936100   1.008000   ; qtot -0.085110
  592         hc     21    bbb     H8    592 0.04936100   1.008000   ; qtot -0.035749
  593         c3     21    bbb     C5    593 0.11363000  12.010000   ; qtot 0.077881
  594         hc     21    bbb     H9    594 0.06265900   1.008000   ; qtot 0.140540
  595         hc     21    bbb    H10    595 0.06265900   1.008000   ; qtot 0.203199
  596         c3     21    bbb     C6    596 0.11363000  12.010000   ; qtot 0.316829
  597         hc     21    bbb    H11    597 0.06265900   1.008000   ; qtot 0.379488
  598         hc     21    bbb    H12    598 0.06265900   1.008000   ; qtot 0.442147
  599         c3     21    bbb     C7    599 0.05858200  12.010000   ; qtot 0.500729
  600         h1     21    bbb    H13    600 0.06123400   1.008000   ; qtot 0.561963
  601         h1     21    bbb    H14    601 0.06123400   1.008000   ; qtot 0.623197
  602         c3     21    bbb     C8    602 -0.72423400  12.010000   ; qtot -0.101037
  603         h1     21    bbb    H15    603 0.25637600   1.008000   ; qtot 0.155339
  604         h1     21    bbb    H16    604 0.25637600   1.008000   ; qtot 0.411715
  605         c3     21    bbb     C9    605 -0.72423400  12.010000   ; qtot -0.312519
  606         h1     21    bbb    H17    606 0.25637600   1.008000   ; qtot -0.056143
  607         h1     21    bbb    H18    607 0.25637600   1.008000   ; qtot 0.200233
  608         os     21    bbb     O1    608 -0.20025300  16.000000   ; qtot -0.000020
; residue   22 bbb rtp bbb q -0.0
  609         n3     22    bbb     N1    609 -0.59685800  14.010000   ; qtot -0.596878
  610         c3     22    bbb     C1    610 0.10137000  12.010000   ; qtot -0.495508
  611         h1     22    bbb     H1    611 0.04411300   1.008000   ; qtot -0.451395
  612         h1     22    bbb     H2    612 0.04411300   1.008000   ; qtot -0.407282
  613         c3     22    bbb     C2    613 0.10137000  12.010000   ; qtot -0.305912
  614         h1     22    bbb     H3    614 0.04411300   1.008000   ; qtot -0.261799
  615         h1     22    bbb     H4    615 0.04411300   1.008000   ; qtot -0.217686
  616         c3     22    bbb     C3    616 -0.00195300  12.010000   ; qtot -0.219639
  617         h1     22    bbb     H5    617 0.05064400   1.008000   ; qtot -0.168995
  618         h1     22    bbb     H6    618 0.05064400   1.008000   ; qtot -0.118351
  619         c3     22    bbb     C4    619 -0.01612100  12.010000   ; qtot -0.134472
  620         hc     22    bbb     H7    620 0.04936100   1.008000   ; qtot -0.085111
  621         hc     22    bbb     H8    621 0.04936100   1.008000   ; qtot -0.035750
  622         c3     22    bbb     C5    622 0.11363000  12.010000   ; qtot 0.077880
  623         hc     22    bbb     H9    623 0.06265900   1.008000   ; qtot 0.140539
  624         hc     22    bbb    H10    624 0.06265900   1.008000   ; qtot 0.203198
  625         c3     22    bbb     C6    625 0.11363000  12.010000   ; qtot 0.316828
  626         hc     22    bbb    H11    626 0.06265900   1.008000   ; qtot 0.379487
  627         hc     22    bbb    H12    627 0.06265900   1.008000   ; qtot 0.442146
  628         c3     22    bbb     C7    628 0.05858200  12.010000   ; qtot 0.500728
  629         h1     22    bbb    H13    629 0.06123400   1.008000   ; qtot 0.561962
  630         h1     22    bbb    H14    630 0.06123400   1.008000   ; qtot 0.623196
  631         c3     22    bbb     C8    631 -0.72423400  12.010000   ; qtot -0.101038
  632         h1     22    bbb    H15    632 0.25637600   1.008000   ; qtot 0.155338
  633         h1     22    bbb    H16    633 0.25637600   1.008000   ; qtot 0.411714
  634         c3     22    bbb     C9    634 -0.72423400  12.010000   ; qtot -0.312520
  635         h1     22    bbb    H17    635 0.25637600   1.008000   ; qtot -0.056144
  636         h1     22    bbb    H18    636 0.25637600   1.008000   ; qtot 0.200232
  637         os     22    bbb     O1    637 -0.20025300  16.000000   ; qtot -0.000021
; residue   23 bbb rtp bbb q -0.0
  638         n3     23    bbb     N1    638 -0.59685800  14.010000   ; qtot -0.596879
  639         c3     23    bbb     C1    639 0.10137000  12.010000   ; qtot -0.495509
  640         h1     23    bbb     H1    640 0.04411300   1.008000   ; qtot -0.451396
  641         h1     23    bbb     H2    641 0.04411300   1.008000   ; qtot -0.407283
  642         c3     23    bbb     C2    642 0.10137000  12.010000   ; qtot -0.305913
  643         h1     23    bbb     H3    643 0.04411300   1.008000   ; qtot -0.261800
  644         h1     23    bbb     H4    644 0.04411300   1.008000   ; qtot -0.217687
  645         c3     23    bbb     C3    645 -0.00195300  12.010000   ; qtot -0.219640
  646         h1     23    bbb     H5    646 0.05064400   1.008000   ; qtot -0.168996
  647         h1     23    bbb     H6    647 0.05064400   1.008000   ; qtot -0.118352
  648         c3     23    bbb     C4    648 -0.01612100  12.010000   ; qtot -0.134473
  649         hc     23    bbb     H7    649 0.04936100   1.008000   ; qtot -0.085112
  650         hc     23    bbb     H8    650 0.04936100   1.008000   ; qtot -0.035751
  651         c3     23    bbb     C5    651 0.11363000  12.010000   ; qtot 0.077879
  652         hc     23    bbb     H9    652 0.06265900   1.008000   ; qtot 0.140538
  653         hc     23    bbb    H10    653 0.06265900   1.008000   ; qtot 0.203197
  654         c3     23    bbb     C6    654 0.11363000  12.010000   ; qtot 0.316827
  655         hc     23    bbb    H11    655 0.06265900   1.008000   ; qtot 0.379486
  656         hc     23    bbb    H12    656 0.06265900   1.008000   ; qtot 0.442145
  657         c3     23    bbb     C7    657 0.05858200  12.010000   ; qtot 0.500727
  658         h1     23    bbb    H13    658 0.06123400   1.008000   ; qtot 0.561961
  659         h1     23    bbb    H14    659 0.06123400   1.008000   ; qtot 0.623195
  660         c3     23    bbb     C8    660 -0.72423400  12.010000   ; qtot -0.101039
  661         h1     23    bbb    H15    661 0.25637600   1.008000   ; qtot 0.155337
  662         h1     23    bbb    H16    662 0.25637600   1.008000   ; qtot 0.411713
  663         c3     23    bbb     C9    663 -0.72423400  12.010000   ; qtot -0.312521
  664         h1     23    bbb    H17    664 0.25637600   1.008000   ; qtot -0.056145
  665         h1     23    bbb    H18    665 0.25637600   1.008000   ; qtot 0.200231
  666         os     23    bbb     O1    666 -0.20025300  16.000000   ; qtot -0.000022
; residue   24 bbb rtp bbb q -0.0
  667         n3     24    bbb     N1    667 -0.59685800  14.010000   ; qtot -0.596880
  668         c3     24    bbb     C1    668 0.10137000  12.010000   ; qtot -0.495510
  669         h1     24    bbb     H1    669 0.04411300   1.008000   ; qtot -0.451397
  670         h1     24    bbb     H2    670 0.04411300   1.008000   ; qtot -0.407284
  671         c3     24    bbb     C2    671 0.10137000  12.010000   ; qtot -0.305914
  672         h1     24    bbb     H3    672 0.04411300   1.008000   ; qtot -0.261801
  673         h1     24    bbb     H4    673 0.04411300   1.008000   ; qtot -0.217688
  674         c3     24    bbb     C3    674 -0.00195300  12.010000   ; qtot -0.219641
  675         h1     24    bbb     H5    675 0.05064400   1.008000   ; qtot -0.168997
  676         h1     24    bbb     H6    676 0.05064400   1.008000   ; qtot -0.118353
  677         c3     24    bbb     C4    677 -0.01612100  12.010000   ; qtot -0.134474
  678         hc     24    bbb     H7    678 0.04936100   1.008000   ; qtot -0.085113
  679         hc     24    bbb     H8    679 0.04936100   1.008000   ; qtot -0.035752
  680         c3     24    bbb     C5    680 0.11363000  12.010000   ; qtot 0.077878
  681         hc     24    bbb     H9    681 0.06265900   1.008000   ; qtot 0.140537
  682         hc     24    bbb    H10    682 0.06265900   1.008000   ; qtot 0.203196
  683         c3     24    bbb     C6    683 0.11363000  12.010000   ; qtot 0.316826
  684         hc     24    bbb    H11    684 0.06265900   1.008000   ; qtot 0.379485
  685         hc     24    bbb    H12    685 0.06265900   1.008000   ; qtot 0.442144
  686         c3     24    bbb     C7    686 0.05858200  12.010000   ; qtot 0.500726
  687         h1     24    bbb    H13    687 0.06123400   1.008000   ; qtot 0.561960
  688         h1     24    bbb    H14    688 0.06123400   1.008000   ; qtot 0.623194
  689         c3     24    bbb     C8    689 -0.72423400  12.010000   ; qtot -0.101040
  690         h1     24    bbb    H15    690 0.25637600   1.008000   ; qtot 0.155336
  691         h1     24    bbb    H16    691 0.25637600   1.008000   ; qtot 0.411712
  692         c3     24    bbb     C9    692 -0.72423400  12.010000   ; qtot -0.312522
  693         h1     24    bbb    H17    693 0.25637600   1.008000   ; qtot -0.056146
  694         h1     24    bbb    H18    694 0.25637600   1.008000   ; qtot 0.200230
  695         os     24    bbb     O1    695 -0.20025300  16.000000   ; qtot -0.000023
; residue   25 bbb rtp bbb q -0.0
  696         n3     25    bbb     N1    696 -0.59685800  14.010000   ; qtot -0.596881
  697         c3     25    bbb     C1    697 0.10137000  12.010000   ; qtot -0.495511
  698         h1     25    bbb     H1    698 0.04411300   1.008000   ; qtot -0.451398
  699         h1     25    bbb     H2    699 0.04411300   1.008000   ; qtot -0.407285
  700         c3     25    bbb     C2    700 0.10137000  12.010000   ; qtot -0.305915
  701         h1     25    bbb     H3    701 0.04411300   1.008000   ; qtot -0.261802
  702         h1     25    bbb     H4    702 0.04411300   1.008000   ; qtot -0.217689
  703         c3     25    bbb     C3    703 -0.00195300  12.010000   ; qtot -0.219642
  704         h1     25    bbb     H5    704 0.05064400   1.008000   ; qtot -0.168998
  705         h1     25    bbb     H6    705 0.05064400   1.008000   ; qtot -0.118354
  706         c3     25    bbb     C4    706 -0.01612100  12.010000   ; qtot -0.134475
  707         hc     25    bbb     H7    707 0.04936100   1.008000   ; qtot -0.085114
  708         hc     25    bbb     H8    708 0.04936100   1.008000   ; qtot -0.035753
  709         c3     25    bbb     C5    709 0.11363000  12.010000   ; qtot 0.077877
  710         hc     25    bbb     H9    710 0.06265900   1.008000   ; qtot 0.140536
  711         hc     25    bbb    H10    711 0.06265900   1.008000   ; qtot 0.203195
  712         c3     25    bbb     C6    712 0.11363000  12.010000   ; qtot 0.316825
  713         hc     25    bbb    H11    713 0.06265900   1.008000   ; qtot 0.379484
  714         hc     25    bbb    H12    714 0.06265900   1.008000   ; qtot 0.442143
  715         c3     25    bbb     C7    715 0.05858200  12.010000   ; qtot 0.500725
  716         h1     25    bbb    H13    716 0.06123400   1.008000   ; qtot 0.561959
  717         h1     25    bbb    H14    717 0.06123400   1.008000   ; qtot 0.623193
  718         c3     25    bbb     C8    718 -0.72423400  12.010000   ; qtot -0.101041
  719         h1     25    bbb    H15    719 0.25637600   1.008000   ; qtot 0.155335
  720         h1     25    bbb    H16    720 0.25637600   1.008000   ; qtot 0.411711
  721         c3     25    bbb     C9    721 -0.72423400  12.010000   ; qtot -0.312523
  722         h1     25    bbb    H17    722 0.25637600   1.008000   ; qtot -0.056147
  723         h1     25    bbb    H18    723 0.25637600   1.008000   ; qtot 0.200229
  724         os     25    bbb     O1    724 -0.20025300  16.000000   ; qtot -0.000024
; residue   26 bbb rtp bbb q -0.0
  725         n3     26    bbb     N1    725 -0.59685800  14.010000   ; qtot -0.596882
  726         c3     26    bbb     C1    726 0.10137000  12.010000   ; qtot -0.495512
  727         h1     26    bbb     H1    727 0.04411300   1.008000   ; qtot -0.451399
  728         h1     26    bbb     H2    728 0.04411300   1.008000   ; qtot -0.407286
  729         c3     26    bbb     C2    729 0.10137000  12.010000   ; qtot -0.305916
  730         h1     26    bbb     H3    730 0.04411300   1.008000   ; qtot -0.261803
  731         h1     26    bbb     H4    731 0.04411300   1.008000   ; qtot -0.217690
  732         c3     26    bbb     C3    732 -0.00195300  12.010000   ; qtot -0.219643
  733         h1     26    bbb     H5    733 0.05064400   1.008000   ; qtot -0.168999
  734         h1     26    bbb     H6    734 0.05064400   1.008000   ; qtot -0.118355
  735         c3     26    bbb     C4    735 -0.01612100  12.010000   ; qtot -0.134476
  736         hc     26    bbb     H7    736 0.04936100   1.008000   ; qtot -0.085115
  737         hc     26    bbb     H8    737 0.04936100   1.008000   ; qtot -0.035754
  738         c3     26    bbb     C5    738 0.11363000  12.010000   ; qtot 0.077876
  739         hc     26    bbb     H9    739 0.06265900   1.008000   ; qtot 0.140535
  740         hc     26    bbb    H10    740 0.06265900   1.008000   ; qtot 0.203194
  741         c3     26    bbb     C6    741 0.11363000  12.010000   ; qtot 0.316824
  742         hc     26    bbb    H11    742 0.06265900   1.008000   ; qtot 0.379483
  743         hc     26    bbb    H12    743 0.06265900   1.008000   ; qtot 0.442142
  744         c3     26    bbb     C7    744 0.05858200  12.010000   ; qtot 0.500724
  745         h1     26    bbb    H13    745 0.06123400   1.008000   ; qtot 0.561958
  746         h1     26    bbb    H14    746 0.06123400   1.008000   ; qtot 0.623192
  747         c3     26    bbb     C8    747 -0.72423400  12.010000   ; qtot -0.101042
  748         h1     26    bbb    H15    748 0.25637600   1.008000   ; qtot 0.155334
  749         h1     26    bbb    H16    749 0.25637600   1.008000   ; qtot 0.411710
  750         c3     26    bbb     C9    750 -0.72423400  12.010000   ; qtot -0.312524
  751         h1     26    bbb    H17    751 0.25637600   1.008000   ; qtot -0.056148
  752         h1     26    bbb    H18    752 0.25637600   1.008000   ; qtot 0.200228
  753         os     26    bbb     O1    753 -0.20025300  16.000000   ; qtot -0.000025
; residue   27 bbb rtp bbb q -0.0
  754         n3     27    bbb     N1    754 -0.59685800  14.010000   ; qtot -0.596883
  755         c3     27    bbb     C1    755 0.10137000  12.010000   ; qtot -0.495513
  756         h1     27    bbb     H1    756 0.04411300   1.008000   ; qtot -0.451400
  757         h1     27    bbb     H2    757 0.04411300   1.008000   ; qtot -0.407287
  758         c3     27    bbb     C2    758 0.10137000  12.010000   ; qtot -0.305917
  759         h1     27    bbb     H3    759 0.04411300   1.008000   ; qtot -0.261804
  760         h1     27    bbb     H4    760 0.04411300   1.008000   ; qtot -0.217691
  761         c3     27    bbb     C3    761 -0.00195300  12.010000   ; qtot -0.219644
  762         h1     27    bbb     H5    762 0.05064400   1.008000   ; qtot -0.169000
  763         h1     27    bbb     H6    763 0.05064400   1.008000   ; qtot -0.118356
  764         c3     27    bbb     C4    764 -0.01612100  12.010000   ; qtot -0.134477
  765         hc     27    bbb     H7    765 0.04936100   1.008000   ; qtot -0.085116
  766         hc     27    bbb     H8    766 0.04936100   1.008000   ; qtot -0.035755
  767         c3     27    bbb     C5    767 0.11363000  12.010000   ; qtot 0.077875
  768         hc     27    bbb     H9    768 0.06265900   1.008000   ; qtot 0.140534
  769         hc     27    bbb    H10    769 0.06265900   1.008000   ; qtot 0.203193
  770         c3     27    bbb     C6    770 0.11363000  12.010000   ; qtot 0.316823
  771         hc     27    bbb    H11    771 0.06265900   1.008000   ; qtot 0.379482
  772         hc     27    bbb    H12    772 0.06265900   1.008000   ; qtot 0.442141
  773         c3     27    bbb     C7    773 0.05858200  12.010000   ; qtot 0.500723
  774         h1     27    bbb    H13    774 0.06123400   1.008000   ; qtot 0.561957
  775         h1     27    bbb    H14    775 0.06123400   1.008000   ; qtot 0.623191
  776         c3     27    bbb     C8    776 -0.72423400  12.010000   ; qtot -0.101043
  777         h1     27    bbb    H15    777 0.25637600   1.008000   ; qtot 0.155333
  778         h1     27    bbb    H16    778 0.25637600   1.008000   ; qtot 0.411709
  779         c3     27    bbb     C9    779 -0.72423400  12.010000   ; qtot -0.312525
  780         h1     27    bbb    H17    780 0.25637600   1.008000   ; qtot -0.056149
  781         h1     27    bbb    H18    781 0.25637600   1.008000   ; qtot 0.200227
  782         os     27    bbb     O1    782 -0.20025300  16.000000   ; qtot -0.000026
; residue   28 bbb rtp bbb q -0.0
  783         n3     28    bbb     N1    783 -0.59685800  14.010000   ; qtot -0.596884
  784         c3     28    bbb     C1    784 0.10137000  12.010000   ; qtot -0.495514
  785         h1     28    bbb     H1    785 0.04411300   1.008000   ; qtot -0.451401
  786         h1     28    bbb     H2    786 0.04411300   1.008000   ; qtot -0.407288
  787         c3     28    bbb     C2    787 0.10137000  12.010000   ; qtot -0.305918
  788         h1     28    bbb     H3    788 0.04411300   1.008000   ; qtot -0.261805
  789         h1     28    bbb     H4    789 0.04411300   1.008000   ; qtot -0.217692
  790         c3     28    bbb     C3    790 -0.00195300  12.010000   ; qtot -0.219645
  791         h1     28    bbb     H5    791 0.05064400   1.008000   ; qtot -0.169001
  792         h1     28    bbb     H6    792 0.05064400   1.008000   ; qtot -0.118357
  793         c3     28    bbb     C4    793 -0.01612100  12.010000   ; qtot -0.134478
  794         hc     28    bbb     H7    794 0.04936100   1.008000   ; qtot -0.085117
  795         hc     28    bbb     H8    795 0.04936100   1.008000   ; qtot -0.035756
  796         c3     28    bbb     C5    796 0.11363000  12.010000   ; qtot 0.077874
  797         hc     28    bbb     H9    797 0.06265900   1.008000   ; qtot 0.140533
  798         hc     28    bbb    H10    798 0.06265900   1.008000   ; qtot 0.203192
  799         c3     28    bbb     C6    799 0.11363000  12.010000   ; qtot 0.316822
  800         hc     28    bbb    H11    800 0.06265900   1.008000   ; qtot 0.379481
  801         hc     28    bbb    H12    801 0.06265900   1.008000   ; qtot 0.442140
  802         c3     28    bbb     C7    802 0.05858200  12.010000   ; qtot 0.500722
  803         h1     28    bbb    H13    803 0.06123400   1.008000   ; qtot 0.561956
  804         h1     28    bbb    H14    804 0.06123400   1.008000   ; qtot 0.623190
  805         c3     28    bbb     C8    805 -0.72423400  12.010000   ; qtot -0.101044
  806         h1     28    bbb    H15    806 0.25637600   1.008000   ; qtot 0.155332
  807         h1     28    bbb    H16    807 0.25637600   1.008000   ; qtot 0.411708
  808         c3     28    bbb     C9    808 -0.72423400  12.010000   ; qtot -0.312526
  809         h1     28    bbb    H17    809 0.25637600   1.008000   ; qtot -0.056150
  810         h1     28    bbb    H18    810 0.25637600   1.008000   ; qtot 0.200226
  811         os     28    bbb     O1    811 -0.20025300  16.000000   ; qtot -0.000027
; residue   29 bbb rtp bbb q -0.0
  812         n3     29    bbb     N1    812 -0.59685800  14.010000   ; qtot -0.596885
  813         c3     29    bbb     C1    813 0.10137000  12.010000   ; qtot -0.495515
  814         h1     29    bbb     H1    814 0.04411300   1.008000   ; qtot -0.451402
  815         h1     29    bbb     H2    815 0.04411300   1.008000   ; qtot -0.407289
  816         c3     29    bbb     C2    816 0.10137000  12.010000   ; qtot -0.305919
  817         h1     29    bbb     H3    817 0.04411300   1.008000   ; qtot -0.261806
  818         h1     29    bbb     H4    818 0.04411300   1.008000   ; qtot -0.217693
  819         c3     29    bbb     C3    819 -0.00195300  12.010000   ; qtot -0.219646
  820         h1     29    bbb     H5    820 0.05064400   1.008000   ; qtot -0.169002
  821         h1     29    bbb     H6    821 0.05064400   1.008000   ; qtot -0.118358
  822         c3     29    bbb     C4    822 -0.01612100  12.010000   ; qtot -0.134479
  823         hc     29    bbb     H7    823 0.04936100   1.008000   ; qtot -0.085118
  824         hc     29    bbb     H8    824 0.04936100   1.008000   ; qtot -0.035757
  825         c3     29    bbb     C5    825 0.11363000  12.010000   ; qtot 0.077873
  826         hc     29    bbb     H9    826 0.06265900   1.008000   ; qtot 0.140532
  827         hc     29    bbb    H10    827 0.06265900   1.008000   ; qtot 0.203191
  828         c3     29    bbb     C6    828 0.11363000  12.010000   ; qtot 0.316821
  829         hc     29    bbb    H11    829 0.06265900   1.008000   ; qtot 0.379480
  830         hc     29    bbb    H12    830 0.06265900   1.008000   ; qtot 0.442139
  831         c3     29    bbb     C7    831 0.05858200  12.010000   ; qtot 0.500721
  832         h1     29    bbb    H13    832 0.06123400   1.008000   ; qtot 0.561955
  833         h1     29    bbb    H14    833 0.06123400   1.008000   ; qtot 0.623189
  834         c3     29    bbb     C8    834 -0.72423400  12.010000   ; qtot -0.101045
  835         h1     29    bbb    H15    835 0.25637600   1.008000   ; qtot 0.155331
  836         h1     29    bbb    H16    836 0.25637600   1.008000   ; qtot 0.411707
  837         c3     29    bbb     C9    837 -0.72423400  12.010000   ; qtot -0.312527
  838         h1     29    bbb    H17    838 0.25637600   1.008000   ; qtot -0.056151
  839         h1     29    bbb    H18    839 0.25637600   1.008000   ; qtot 0.200225
  840         os     29    bbb     O1    840 -0.20025300  16.000000   ; qtot -0.000028
; residue   30 bbb rtp bbb q -0.0
  841         n3     30    bbb     N1    841 -0.59685800  14.010000   ; qtot -0.596886
  842         c3     30    bbb     C1    842 0.10137000  12.010000   ; qtot -0.495516
  843         h1     30    bbb     H1    843 0.04411300   1.008000   ; qtot -0.451403
  844         h1     30    bbb     H2    844 0.04411300   1.008000   ; qtot -0.407290
  845         c3     30    bbb     C2    845 0.10137000  12.010000   ; qtot -0.305920
  846         h1     30    bbb     H3    846 0.04411300   1.008000   ; qtot -0.261807
  847         h1     30    bbb     H4    847 0.04411300   1.008000   ; qtot -0.217694
  848         c3     30    bbb     C3    848 -0.00195300  12.010000   ; qtot -0.219647
  849         h1     30    bbb     H5    849 0.05064400   1.008000   ; qtot -0.169003
  850         h1     30    bbb     H6    850 0.05064400   1.008000   ; qtot -0.118359
  851         c3     30    bbb     C4    851 -0.01612100  12.010000   ; qtot -0.134480
  852         hc     30    bbb     H7    852 0.04936100   1.008000   ; qtot -0.085119
  853         hc     30    bbb     H8    853 0.04936100   1.008000   ; qtot -0.035758
  854         c3     30    bbb     C5    854 0.11363000  12.010000   ; qtot 0.077872
  855         hc     30    bbb     H9    855 0.06265900   1.008000   ; qtot 0.140531
  856         hc     30    bbb    H10    856 0.06265900   1.008000   ; qtot 0.203190
  857         c3     30    bbb     C6    857 0.11363000  12.010000   ; qtot 0.316820
  858         hc     30    bbb    H11    858 0.06265900   1.008000   ; qtot 0.379479
  859         hc     30    bbb    H12    859 0.06265900   1.008000   ; qtot 0.442138
  860         c3     30    bbb     C7    860 0.05858200  12.010000   ; qtot 0.500720
  861         h1     30    bbb    H13    861 0.06123400   1.008000   ; qtot 0.561954
  862         h1     30    bbb    H14    862 0.06123400   1.008000   ; qtot 0.623188
  863         c3     30    bbb     C8    863 -0.72423400  12.010000   ; qtot -0.101046
  864         h1     30    bbb    H15    864 0.25637600   1.008000   ; qtot 0.155330
  865         h1     30    bbb    H16    865 0.25637600   1.008000   ; qtot 0.411706
  866         c3     30    bbb     C9    866 -0.72423400  12.010000   ; qtot -0.312528
  867         h1     30    bbb    H17    867 0.25637600   1.008000   ; qtot -0.056152
  868         h1     30    bbb    H18    868 0.25637600   1.008000   ; qtot 0.200224
  869         os     30    bbb     O1    869 -0.20025300  16.000000   ; qtot -0.000029
; residue   31 bbb rtp bbb q -0.0
  870         n3     31    bbb     N1    870 -0.59685800  14.010000   ; qtot -0.596887
  871         c3     31    bbb     C1    871 0.10137000  12.010000   ; qtot -0.495517
  872         h1     31    bbb     H1    872 0.04411300   1.008000   ; qtot -0.451404
  873         h1     31    bbb     H2    873 0.04411300   1.008000   ; qtot -0.407291
  874         c3     31    bbb     C2    874 0.10137000  12.010000   ; qtot -0.305921
  875         h1     31    bbb     H3    875 0.04411300   1.008000   ; qtot -0.261808
  876         h1     31    bbb     H4    876 0.04411300   1.008000   ; qtot -0.217695
  877         c3     31    bbb     C3    877 -0.00195300  12.010000   ; qtot -0.219648
  878         h1     31    bbb     H5    878 0.05064400   1.008000   ; qtot -0.169004
  879         h1     31    bbb     H6    879 0.05064400   1.008000   ; qtot -0.118360
  880         c3     31    bbb     C4    880 -0.01612100  12.010000   ; qtot -0.134481
  881         hc     31    bbb     H7    881 0.04936100   1.008000   ; qtot -0.085120
  882         hc     31    bbb     H8    882 0.04936100   1.008000   ; qtot -0.035759
  883         c3     31    bbb     C5    883 0.11363000  12.010000   ; qtot 0.077871
  884         hc     31    bbb     H9    884 0.06265900   1.008000   ; qtot 0.140530
  885         hc     31    bbb    H10    885 0.06265900   1.008000   ; qtot 0.203189
  886         c3     31    bbb     C6    886 0.11363000  12.010000   ; qtot 0.316819
  887         hc     31    bbb    H11    887 0.06265900   1.008000   ; qtot 0.379478
  888         hc     31    bbb    H12    888 0.06265900   1.008000   ; qtot 0.442137
  889         c3     31    bbb     C7    889 0.05858200  12.010000   ; qtot 0.500719
  890         h1     31    bbb    H13    890 0.06123400   1.008000   ; qtot 0.561953
  891         h1     31    bbb    H14    891 0.06123400   1.008000   ; qtot 0.623187
  892         c3     31    bbb     C8    892 -0.72423400  12.010000   ; qtot -0.101047
  893         h1     31    bbb    H15    893 0.25637600   1.008000   ; qtot 0.155329
  894         h1     31    bbb    H16    894 0.25637600   1.008000   ; qtot 0.411705
  895         c3     31    bbb     C9    895 -0.72423400  12.010000   ; qtot -0.312529
  896         h1     31    bbb    H17    896 0.25637600   1.008000   ; qtot -0.056153
  897         h1     31    bbb    H18    897 0.25637600   1.008000   ; qtot 0.200223
  898         os     31    bbb     O1    898 -0.20025300  16.000000   ; qtot -0.000030
; residue   32 bbb rtp bbb q -0.0
  899         n3     32    bbb     N1    899 -0.59685800  14.010000   ; qtot -0.596888
  900         c3     32    bbb     C1    900 0.10137000  12.010000   ; qtot -0.495518
  901         h1     32    bbb     H1    901 0.04411300   1.008000   ; qtot -0.451405
  902         h1     32    bbb     H2    902 0.04411300   1.008000   ; qtot -0.407292
  903         c3     32    bbb     C2    903 0.10137000  12.010000   ; qtot -0.305922
  904         h1     32    bbb     H3    904 0.04411300   1.008000   ; qtot -0.261809
  905         h1     32    bbb     H4    905 0.04411300   1.008000   ; qtot -0.217696
  906         c3     32    bbb     C3    906 -0.00195300  12.010000   ; qtot -0.219649
  907         h1     32    bbb     H5    907 0.05064400   1.008000   ; qtot -0.169005
  908         h1     32    bbb     H6    908 0.05064400   1.008000   ; qtot -0.118361
  909         c3     32    bbb     C4    909 -0.01612100  12.010000   ; qtot -0.134482
  910         hc     32    bbb     H7    910 0.04936100   1.008000   ; qtot -0.085121
  911         hc     32    bbb     H8    911 0.04936100   1.008000   ; qtot -0.035760
  912         c3     32    bbb     C5    912 0.11363000  12.010000   ; qtot 0.077870
  913         hc     32    bbb     H9    913 0.06265900   1.008000   ; qtot 0.140529
  914         hc     32    bbb    H10    914 0.06265900   1.008000   ; qtot 0.203188
  915         c3     32    bbb     C6    915 0.11363000  12.010000   ; qtot 0.316818
  916         hc     32    bbb    H11    916 0.06265900   1.008000   ; qtot 0.379477
  917         hc     32    bbb    H12    917 0.06265900   1.008000   ; qtot 0.442136
  918         c3     32    bbb     C7    918 0.05858200  12.010000   ; qtot 0.500718
  919         h1     32    bbb    H13    919 0.06123400   1.008000   ; qtot 0.561952
  920         h1     32    bbb    H14    920 0.06123400   1.008000   ; qtot 0.623186
  921         c3     32    bbb     C8    921 -0.72423400  12.010000   ; qtot -0.101048
  922         h1     32    bbb    H15    922 0.25637600   1.008000   ; qtot 0.155328
  923         h1     32    bbb    H16    923 0.25637600   1.008000   ; qtot 0.411704
  924         c3     32    bbb     C9    924 -0.72423400  12.010000   ; qtot -0.312530
  925         h1     32    bbb    H17    925 0.25637600   1.008000   ; qtot -0.056154
  926         h1     32    bbb    H18    926 0.25637600   1.008000   ; qtot 0.200222
  927         os     32    bbb     O1    927 -0.20025300  16.000000   ; qtot -0.000031
; residue   33 bbb rtp bbb q -0.0
  928         n3     33    bbb     N1    928 -0.59685800  14.010000   ; qtot -0.596889
  929         c3     33    bbb     C1    929 0.10137000  12.010000   ; qtot -0.495519
  930         h1     33    bbb     H1    930 0.04411300   1.008000   ; qtot -0.451406
  931         h1     33    bbb     H2    931 0.04411300   1.008000   ; qtot -0.407293
  932         c3     33    bbb     C2    932 0.10137000  12.010000   ; qtot -0.305923
  933         h1     33    bbb     H3    933 0.04411300   1.008000   ; qtot -0.261810
  934         h1     33    bbb     H4    934 0.04411300   1.008000   ; qtot -0.217697
  935         c3     33    bbb     C3    935 -0.00195300  12.010000   ; qtot -0.219650
  936         h1     33    bbb     H5    936 0.05064400   1.008000   ; qtot -0.169006
  937         h1     33    bbb     H6    937 0.05064400   1.008000   ; qtot -0.118362
  938         c3     33    bbb     C4    938 -0.01612100  12.010000   ; qtot -0.134483
  939         hc     33    bbb     H7    939 0.04936100   1.008000   ; qtot -0.085122
  940         hc     33    bbb     H8    940 0.04936100   1.008000   ; qtot -0.035761
  941         c3     33    bbb     C5    941 0.11363000  12.010000   ; qtot 0.077869
  942         hc     33    bbb     H9    942 0.06265900   1.008000   ; qtot 0.140528
  943         hc     33    bbb    H10    943 0.06265900   1.008000   ; qtot 0.203187
  944         c3     33    bbb     C6    944 0.11363000  12.010000   ; qtot 0.316817
  945         hc     33    bbb    H11    945 0.06265900   1.008000   ; qtot 0.379476
  946         hc     33    bbb    H12    946 0.06265900   1.008000   ; qtot 0.442135
  947         c3     33    bbb     C7    947 0.05858200  12.010000   ; qtot 0.500717
  948         h1     33    bbb    H13    948 0.06123400   1.008000   ; qtot 0.561951
  949         h1     33    bbb    H14    949 0.06123400   1.008000   ; qtot 0.623185
  950         c3     33    bbb     C8    950 -0.72423400  12.010000   ; qtot -0.101049
  951         h1     33    bbb    H15    951 0.25637600   1.008000   ; qtot 0.155327
  952         h1     33    bbb    H16    952 0.25637600   1.008000   ; qtot 0.411703
  953         c3     33    bbb     C9    953 -0.72423400  12.010000   ; qtot -0.312531
  954         h1     33    bbb    H17    954 0.25637600   1.008000   ; qtot -0.056155
  955         h1     33    bbb    H18    955 0.25637600   1.008000   ; qtot 0.200221
  956         os     33    bbb     O1    956 -0.20025300  16.000000   ; qtot -0.000032
; residue   34 bbb rtp bbb q -0.0
  957         n3     34    bbb     N1    957 -0.59685800  14.010000   ; qtot -0.596890
  958         c3     34    bbb     C1    958 0.10137000  12.010000   ; qtot -0.495520
  959         h1     34    bbb     H1    959 0.04411300   1.008000   ; qtot -0.451407
  960         h1     34    bbb     H2    960 0.04411300   1.008000   ; qtot -0.407294
  961         c3     34    bbb     C2    961 0.10137000  12.010000   ; qtot -0.305924
  962         h1     34    bbb     H3    962 0.04411300   1.008000   ; qtot -0.261811
  963         h1     34    bbb     H4    963 0.04411300   1.008000   ; qtot -0.217698
  964         c3     34    bbb     C3    964 -0.00195300  12.010000   ; qtot -0.219651
  965         h1     34    bbb     H5    965 0.05064400   1.008000   ; qtot -0.169007
  966         h1     34    bbb     H6    966 0.05064400   1.008000   ; qtot -0.118363
  967         c3     34    bbb     C4    967 -0.01612100  12.010000   ; qtot -0.134484
  968         hc     34    bbb     H7    968 0.04936100   1.008000   ; qtot -0.085123
  969         hc     34    bbb     H8    969 0.04936100   1.008000   ; qtot -0.035762
  970         c3     34    bbb     C5    970 0.11363000  12.010000   ; qtot 0.077868
  971         hc     34    bbb     H9    971 0.06265900   1.008000   ; qtot 0.140527
  972         hc     34    bbb    H10    972 0.06265900   1.008000   ; qtot 0.203186
  973         c3     34    bbb     C6    973 0.11363000  12.010000   ; qtot 0.316816
  974         hc     34    bbb    H11    974 0.06265900   1.008000   ; qtot 0.379475
  975         hc     34    bbb    H12    975 0.06265900   1.008000   ; qtot 0.442134
  976         c3     34    bbb     C7    976 0.05858200  12.010000   ; qtot 0.500716
  977         h1     34    bbb    H13    977 0.06123400   1.008000   ; qtot 0.561950
  978         h1     34    bbb    H14    978 0.06123400   1.008000   ; qtot 0.623184
  979         c3     34    bbb     C8    979 -0.72423400  12.010000   ; qtot -0.101050
  980         h1     34    bbb    H15    980 0.25637600   1.008000   ; qtot 0.155326
  981         h1     34    bbb    H16    981 0.25637600   1.008000   ; qtot 0.411702
  982         c3     34    bbb     C9    982 -0.72423400  12.010000   ; qtot -0.312532
  983         h1     34    bbb    H17    983 0.25637600   1.008000   ; qtot -0.056156
  984         h1     34    bbb    H18    984 0.25637600   1.008000   ; qtot 0.200220
  985         os     34    bbb     O1    985 -0.20025300  16.000000   ; qtot -0.000033
; residue   35 bbb rtp bbb q -0.0
  986         n3     35    bbb     N1    986 -0.59685800  14.010000   ; qtot -0.596891
  987         c3     35    bbb     C1    987 0.10137000  12.010000   ; qtot -0.495521
  988         h1     35    bbb     H1    988 0.04411300   1.008000   ; qtot -0.451408
  989         h1     35    bbb     H2    989 0.04411300   1.008000   ; qtot -0.407295
  990         c3     35    bbb     C2    990 0.10137000  12.010000   ; qtot -0.305925
  991         h1     35    bbb     H3    991 0.04411300   1.008000   ; qtot -0.261812
  992         h1     35    bbb     H4    992 0.04411300   1.008000   ; qtot -0.217699
  993         c3     35    bbb     C3    993 -0.00195300  12.010000   ; qtot -0.219652
  994         h1     35    bbb     H5    994 0.05064400   1.008000   ; qtot -0.169008
  995         h1     35    bbb     H6    995 0.05064400   1.008000   ; qtot -0.118364
  996         c3     35    bbb     C4    996 -0.01612100  12.010000   ; qtot -0.134485
  997         hc     35    bbb     H7    997 0.04936100   1.008000   ; qtot -0.085124
  998         hc     35    bbb     H8    998 0.04936100   1.008000   ; qtot -0.035763
  999         c3     35    bbb     C5    999 0.11363000  12.010000   ; qtot 0.077867
 1000         hc     35    bbb     H9   1000 0.06265900   1.008000   ; qtot 0.140526
 1001         hc     35    bbb    H10   1001 0.06265900   1.008000   ; qtot 0.203185
 1002         c3     35    bbb     C6   1002 0.11363000  12.010000   ; qtot 0.316815
 1003         hc     35    bbb    H11   1003 0.06265900   1.008000   ; qtot 0.379474
 1004         hc     35    bbb    H12   1004 0.06265900   1.008000   ; qtot 0.442133
 1005         c3     35    bbb     C7   1005 0.05858200  12.010000   ; qtot 0.500715
 1006         h1     35    bbb    H13   1006 0.06123400   1.008000   ; qtot 0.561949
 1007         h1     35    bbb    H14   1007 0.06123400   1.008000   ; qtot 0.623183
 1008         c3     35    bbb     C8   1008 -0.72423400  12.010000   ; qtot -0.101051
 1009         h1     35    bbb    H15   1009 0.25637600   1.008000   ; qtot 0.155325
 1010         h1     35    bbb    H16   1010 0.25637600   1.008000   ; qtot 0.411701
 1011         c3     35    bbb     C9   1011 -0.72423400  12.010000   ; qtot -0.312533
 1012         h1     35    bbb    H17   1012 0.25637600   1.008000   ; qtot -0.056157
 1013         h1     35    bbb    H18   1013 0.25637600   1.008000   ; qtot 0.200219
 1014         os     35    bbb     O1   1014 -0.20025300  16.000000   ; qtot -0.000034
; residue   36 bbb rtp bbb q -0.0
 1015         n3     36    bbb     N1   1015 -0.59685800  14.010000   ; qtot -0.596892
 1016         c3     36    bbb     C1   1016 0.10137000  12.010000   ; qtot -0.495522
 1017         h1     36    bbb     H1   1017 0.04411300   1.008000   ; qtot -0.451409
 1018         h1     36    bbb     H2   1018 0.04411300   1.008000   ; qtot -0.407296
 1019         c3     36    bbb     C2   1019 0.10137000  12.010000   ; qtot -0.305926
 1020         h1     36    bbb     H3   1020 0.04411300   1.008000   ; qtot -0.261813
 1021         h1     36    bbb     H4   1021 0.04411300   1.008000   ; qtot -0.217700
 1022         c3     36    bbb     C3   1022 -0.00195300  12.010000   ; qtot -0.219653
 1023         h1     36    bbb     H5   1023 0.05064400   1.008000   ; qtot -0.169009
 1024         h1     36    bbb     H6   1024 0.05064400   1.008000   ; qtot -0.118365
 1025         c3     36    bbb     C4   1025 -0.01612100  12.010000   ; qtot -0.134486
 1026         hc     36    bbb     H7   1026 0.04936100   1.008000   ; qtot -0.085125
 1027         hc     36    bbb     H8   1027 0.04936100   1.008000   ; qtot -0.035764
 1028         c3     36    bbb     C5   1028 0.11363000  12.010000   ; qtot 0.077866
 1029         hc     36    bbb     H9   1029 0.06265900   1.008000   ; qtot 0.140525
 1030         hc     36    bbb    H10   1030 0.06265900   1.008000   ; qtot 0.203184
 1031         c3     36    bbb     C6   1031 0.11363000  12.010000   ; qtot 0.316814
 1032         hc     36    bbb    H11   1032 0.06265900   1.008000   ; qtot 0.379473
 1033         hc     36    bbb    H12   1033 0.06265900   1.008000   ; qtot 0.442132
 1034         c3     36    bbb     C7   1034 0.05858200  12.010000   ; qtot 0.500714
 1035         h1     36    bbb    H13   1035 0.06123400   1.008000   ; qtot 0.561948
 1036         h1     36    bbb    H14   1036 0.06123400   1.008000   ; qtot 0.623182
 1037         c3     36    bbb     C8   1037 -0.72423400  12.010000   ; qtot -0.101052
 1038         h1     36    bbb    H15   1038 0.25637600   1.008000   ; qtot 0.155324
 1039         h1     36    bbb    H16   1039 0.25637600   1.008000   ; qtot 0.411700
 1040         c3     36    bbb     C9   1040 -0.72423400  12.010000   ; qtot -0.312534
 1041         h1     36    bbb    H17   1041 0.25637600   1.008000   ; qtot -0.056158
 1042         h1     36    bbb    H18   1042 0.25637600   1.008000   ; qtot 0.200218
 1043         os     36    bbb     O1   1043 -0.20025300  16.000000   ; qtot -0.000035
; residue   37 bbb rtp bbb q -0.0
 1044         n3     37    bbb     N1   1044 -0.59685800  14.010000   ; qtot -0.596893
 1045         c3     37    bbb     C1   1045 0.10137000  12.010000   ; qtot -0.495523
 1046         h1     37    bbb     H1   1046 0.04411300   1.008000   ; qtot -0.451410
 1047         h1     37    bbb     H2   1047 0.04411300   1.008000   ; qtot -0.407297
 1048         c3     37    bbb     C2   1048 0.10137000  12.010000   ; qtot -0.305927
 1049         h1     37    bbb     H3   1049 0.04411300   1.008000   ; qtot -0.261814
 1050         h1     37    bbb     H4   1050 0.04411300   1.008000   ; qtot -0.217701
 1051         c3     37    bbb     C3   1051 -0.00195300  12.010000   ; qtot -0.219654
 1052         h1     37    bbb     H5   1052 0.05064400   1.008000   ; qtot -0.169010
 1053         h1     37    bbb     H6   1053 0.05064400   1.008000   ; qtot -0.118366
 1054         c3     37    bbb     C4   1054 -0.01612100  12.010000   ; qtot -0.134487
 1055         hc     37    bbb     H7   1055 0.04936100   1.008000   ; qtot -0.085126
 1056         hc     37    bbb     H8   1056 0.04936100   1.008000   ; qtot -0.035765
 1057         c3     37    bbb     C5   1057 0.11363000  12.010000   ; qtot 0.077865
 1058         hc     37    bbb     H9   1058 0.06265900   1.008000   ; qtot 0.140524
 1059         hc     37    bbb    H10   1059 0.06265900   1.008000   ; qtot 0.203183
 1060         c3     37    bbb     C6   1060 0.11363000  12.010000   ; qtot 0.316813
 1061         hc     37    bbb    H11   1061 0.06265900   1.008000   ; qtot 0.379472
 1062         hc     37    bbb    H12   1062 0.06265900   1.008000   ; qtot 0.442131
 1063         c3     37    bbb     C7   1063 0.05858200  12.010000   ; qtot 0.500713
 1064         h1     37    bbb    H13   1064 0.06123400   1.008000   ; qtot 0.561947
 1065         h1     37    bbb    H14   1065 0.06123400   1.008000   ; qtot 0.623181
 1066         c3     37    bbb     C8   1066 -0.72423400  12.010000   ; qtot -0.101053
 1067         h1     37    bbb    H15   1067 0.25637600   1.008000   ; qtot 0.155323
 1068         h1     37    bbb    H16   1068 0.25637600   1.008000   ; qtot 0.411699
 1069         c3     37    bbb     C9   1069 -0.72423400  12.010000   ; qtot -0.312535
 1070         h1     37    bbb    H17   1070 0.25637600   1.008000   ; qtot -0.056159
 1071         h1     37    bbb    H18   1071 0.25637600   1.008000   ; qtot 0.200217
 1072         os     37    bbb     O1   1072 -0.20025300  16.000000   ; qtot -0.000036
; residue   38 bbb rtp bbb q -0.0
 1073         n3     38    bbb     N1   1073 -0.59685800  14.010000   ; qtot -0.596894
 1074         c3     38    bbb     C1   1074 0.10137000  12.010000   ; qtot -0.495524
 1075         h1     38    bbb     H1   1075 0.04411300   1.008000   ; qtot -0.451411
 1076         h1     38    bbb     H2   1076 0.04411300   1.008000   ; qtot -0.407298
 1077         c3     38    bbb     C2   1077 0.10137000  12.010000   ; qtot -0.305928
 1078         h1     38    bbb     H3   1078 0.04411300   1.008000   ; qtot -0.261815
 1079         h1     38    bbb     H4   1079 0.04411300   1.008000   ; qtot -0.217702
 1080         c3     38    bbb     C3   1080 -0.00195300  12.010000   ; qtot -0.219655
 1081         h1     38    bbb     H5   1081 0.05064400   1.008000   ; qtot -0.169011
 1082         h1     38    bbb     H6   1082 0.05064400   1.008000   ; qtot -0.118367
 1083         c3     38    bbb     C4   1083 -0.01612100  12.010000   ; qtot -0.134488
 1084         hc     38    bbb     H7   1084 0.04936100   1.008000   ; qtot -0.085127
 1085         hc     38    bbb     H8   1085 0.04936100   1.008000   ; qtot -0.035766
 1086         c3     38    bbb     C5   1086 0.11363000  12.010000   ; qtot 0.077864
 1087         hc     38    bbb     H9   1087 0.06265900   1.008000   ; qtot 0.140523
 1088         hc     38    bbb    H10   1088 0.06265900   1.008000   ; qtot 0.203182
 1089         c3     38    bbb     C6   1089 0.11363000  12.010000   ; qtot 0.316812
 1090         hc     38    bbb    H11   1090 0.06265900   1.008000   ; qtot 0.379471
 1091         hc     38    bbb    H12   1091 0.06265900   1.008000   ; qtot 0.442130
 1092         c3     38    bbb     C7   1092 0.05858200  12.010000   ; qtot 0.500712
 1093         h1     38    bbb    H13   1093 0.06123400   1.008000   ; qtot 0.561946
 1094         h1     38    bbb    H14   1094 0.06123400   1.008000   ; qtot 0.623180
 1095         c3     38    bbb     C8   1095 -0.72423400  12.010000   ; qtot -0.101054
 1096         h1     38    bbb    H15   1096 0.25637600   1.008000   ; qtot 0.155322
 1097         h1     38    bbb    H16   1097 0.25637600   1.008000   ; qtot 0.411698
 1098         c3     38    bbb     C9   1098 -0.72423400  12.010000   ; qtot -0.312536
 1099         h1     38    bbb    H17   1099 0.25637600   1.008000   ; qtot -0.056160
 1100         h1     38    bbb    H18   1100 0.25637600   1.008000   ; qtot 0.200216
 1101         os     38    bbb     O1   1101 -0.20025300  16.000000   ; qtot -0.000037
; residue   39 bbb rtp bbb q -0.0
 1102         n3     39    bbb     N1   1102 -0.59685800  14.010000   ; qtot -0.596895
 1103         c3     39    bbb     C1   1103 0.10137000  12.010000   ; qtot -0.495525
 1104         h1     39    bbb     H1   1104 0.04411300   1.008000   ; qtot -0.451412
 1105         h1     39    bbb     H2   1105 0.04411300   1.008000   ; qtot -0.407299
 1106         c3     39    bbb     C2   1106 0.10137000  12.010000   ; qtot -0.305929
 1107         h1     39    bbb     H3   1107 0.04411300   1.008000   ; qtot -0.261816
 1108         h1     39    bbb     H4   1108 0.04411300   1.008000   ; qtot -0.217703
 1109         c3     39    bbb     C3   1109 -0.00195300  12.010000   ; qtot -0.219656
 1110         h1     39    bbb     H5   1110 0.05064400   1.008000   ; qtot -0.169012
 1111         h1     39    bbb     H6   1111 0.05064400   1.008000   ; qtot -0.118368
 1112         c3     39    bbb     C4   1112 -0.01612100  12.010000   ; qtot -0.134489
 1113         hc     39    bbb     H7   1113 0.04936100   1.008000   ; qtot -0.085128
 1114         hc     39    bbb     H8   1114 0.04936100   1.008000   ; qtot -0.035767
 1115         c3     39    bbb     C5   1115 0.11363000  12.010000   ; qtot 0.077863
 1116         hc     39    bbb     H9   1116 0.06265900   1.008000   ; qtot 0.140522
 1117         hc     39    bbb    H10   1117 0.06265900   1.008000   ; qtot 0.203181
 1118         c3     39    bbb     C6   1118 0.11363000  12.010000   ; qtot 0.316811
 1119         hc     39    bbb    H11   1119 0.06265900   1.008000   ; qtot 0.379470
 1120         hc     39    bbb    H12   1120 0.06265900   1.008000   ; qtot 0.442129
 1121         c3     39    bbb     C7   1121 0.05858200  12.010000   ; qtot 0.500711
 1122         h1     39    bbb    H13   1122 0.06123400   1.008000   ; qtot 0.561945
 1123         h1     39    bbb    H14   1123 0.06123400   1.008000   ; qtot 0.623179
 1124         c3     39    bbb     C8   1124 -0.72423400  12.010000   ; qtot -0.101055
 1125         h1     39    bbb    H15   1125 0.25637600   1.008000   ; qtot 0.155321
 1126         h1     39    bbb    H16   1126 0.25637600   1.008000   ; qtot 0.411697
 1127         c3     39    bbb     C9   1127 -0.72423400  12.010000   ; qtot -0.312537
 1128         h1     39    bbb    H17   1128 0.25637600   1.008000   ; qtot -0.056161
 1129         h1     39    bbb    H18   1129 0.25637600   1.008000   ; qtot 0.200215
 1130         os     39    bbb     O1   1130 -0.20025300  16.000000   ; qtot -0.000038
; residue   40 bbb rtp bbb q -0.0
 1131         n3     40    bbb     N1   1131 -0.59685800  14.010000   ; qtot -0.596896
 1132         c3     40    bbb     C1   1132 0.10137000  12.010000   ; qtot -0.495526
 1133         h1     40    bbb     H1   1133 0.04411300   1.008000   ; qtot -0.451413
 1134         h1     40    bbb     H2   1134 0.04411300   1.008000   ; qtot -0.407300
 1135         c3     40    bbb     C2   1135 0.10137000  12.010000   ; qtot -0.305930
 1136         h1     40    bbb     H3   1136 0.04411300   1.008000   ; qtot -0.261817
 1137         h1     40    bbb     H4   1137 0.04411300   1.008000   ; qtot -0.217704
 1138         c3     40    bbb     C3   1138 -0.00195300  12.010000   ; qtot -0.219657
 1139         h1     40    bbb     H5   1139 0.05064400   1.008000   ; qtot -0.169013
 1140         h1     40    bbb     H6   1140 0.05064400   1.008000   ; qtot -0.118369
 1141         c3     40    bbb     C4   1141 -0.01612100  12.010000   ; qtot -0.134490
 1142         hc     40    bbb     H7   1142 0.04936100   1.008000   ; qtot -0.085129
 1143         hc     40    bbb     H8   1143 0.04936100   1.008000   ; qtot -0.035768
 1144         c3     40    bbb     C5   1144 0.11363000  12.010000   ; qtot 0.077862
 1145         hc     40    bbb     H9   1145 0.06265900   1.008000   ; qtot 0.140521
 1146         hc     40    bbb    H10   1146 0.06265900   1.008000   ; qtot 0.203180
 1147         c3     40    bbb     C6   1147 0.11363000  12.010000   ; qtot 0.316810
 1148         hc     40    bbb    H11   1148 0.06265900   1.008000   ; qtot 0.379469
 1149         hc     40    bbb    H12   1149 0.06265900   1.008000   ; qtot 0.442128
 1150         c3     40    bbb     C7   1150 0.05858200  12.010000   ; qtot 0.500710
 1151         h1     40    bbb    H13   1151 0.06123400   1.008000   ; qtot 0.561944
 1152         h1     40    bbb    H14   1152 0.06123400   1.008000   ; qtot 0.623178
 1153         c3     40    bbb     C8   1153 -0.72423400  12.010000   ; qtot -0.101056
 1154         h1     40    bbb    H15   1154 0.25637600   1.008000   ; qtot 0.155320
 1155         h1     40    bbb    H16   1155 0.25637600   1.008000   ; qtot 0.411696
 1156         c3     40    bbb     C9   1156 -0.72423400  12.010000   ; qtot -0.312538
 1157         h1     40    bbb    H17   1157 0.25637600   1.008000   ; qtot -0.056162
 1158         h1     40    bbb    H18   1158 0.25637600   1.008000   ; qtot 0.200214
 1159         os     40    bbb     O1   1159 -0.20025300  16.000000   ; qtot -0.000039
; residue   41 bbb rtp bbb q -0.0
 1160         n3     41    bbb     N1   1160 -0.59685800  14.010000   ; qtot -0.596897
 1161         c3     41    bbb     C1   1161 0.10137000  12.010000   ; qtot -0.495527
 1162         h1     41    bbb     H1   1162 0.04411300   1.008000   ; qtot -0.451414
 1163         h1     41    bbb     H2   1163 0.04411300   1.008000   ; qtot -0.407301
 1164         c3     41    bbb     C2   1164 0.10137000  12.010000   ; qtot -0.305931
 1165         h1     41    bbb     H3   1165 0.04411300   1.008000   ; qtot -0.261818
 1166         h1     41    bbb     H4   1166 0.04411300   1.008000   ; qtot -0.217705
 1167         c3     41    bbb     C3   1167 -0.00195300  12.010000   ; qtot -0.219658
 1168         h1     41    bbb     H5   1168 0.05064400   1.008000   ; qtot -0.169014
 1169         h1     41    bbb     H6   1169 0.05064400   1.008000   ; qtot -0.118370
 1170         c3     41    bbb     C4   1170 -0.01612100  12.010000   ; qtot -0.134491
 1171         hc     41    bbb     H7   1171 0.04936100   1.008000   ; qtot -0.085130
 1172         hc     41    bbb     H8   1172 0.04936100   1.008000   ; qtot -0.035769
 1173         c3     41    bbb     C5   1173 0.11363000  12.010000   ; qtot 0.077861
 1174         hc     41    bbb     H9   1174 0.06265900   1.008000   ; qtot 0.140520
 1175         hc     41    bbb    H10   1175 0.06265900   1.008000   ; qtot 0.203179
 1176         c3     41    bbb     C6   1176 0.11363000  12.010000   ; qtot 0.316809
 1177         hc     41    bbb    H11   1177 0.06265900   1.008000   ; qtot 0.379468
 1178         hc     41    bbb    H12   1178 0.06265900   1.008000   ; qtot 0.442127
 1179         c3     41    bbb     C7   1179 0.05858200  12.010000   ; qtot 0.500709
 1180         h1     41    bbb    H13   1180 0.06123400   1.008000   ; qtot 0.561943
 1181         h1     41    bbb    H14   1181 0.06123400   1.008000   ; qtot 0.623177
 1182         c3     41    bbb     C8   1182 -0.72423400  12.010000   ; qtot -0.101057
 1183         h1     41    bbb    H15   1183 0.25637600   1.008000   ; qtot 0.155319
 1184         h1     41    bbb    H16   1184 0.25637600   1.008000   ; qtot 0.411695
 1185         c3     41    bbb     C9   1185 -0.72423400  12.010000   ; qtot -0.312539
 1186         h1     41    bbb    H17   1186 0.25637600   1.008000   ; qtot -0.056163
 1187         h1     41    bbb    H18   1187 0.25637600   1.008000   ; qtot 0.200213
 1188         os     41    bbb     O1   1188 -0.20025300  16.000000   ; qtot -0.000040
; residue   42 bbb rtp bbb q -0.0
 1189         n3     42    bbb     N1   1189 -0.59685800  14.010000   ; qtot -0.596898
 1190         c3     42    bbb     C1   1190 0.10137000  12.010000   ; qtot -0.495528
 1191         h1     42    bbb     H1   1191 0.04411300   1.008000   ; qtot -0.451415
 1192         h1     42    bbb     H2   1192 0.04411300   1.008000   ; qtot -0.407302
 1193         c3     42    bbb     C2   1193 0.10137000  12.010000   ; qtot -0.305932
 1194         h1     42    bbb     H3   1194 0.04411300   1.008000   ; qtot -0.261819
 1195         h1     42    bbb     H4   1195 0.04411300   1.008000   ; qtot -0.217706
 1196         c3     42    bbb     C3   1196 -0.00195300  12.010000   ; qtot -0.219659
 1197         h1     42    bbb     H5   1197 0.05064400   1.008000   ; qtot -0.169015
 1198         h1     42    bbb     H6   1198 0.05064400   1.008000   ; qtot -0.118371
 1199         c3     42    bbb     C4   1199 -0.01612100  12.010000   ; qtot -0.134492
 1200         hc     42    bbb     H7   1200 0.04936100   1.008000   ; qtot -0.085131
 1201         hc     42    bbb     H8   1201 0.04936100   1.008000   ; qtot -0.035770
 1202         c3     42    bbb     C5   1202 0.11363000  12.010000   ; qtot 0.077860
 1203         hc     42    bbb     H9   1203 0.06265900   1.008000   ; qtot 0.140519
 1204         hc     42    bbb    H10   1204 0.06265900   1.008000   ; qtot 0.203178
 1205         c3     42    bbb     C6   1205 0.11363000  12.010000   ; qtot 0.316808
 1206         hc     42    bbb    H11   1206 0.06265900   1.008000   ; qtot 0.379467
 1207         hc     42    bbb    H12   1207 0.06265900   1.008000   ; qtot 0.442126
 1208         c3     42    bbb     C7   1208 0.05858200  12.010000   ; qtot 0.500708
 1209         h1     42    bbb    H13   1209 0.06123400   1.008000   ; qtot 0.561942
 1210         h1     42    bbb    H14   1210 0.06123400   1.008000   ; qtot 0.623176
 1211         c3     42    bbb     C8   1211 -0.72423400  12.010000   ; qtot -0.101058
 1212         h1     42    bbb    H15   1212 0.25637600   1.008000   ; qtot 0.155318
 1213         h1     42    bbb    H16   1213 0.25637600   1.008000   ; qtot 0.411694
 1214         c3     42    bbb     C9   1214 -0.72423400  12.010000   ; qtot -0.312540
 1215         h1     42    bbb    H17   1215 0.25637600   1.008000   ; qtot -0.056164
 1216         h1     42    bbb    H18   1216 0.25637600   1.008000   ; qtot 0.200212
 1217         os     42    bbb     O1   1217 -0.20025300  16.000000   ; qtot -0.000041
; residue   43 bbb rtp bbb q -0.0
 1218         n3     43    bbb     N1   1218 -0.59685800  14.010000   ; qtot -0.596899
 1219         c3     43    bbb     C1   1219 0.10137000  12.010000   ; qtot -0.495529
 1220         h1     43    bbb     H1   1220 0.04411300   1.008000   ; qtot -0.451416
 1221         h1     43    bbb     H2   1221 0.04411300   1.008000   ; qtot -0.407303
 1222         c3     43    bbb     C2   1222 0.10137000  12.010000   ; qtot -0.305933
 1223         h1     43    bbb     H3   1223 0.04411300   1.008000   ; qtot -0.261820
 1224         h1     43    bbb     H4   1224 0.04411300   1.008000   ; qtot -0.217707
 1225         c3     43    bbb     C3   1225 -0.00195300  12.010000   ; qtot -0.219660
 1226         h1     43    bbb     H5   1226 0.05064400   1.008000   ; qtot -0.169016
 1227         h1     43    bbb     H6   1227 0.05064400   1.008000   ; qtot -0.118372
 1228         c3     43    bbb     C4   1228 -0.01612100  12.010000   ; qtot -0.134493
 1229         hc     43    bbb     H7   1229 0.04936100   1.008000   ; qtot -0.085132
 1230         hc     43    bbb     H8   1230 0.04936100   1.008000   ; qtot -0.035771
 1231         c3     43    bbb     C5   1231 0.11363000  12.010000   ; qtot 0.077859
 1232         hc     43    bbb     H9   1232 0.06265900   1.008000   ; qtot 0.140518
 1233         hc     43    bbb    H10   1233 0.06265900   1.008000   ; qtot 0.203177
 1234         c3     43    bbb     C6   1234 0.11363000  12.010000   ; qtot 0.316807
 1235         hc     43    bbb    H11   1235 0.06265900   1.008000   ; qtot 0.379466
 1236         hc     43    bbb    H12   1236 0.06265900   1.008000   ; qtot 0.442125
 1237         c3     43    bbb     C7   1237 0.05858200  12.010000   ; qtot 0.500707
 1238         h1     43    bbb    H13   1238 0.06123400   1.008000   ; qtot 0.561941
 1239         h1     43    bbb    H14   1239 0.06123400   1.008000   ; qtot 0.623175
 1240         c3     43    bbb     C8   1240 -0.72423400  12.010000   ; qtot -0.101059
 1241         h1     43    bbb    H15   1241 0.25637600   1.008000   ; qtot 0.155317
 1242         h1     43    bbb    H16   1242 0.25637600   1.008000   ; qtot 0.411693
 1243         c3     43    bbb     C9   1243 -0.72423400  12.010000   ; qtot -0.312541
 1244         h1     43    bbb    H17   1244 0.25637600   1.008000   ; qtot -0.056165
 1245         h1     43    bbb    H18   1245 0.25637600   1.008000   ; qtot 0.200211
 1246         os     43    bbb     O1   1246 -0.20025300  16.000000   ; qtot -0.000042
; residue   44 bbb rtp bbb q -0.0
 1247         n3     44    bbb     N1   1247 -0.59685800  14.010000   ; qtot -0.596900
 1248         c3     44    bbb     C1   1248 0.10137000  12.010000   ; qtot -0.495530
 1249         h1     44    bbb     H1   1249 0.04411300   1.008000   ; qtot -0.451417
 1250         h1     44    bbb     H2   1250 0.04411300   1.008000   ; qtot -0.407304
 1251         c3     44    bbb     C2   1251 0.10137000  12.010000   ; qtot -0.305934
 1252         h1     44    bbb     H3   1252 0.04411300   1.008000   ; qtot -0.261821
 1253         h1     44    bbb     H4   1253 0.04411300   1.008000   ; qtot -0.217708
 1254         c3     44    bbb     C3   1254 -0.00195300  12.010000   ; qtot -0.219661
 1255         h1     44    bbb     H5   1255 0.05064400   1.008000   ; qtot -0.169017
 1256         h1     44    bbb     H6   1256 0.05064400   1.008000   ; qtot -0.118373
 1257         c3     44    bbb     C4   1257 -0.01612100  12.010000   ; qtot -0.134494
 1258         hc     44    bbb     H7   1258 0.04936100   1.008000   ; qtot -0.085133
 1259         hc     44    bbb     H8   1259 0.04936100   1.008000   ; qtot -0.035772
 1260         c3     44    bbb     C5   1260 0.11363000  12.010000   ; qtot 0.077858
 1261         hc     44    bbb     H9   1261 0.06265900   1.008000   ; qtot 0.140517
 1262         hc     44    bbb    H10   1262 0.06265900   1.008000   ; qtot 0.203176
 1263         c3     44    bbb     C6   1263 0.11363000  12.010000   ; qtot 0.316806
 1264         hc     44    bbb    H11   1264 0.06265900   1.008000   ; qtot 0.379465
 1265         hc     44    bbb    H12   1265 0.06265900   1.008000   ; qtot 0.442124
 1266         c3     44    bbb     C7   1266 0.05858200  12.010000   ; qtot 0.500706
 1267         h1     44    bbb    H13   1267 0.06123400   1.008000   ; qtot 0.561940
 1268         h1     44    bbb    H14   1268 0.06123400   1.008000   ; qtot 0.623174
 1269         c3     44    bbb     C8   1269 -0.72423400  12.010000   ; qtot -0.101060
 1270         h1     44    bbb    H15   1270 0.25637600   1.008000   ; qtot 0.155316
 1271         h1     44    bbb    H16   1271 0.25637600   1.008000   ; qtot 0.411692
 1272         c3     44    bbb     C9   1272 -0.72423400  12.010000   ; qtot -0.312542
 1273         h1     44    bbb    H17   1273 0.25637600   1.008000   ; qtot -0.056166
 1274         h1     44    bbb    H18   1274 0.25637600   1.008000   ; qtot 0.200210
 1275         os     44    bbb     O1   1275 -0.20025300  16.000000   ; qtot -0.000043
; residue   45 bbb rtp bbb q -0.0
 1276         n3     45    bbb     N1   1276 -0.59685800  14.010000   ; qtot -0.596901
 1277         c3     45    bbb     C1   1277 0.10137000  12.010000   ; qtot -0.495531
 1278         h1     45    bbb     H1   1278 0.04411300   1.008000   ; qtot -0.451418
 1279         h1     45    bbb     H2   1279 0.04411300   1.008000   ; qtot -0.407305
 1280         c3     45    bbb     C2   1280 0.10137000  12.010000   ; qtot -0.305935
 1281         h1     45    bbb     H3   1281 0.04411300   1.008000   ; qtot -0.261822
 1282         h1     45    bbb     H4   1282 0.04411300   1.008000   ; qtot -0.217709
 1283         c3     45    bbb     C3   1283 -0.00195300  12.010000   ; qtot -0.219662
 1284         h1     45    bbb     H5   1284 0.05064400   1.008000   ; qtot -0.169018
 1285         h1     45    bbb     H6   1285 0.05064400   1.008000   ; qtot -0.118374
 1286         c3     45    bbb     C4   1286 -0.01612100  12.010000   ; qtot -0.134495
 1287         hc     45    bbb     H7   1287 0.04936100   1.008000   ; qtot -0.085134
 1288         hc     45    bbb     H8   1288 0.04936100   1.008000   ; qtot -0.035773
 1289         c3     45    bbb     C5   1289 0.11363000  12.010000   ; qtot 0.077857
 1290         hc     45    bbb     H9   1290 0.06265900   1.008000   ; qtot 0.140516
 1291         hc     45    bbb    H10   1291 0.06265900   1.008000   ; qtot 0.203175
 1292         c3     45    bbb     C6   1292 0.11363000  12.010000   ; qtot 0.316805
 1293         hc     45    bbb    H11   1293 0.06265900   1.008000   ; qtot 0.379464
 1294         hc     45    bbb    H12   1294 0.06265900   1.008000   ; qtot 0.442123
 1295         c3     45    bbb     C7   1295 0.05858200  12.010000   ; qtot 0.500705
 1296         h1     45    bbb    H13   1296 0.06123400   1.008000   ; qtot 0.561939
 1297         h1     45    bbb    H14   1297 0.06123400   1.008000   ; qtot 0.623173
 1298         c3     45    bbb     C8   1298 -0.72423400  12.010000   ; qtot -0.101061
 1299         h1     45    bbb    H15   1299 0.25637600   1.008000   ; qtot 0.155315
 1300         h1     45    bbb    H16   1300 0.25637600   1.008000   ; qtot 0.411691
 1301         c3     45    bbb     C9   1301 -0.72423400  12.010000   ; qtot -0.312543
 1302         h1     45    bbb    H17   1302 0.25637600   1.008000   ; qtot -0.056167
 1303         h1     45    bbb    H18   1303 0.25637600   1.008000   ; qtot 0.200209
 1304         os     45    bbb     O1   1304 -0.20025300  16.000000   ; qtot -0.000044
; residue   46 bbb rtp bbb q -0.0
 1305         n3     46    bbb     N1   1305 -0.59685800  14.010000   ; qtot -0.596902
 1306         c3     46    bbb     C1   1306 0.10137000  12.010000   ; qtot -0.495532
 1307         h1     46    bbb     H1   1307 0.04411300   1.008000   ; qtot -0.451419
 1308         h1     46    bbb     H2   1308 0.04411300   1.008000   ; qtot -0.407306
 1309         c3     46    bbb     C2   1309 0.10137000  12.010000   ; qtot -0.305936
 1310         h1     46    bbb     H3   1310 0.04411300   1.008000   ; qtot -0.261823
 1311         h1     46    bbb     H4   1311 0.04411300   1.008000   ; qtot -0.217710
 1312         c3     46    bbb     C3   1312 -0.00195300  12.010000   ; qtot -0.219663
 1313         h1     46    bbb     H5   1313 0.05064400   1.008000   ; qtot -0.169019
 1314         h1     46    bbb     H6   1314 0.05064400   1.008000   ; qtot -0.118375
 1315         c3     46    bbb     C4   1315 -0.01612100  12.010000   ; qtot -0.134496
 1316         hc     46    bbb     H7   1316 0.04936100   1.008000   ; qtot -0.085135
 1317         hc     46    bbb     H8   1317 0.04936100   1.008000   ; qtot -0.035774
 1318         c3     46    bbb     C5   1318 0.11363000  12.010000   ; qtot 0.077856
 1319         hc     46    bbb     H9   1319 0.06265900   1.008000   ; qtot 0.140515
 1320         hc     46    bbb    H10   1320 0.06265900   1.008000   ; qtot 0.203174
 1321         c3     46    bbb     C6   1321 0.11363000  12.010000   ; qtot 0.316804
 1322         hc     46    bbb    H11   1322 0.06265900   1.008000   ; qtot 0.379463
 1323         hc     46    bbb    H12   1323 0.06265900   1.008000   ; qtot 0.442122
 1324         c3     46    bbb     C7   1324 0.05858200  12.010000   ; qtot 0.500704
 1325         h1     46    bbb    H13   1325 0.06123400   1.008000   ; qtot 0.561938
 1326         h1     46    bbb    H14   1326 0.06123400   1.008000   ; qtot 0.623172
 1327         c3     46    bbb     C8   1327 -0.72423400  12.010000   ; qtot -0.101062
 1328         h1     46    bbb    H15   1328 0.25637600   1.008000   ; qtot 0.155314
 1329         h1     46    bbb    H16   1329 0.25637600   1.008000   ; qtot 0.411690
 1330         c3     46    bbb     C9   1330 -0.72423400  12.010000   ; qtot -0.312544
 1331         h1     46    bbb    H17   1331 0.25637600   1.008000   ; qtot -0.056168
 1332         h1     46    bbb    H18   1332 0.25637600   1.008000   ; qtot 0.200208
 1333         os     46    bbb     O1   1333 -0.20025300  16.000000   ; qtot -0.000045
; residue   47 ccc rtp ccc q 0.0
 1334         c3     47    ccc     C1   1334 0.50749700  12.010000   ; qtot 0.507452
 1335         h1     47    ccc     H1   1335 -0.02808400   1.008000   ; qtot 0.479368
 1336         h1     47    ccc     H2   1336 -0.02808400   1.008000   ; qtot 0.451284
 1337         c3     47    ccc     C2   1337 -0.15486000  12.010000   ; qtot 0.296424
 1338         hc     47    ccc     H3   1338 0.10266400   1.008000   ; qtot 0.399088
 1339         hc     47    ccc     H4   1339 0.10266400   1.008000   ; qtot 0.501752
 1340         c3     47    ccc     C3   1340 -0.15693500  12.010000   ; qtot 0.344817
 1341         h1     47    ccc     H5   1341 0.08499200   1.008000   ; qtot 0.429809
 1342         h1     47    ccc     H6   1342 0.08499200   1.008000   ; qtot 0.514801
 1343         n3     47    ccc     N1   1343 -0.29948700  14.010000   ; qtot 0.215314
 1344         c3     47    ccc     C4   1344 -0.01321200  12.010000   ; qtot 0.202102
 1345         h1     47    ccc     H7   1345 0.08172200   1.008000   ; qtot 0.283824
 1346         h1     47    ccc     H8   1346 0.08172200   1.008000   ; qtot 0.365546
 1347         c3     47    ccc     C5   1347 -0.22180000  12.010000   ; qtot 0.143746
 1348         hc     47    ccc     H9   1348 0.09671800   1.008000   ; qtot 0.240464
 1349         hc     47    ccc    H10   1349 0.09671800   1.008000   ; qtot 0.337182
 1350          c     47    ccc     C6   1350 0.526324  12.010000   ; qtot 1.333709
 1351          o     47    ccc     O1   1351 -0.39142825  16.000000   ; qtot 0.637203
 1352         oh     47    ccc     O2   1352 -0.56822625  16.000000   ; qtot -0.203608
 1353         ho     47    ccc    H11   1353 0.4186155   1.008000   ; qtot 0.322467
 1354         c3     47    ccc     C7   1354 -0.01321200  12.010000   ; qtot 0.309255
 1355         h1     47    ccc    H12   1355 0.08172200   1.008000   ; qtot 0.390977
 1356         h1     47    ccc    H13   1356 0.08172200   1.008000   ; qtot 0.472699
 1357         c3     47    ccc     C8   1357 -0.22180000  12.010000   ; qtot 0.250899
 1358         hc     47    ccc    H14   1358 0.09671800   1.008000   ; qtot 0.347617
 1359         hc     47    ccc    H15   1359 0.09671800   1.008000   ; qtot 0.444335
 1360          c     47    ccc     C9   1360 0.526324  12.010000   ; qtot 1.440862
 1361          o     47    ccc     O3   1361 -0.39142825  16.000000   ; qtot 0.744356
 1362         oh     47    ccc     O4   1362 -0.56822625  16.000000   ; qtot -0.096455
 1363         ho     47    ccc    H16   1363 0.4186155   1.008000   ; qtot 0.429620
 1364         os     47    ccc     O5   1364 -0.42966500  16.000000   ; qtot -0.000045
; residue   48 ccc rtp ccc q 0.0
 1365         c3     48    ccc     C1   1365 0.50749700  12.010000   ; qtot 0.507452
 1366         h1     48    ccc     H1   1366 -0.02808400   1.008000   ; qtot 0.479368
 1367         h1     48    ccc     H2   1367 -0.02808400   1.008000   ; qtot 0.451284
 1368         c3     48    ccc     C2   1368 -0.15486000  12.010000   ; qtot 0.296424
 1369         hc     48    ccc     H3   1369 0.10266400   1.008000   ; qtot 0.399088
 1370         hc     48    ccc     H4   1370 0.10266400   1.008000   ; qtot 0.501752
 1371         c3     48    ccc     C3   1371 -0.15693500  12.010000   ; qtot 0.344817
 1372         h1     48    ccc     H5   1372 0.08499200   1.008000   ; qtot 0.429809
 1373         h1     48    ccc     H6   1373 0.08499200   1.008000   ; qtot 0.514801
 1374         n3     48    ccc     N1   1374 -0.29948700  14.010000   ; qtot 0.215314
 1375         c3     48    ccc     C4   1375 -0.01321200  12.010000   ; qtot 0.202102
 1376         h1     48    ccc     H7   1376 0.08172200   1.008000   ; qtot 0.283824
 1377         h1     48    ccc     H8   1377 0.08172200   1.008000   ; qtot 0.365546
 1378         c3     48    ccc     C5   1378 -0.22180000  12.010000   ; qtot 0.143746
 1379         hc     48    ccc     H9   1379 0.09671800   1.008000   ; qtot 0.240464
 1380         hc     48    ccc    H10   1380 0.09671800   1.008000   ; qtot 0.337182
 1381          c     48    ccc     C6   1381 0.526324  12.010000   ; qtot 1.333709
 1382          o     48    ccc     O1   1382 -0.39142825  16.000000   ; qtot 0.637203
 1383         oh     48    ccc     O2   1383 -0.56822625  16.000000   ; qtot -0.203608
 1384         ho     48    ccc    H11   1384 0.4186155   1.008000   ; qtot 0.322467
 1385         c3     48    ccc     C7   1385 -0.01321200  12.010000   ; qtot 0.309255
 1386         h1     48    ccc    H12   1386 0.08172200   1.008000   ; qtot 0.390977
 1387         h1     48    ccc    H13   1387 0.08172200   1.008000   ; qtot 0.472699
 1388         c3     48    ccc     C8   1388 -0.22180000  12.010000   ; qtot 0.250899
 1389         hc     48    ccc    H14   1389 0.09671800   1.008000   ; qtot 0.347617
 1390         hc     48    ccc    H15   1390 0.09671800   1.008000   ; qtot 0.444335
 1391          c     48    ccc     C9   1391 0.526324  12.010000   ; qtot 1.440862
 1392          o     48    ccc     O3   1392 -0.39142825  16.000000   ; qtot 0.744356
 1393         oh     48    ccc     O4   1393 -0.56822625  16.000000   ; qtot -0.096455
 1394         ho     48    ccc    H16   1394 0.4186155   1.008000   ; qtot 0.429620
 1395         os     48    ccc     O5   1395 -0.42966500  16.000000   ; qtot -0.000045
; residue   49 ccc rtp ccc q 0.0
 1396         c3     49    ccc     C1   1396 0.50749700  12.010000   ; qtot 0.507452
 1397         h1     49    ccc     H1   1397 -0.02808400   1.008000   ; qtot 0.479368
 1398         h1     49    ccc     H2   1398 -0.02808400   1.008000   ; qtot 0.451284
 1399         c3     49    ccc     C2   1399 -0.15486000  12.010000   ; qtot 0.296424
 1400         hc     49    ccc     H3   1400 0.10266400   1.008000   ; qtot 0.399088
 1401         hc     49    ccc     H4   1401 0.10266400   1.008000   ; qtot 0.501752
 1402         c3     49    ccc     C3   1402 -0.15693500  12.010000   ; qtot 0.344817
 1403         h1     49    ccc     H5   1403 0.08499200   1.008000   ; qtot 0.429809
 1404         h1     49    ccc     H6   1404 0.08499200   1.008000   ; qtot 0.514801
 1405         n3     49    ccc     N1   1405 -0.29948700  14.010000   ; qtot 0.215314
 1406         c3     49    ccc     C4   1406 -0.01321200  12.010000   ; qtot 0.202102
 1407         h1     49    ccc     H7   1407 0.08172200   1.008000   ; qtot 0.283824
 1408         h1     49    ccc     H8   1408 0.08172200   1.008000   ; qtot 0.365546
 1409         c3     49    ccc     C5   1409 -0.22180000  12.010000   ; qtot 0.143746
 1410         hc     49    ccc     H9   1410 0.09671800   1.008000   ; qtot 0.240464
 1411         hc     49    ccc    H10   1411 0.09671800   1.008000   ; qtot 0.337182
 1412          c     49    ccc     C6   1412 0.526324  12.010000   ; qtot 1.333709
 1413          o     49    ccc     O1   1413 -0.39142825  16.000000   ; qtot 0.637203
 1414         oh     49    ccc     O2   1414 -0.56822625  16.000000   ; qtot -0.203608
 1415         ho     49    ccc    H11   1415 0.4186155   1.008000   ; qtot 0.322467
 1416         c3     49    ccc     C7   1416 -0.01321200  12.010000   ; qtot 0.309255
 1417         h1     49    ccc    H12   1417 0.08172200   1.008000   ; qtot 0.390977
 1418         h1     49    ccc    H13   1418 0.08172200   1.008000   ; qtot 0.472699
 1419         c3     49    ccc     C8   1419 -0.22180000  12.010000   ; qtot 0.250899
 1420         hc     49    ccc    H14   1420 0.09671800   1.008000   ; qtot 0.347617
 1421         hc     49    ccc    H15   1421 0.09671800   1.008000   ; qtot 0.444335
 1422          c     49    ccc     C9   1422 0.526324  12.010000   ; qtot 1.440862
 1423          o     49    ccc     O3   1423 -0.39142825  16.000000   ; qtot 0.744356
 1424         oh     49    ccc     O4   1424 -0.56822625  16.000000   ; qtot -0.096455
 1425         ho     49    ccc    H16   1425 0.4186155   1.008000   ; qtot 0.429620
 1426         os     49    ccc     O5   1426 -0.42966500  16.000000   ; qtot -0.000045
; residue   50 ccc rtp ccc q 0.0
 1427         c3     50    ccc     C1   1427 0.50749700  12.010000   ; qtot 0.507452
 1428         h1     50    ccc     H1   1428 -0.02808400   1.008000   ; qtot 0.479368
 1429         h1     50    ccc     H2   1429 -0.02808400   1.008000   ; qtot 0.451284
 1430         c3     50    ccc     C2   1430 -0.15486000  12.010000   ; qtot 0.296424
 1431         hc     50    ccc     H3   1431 0.10266400   1.008000   ; qtot 0.399088
 1432         hc     50    ccc     H4   1432 0.10266400   1.008000   ; qtot 0.501752
 1433         c3     50    ccc     C3   1433 -0.15693500  12.010000   ; qtot 0.344817
 1434         h1     50    ccc     H5   1434 0.08499200   1.008000   ; qtot 0.429809
 1435         h1     50    ccc     H6   1435 0.08499200   1.008000   ; qtot 0.514801
 1436         n3     50    ccc     N1   1436 -0.29948700  14.010000   ; qtot 0.215314
 1437         c3     50    ccc     C4   1437 -0.01321200  12.010000   ; qtot 0.202102
 1438         h1     50    ccc     H7   1438 0.08172200   1.008000   ; qtot 0.283824
 1439         h1     50    ccc     H8   1439 0.08172200   1.008000   ; qtot 0.365546
 1440         c3     50    ccc     C5   1440 -0.22180000  12.010000   ; qtot 0.143746
 1441         hc     50    ccc     H9   1441 0.09671800   1.008000   ; qtot 0.240464
 1442         hc     50    ccc    H10   1442 0.09671800   1.008000   ; qtot 0.337182
 1443          c     50    ccc     C6   1443 0.526324  12.010000   ; qtot 1.333709
 1444          o     50    ccc     O1   1444 -0.39142825  16.000000   ; qtot 0.637203
 1445         oh     50    ccc     O2   1445 -0.56822625  16.000000   ; qtot -0.203608
 1446         ho     50    ccc    H11   1446 0.4186155   1.008000   ; qtot 0.322467
 1447         c3     50    ccc     C7   1447 -0.01321200  12.010000   ; qtot 0.309255
 1448         h1     50    ccc    H12   1448 0.08172200   1.008000   ; qtot 0.390977
 1449         h1     50    ccc    H13   1449 0.08172200   1.008000   ; qtot 0.472699
 1450         c3     50    ccc     C8   1450 -0.22180000  12.010000   ; qtot 0.250899
 1451         hc     50    ccc    H14   1451 0.09671800   1.008000   ; qtot 0.347617
 1452         hc     50    ccc    H15   1452 0.09671800   1.008000   ; qtot 0.444335
 1453          c     50    ccc     C9   1453 0.526324  12.010000   ; qtot 1.440862
 1454          o     50    ccc     O3   1454 -0.39142825  16.000000   ; qtot 0.744356
 1455         oh     50    ccc     O4   1455 -0.56822625  16.000000   ; qtot -0.096455
 1456         ho     50    ccc    H16   1456 0.4186155   1.008000   ; qtot 0.429620
 1457         os     50    ccc     O5   1457 -0.42966500  16.000000   ; qtot -0.000045
; residue   51 ccc rtp ccc q 0.0
 1458         c3     51    ccc     C1   1458 0.50749700  12.010000   ; qtot 0.507452
 1459         h1     51    ccc     H1   1459 -0.02808400   1.008000   ; qtot 0.479368
 1460         h1     51    ccc     H2   1460 -0.02808400   1.008000   ; qtot 0.451284
 1461         c3     51    ccc     C2   1461 -0.15486000  12.010000   ; qtot 0.296424
 1462         hc     51    ccc     H3   1462 0.10266400   1.008000   ; qtot 0.399088
 1463         hc     51    ccc     H4   1463 0.10266400   1.008000   ; qtot 0.501752
 1464         c3     51    ccc     C3   1464 -0.15693500  12.010000   ; qtot 0.344817
 1465         h1     51    ccc     H5   1465 0.08499200   1.008000   ; qtot 0.429809
 1466         h1     51    ccc     H6   1466 0.08499200   1.008000   ; qtot 0.514801
 1467         n3     51    ccc     N1   1467 -0.29948700  14.010000   ; qtot 0.215314
 1468         c3     51    ccc     C4   1468 -0.01321200  12.010000   ; qtot 0.202102
 1469         h1     51    ccc     H7   1469 0.08172200   1.008000   ; qtot 0.283824
 1470         h1     51    ccc     H8   1470 0.08172200   1.008000   ; qtot 0.365546
 1471         c3     51    ccc     C5   1471 -0.22180000  12.010000   ; qtot 0.143746
 1472         hc     51    ccc     H9   1472 0.09671800   1.008000   ; qtot 0.240464
 1473         hc     51    ccc    H10   1473 0.09671800   1.008000   ; qtot 0.337182
 1474          c     51    ccc     C6   1474 0.526324  12.010000   ; qtot 1.333709
 1475          o     51    ccc     O1   1475 -0.39142825  16.000000   ; qtot 0.637203
 1476         oh     51    ccc     O2   1476 -0.56822625  16.000000   ; qtot -0.203608
 1477         ho     51    ccc    H11   1477 0.4186155   1.008000   ; qtot 0.322467
 1478         c3     51    ccc     C7   1478 -0.01321200  12.010000   ; qtot 0.309255
 1479         h1     51    ccc    H12   1479 0.08172200   1.008000   ; qtot 0.390977
 1480         h1     51    ccc    H13   1480 0.08172200   1.008000   ; qtot 0.472699
 1481         c3     51    ccc     C8   1481 -0.22180000  12.010000   ; qtot 0.250899
 1482         hc     51    ccc    H14   1482 0.09671800   1.008000   ; qtot 0.347617
 1483         hc     51    ccc    H15   1483 0.09671800   1.008000   ; qtot 0.444335
 1484          c     51    ccc     C9   1484 0.526324  12.010000   ; qtot 1.440862
 1485          o     51    ccc     O3   1485 -0.39142825  16.000000   ; qtot 0.744356
 1486         oh     51    ccc     O4   1486 -0.56822625  16.000000   ; qtot -0.096455
 1487         ho     51    ccc    H16   1487 0.4186155   1.008000   ; qtot 0.429620
 1488         os     51    ccc     O5   1488 -0.42966500  16.000000   ; qtot -0.000045
; residue   52 ccc rtp ccc q 0.0
 1489         c3     52    ccc     C1   1489 0.50749700  12.010000   ; qtot 0.507452
 1490         h1     52    ccc     H1   1490 -0.02808400   1.008000   ; qtot 0.479368
 1491         h1     52    ccc     H2   1491 -0.02808400   1.008000   ; qtot 0.451284
 1492         c3     52    ccc     C2   1492 -0.15486000  12.010000   ; qtot 0.296424
 1493         hc     52    ccc     H3   1493 0.10266400   1.008000   ; qtot 0.399088
 1494         hc     52    ccc     H4   1494 0.10266400   1.008000   ; qtot 0.501752
 1495         c3     52    ccc     C3   1495 -0.15693500  12.010000   ; qtot 0.344817
 1496         h1     52    ccc     H5   1496 0.08499200   1.008000   ; qtot 0.429809
 1497         h1     52    ccc     H6   1497 0.08499200   1.008000   ; qtot 0.514801
 1498         n3     52    ccc     N1   1498 -0.29948700  14.010000   ; qtot 0.215314
 1499         c3     52    ccc     C4   1499 -0.01321200  12.010000   ; qtot 0.202102
 1500         h1     52    ccc     H7   1500 0.08172200   1.008000   ; qtot 0.283824
 1501         h1     52    ccc     H8   1501 0.08172200   1.008000   ; qtot 0.365546
 1502         c3     52    ccc     C5   1502 -0.22180000  12.010000   ; qtot 0.143746
 1503         hc     52    ccc     H9   1503 0.09671800   1.008000   ; qtot 0.240464
 1504         hc     52    ccc    H10   1504 0.09671800   1.008000   ; qtot 0.337182
 1505          c     52    ccc     C6   1505 0.526324  12.010000   ; qtot 1.333709
 1506          o     52    ccc     O1   1506 -0.39142825  16.000000   ; qtot 0.637203
 1507         oh     52    ccc     O2   1507 -0.56822625  16.000000   ; qtot -0.203608
 1508         ho     52    ccc    H11   1508 0.4186155   1.008000   ; qtot 0.322467
 1509         c3     52    ccc     C7   1509 -0.01321200  12.010000   ; qtot 0.309255
 1510         h1     52    ccc    H12   1510 0.08172200   1.008000   ; qtot 0.390977
 1511         h1     52    ccc    H13   1511 0.08172200   1.008000   ; qtot 0.472699
 1512         c3     52    ccc     C8   1512 -0.22180000  12.010000   ; qtot 0.250899
 1513         hc     52    ccc    H14   1513 0.09671800   1.008000   ; qtot 0.347617
 1514         hc     52    ccc    H15   1514 0.09671800   1.008000   ; qtot 0.444335
 1515          c     52    ccc     C9   1515 0.526324  12.010000   ; qtot 1.440862
 1516          o     52    ccc     O3   1516 -0.39142825  16.000000   ; qtot 0.744356
 1517         oh     52    ccc     O4   1517 -0.56822625  16.000000   ; qtot -0.096455
 1518         ho     52    ccc    H16   1518 0.4186155   1.008000   ; qtot 0.429620
 1519         os     52    ccc     O5   1519 -0.42966500  16.000000   ; qtot -0.000045
; residue   53 ccc rtp ccc q 0.0
 1520         c3     53    ccc     C1   1520 0.50749700  12.010000   ; qtot 0.507452
 1521         h1     53    ccc     H1   1521 -0.02808400   1.008000   ; qtot 0.479368
 1522         h1     53    ccc     H2   1522 -0.02808400   1.008000   ; qtot 0.451284
 1523         c3     53    ccc     C2   1523 -0.15486000  12.010000   ; qtot 0.296424
 1524         hc     53    ccc     H3   1524 0.10266400   1.008000   ; qtot 0.399088
 1525         hc     53    ccc     H4   1525 0.10266400   1.008000   ; qtot 0.501752
 1526         c3     53    ccc     C3   1526 -0.15693500  12.010000   ; qtot 0.344817
 1527         h1     53    ccc     H5   1527 0.08499200   1.008000   ; qtot 0.429809
 1528         h1     53    ccc     H6   1528 0.08499200   1.008000   ; qtot 0.514801
 1529         n3     53    ccc     N1   1529 -0.29948700  14.010000   ; qtot 0.215314
 1530         c3     53    ccc     C4   1530 -0.01321200  12.010000   ; qtot 0.202102
 1531         h1     53    ccc     H7   1531 0.08172200   1.008000   ; qtot 0.283824
 1532         h1     53    ccc     H8   1532 0.08172200   1.008000   ; qtot 0.365546
 1533         c3     53    ccc     C5   1533 -0.22180000  12.010000   ; qtot 0.143746
 1534         hc     53    ccc     H9   1534 0.09671800   1.008000   ; qtot 0.240464
 1535         hc     53    ccc    H10   1535 0.09671800   1.008000   ; qtot 0.337182
 1536          c     53    ccc     C6   1536 0.526324  12.010000   ; qtot 1.333709
 1537          o     53    ccc     O1   1537 -0.39142825  16.000000   ; qtot 0.637203
 1538         oh     53    ccc     O2   1538 -0.56822625  16.000000   ; qtot -0.203608
 1539         ho     53    ccc    H11   1539 0.4186155   1.008000   ; qtot 0.322467
 1540         c3     53    ccc     C7   1540 -0.01321200  12.010000   ; qtot 0.309255
 1541         h1     53    ccc    H12   1541 0.08172200   1.008000   ; qtot 0.390977
 1542         h1     53    ccc    H13   1542 0.08172200   1.008000   ; qtot 0.472699
 1543         c3     53    ccc     C8   1543 -0.22180000  12.010000   ; qtot 0.250899
 1544         hc     53    ccc    H14   1544 0.09671800   1.008000   ; qtot 0.347617
 1545         hc     53    ccc    H15   1545 0.09671800   1.008000   ; qtot 0.444335
 1546          c     53    ccc     C9   1546 0.526324  12.010000   ; qtot 1.440862
 1547          o     53    ccc     O3   1547 -0.39142825  16.000000   ; qtot 0.744356
 1548         oh     53    ccc     O4   1548 -0.56822625  16.000000   ; qtot -0.096455
 1549         ho     53    ccc    H16   1549 0.4186155   1.008000   ; qtot 0.429620
 1550         os     53    ccc     O5   1550 -0.42966500  16.000000   ; qtot -0.000045
; residue   54 ccc rtp ccc q 0.0
 1551         c3     54    ccc     C1   1551 0.50749700  12.010000   ; qtot 0.507452
 1552         h1     54    ccc     H1   1552 -0.02808400   1.008000   ; qtot 0.479368
 1553         h1     54    ccc     H2   1553 -0.02808400   1.008000   ; qtot 0.451284
 1554         c3     54    ccc     C2   1554 -0.15486000  12.010000   ; qtot 0.296424
 1555         hc     54    ccc     H3   1555 0.10266400   1.008000   ; qtot 0.399088
 1556         hc     54    ccc     H4   1556 0.10266400   1.008000   ; qtot 0.501752
 1557         c3     54    ccc     C3   1557 -0.15693500  12.010000   ; qtot 0.344817
 1558         h1     54    ccc     H5   1558 0.08499200   1.008000   ; qtot 0.429809
 1559         h1     54    ccc     H6   1559 0.08499200   1.008000   ; qtot 0.514801
 1560         n3     54    ccc     N1   1560 -0.29948700  14.010000   ; qtot 0.215314
 1561         c3     54    ccc     C4   1561 -0.01321200  12.010000   ; qtot 0.202102
 1562         h1     54    ccc     H7   1562 0.08172200   1.008000   ; qtot 0.283824
 1563         h1     54    ccc     H8   1563 0.08172200   1.008000   ; qtot 0.365546
 1564         c3     54    ccc     C5   1564 -0.22180000  12.010000   ; qtot 0.143746
 1565         hc     54    ccc     H9   1565 0.09671800   1.008000   ; qtot 0.240464
 1566         hc     54    ccc    H10   1566 0.09671800   1.008000   ; qtot 0.337182
 1567          c     54    ccc     C6   1567 0.526324  12.010000   ; qtot 1.333709
 1568          o     54    ccc     O1   1568 -0.39142825  16.000000   ; qtot 0.637203
 1569         oh     54    ccc     O2   1569 -0.56822625  16.000000   ; qtot -0.203608
 1570         ho     54    ccc    H11   1570 0.4186155   1.008000   ; qtot 0.322467
 1571         c3     54    ccc     C7   1571 -0.01321200  12.010000   ; qtot 0.309255
 1572         h1     54    ccc    H12   1572 0.08172200   1.008000   ; qtot 0.390977
 1573         h1     54    ccc    H13   1573 0.08172200   1.008000   ; qtot 0.472699
 1574         c3     54    ccc     C8   1574 -0.22180000  12.010000   ; qtot 0.250899
 1575         hc     54    ccc    H14   1575 0.09671800   1.008000   ; qtot 0.347617
 1576         hc     54    ccc    H15   1576 0.09671800   1.008000   ; qtot 0.444335
 1577          c     54    ccc     C9   1577 0.526324  12.010000   ; qtot 1.440862
 1578          o     54    ccc     O3   1578 -0.39142825  16.000000   ; qtot 0.744356
 1579         oh     54    ccc     O4   1579 -0.56822625  16.000000   ; qtot -0.096455
 1580         ho     54    ccc    H16   1580 0.4186155   1.008000   ; qtot 0.429620
 1581         os     54    ccc     O5   1581 -0.42966500  16.000000   ; qtot -0.000045
; residue   55 ccc rtp ccc q 0.0
 1582         c3     55    ccc     C1   1582 0.50749700  12.010000   ; qtot 0.507452
 1583         h1     55    ccc     H1   1583 -0.02808400   1.008000   ; qtot 0.479368
 1584         h1     55    ccc     H2   1584 -0.02808400   1.008000   ; qtot 0.451284
 1585         c3     55    ccc     C2   1585 -0.15486000  12.010000   ; qtot 0.296424
 1586         hc     55    ccc     H3   1586 0.10266400   1.008000   ; qtot 0.399088
 1587         hc     55    ccc     H4   1587 0.10266400   1.008000   ; qtot 0.501752
 1588         c3     55    ccc     C3   1588 -0.15693500  12.010000   ; qtot 0.344817
 1589         h1     55    ccc     H5   1589 0.08499200   1.008000   ; qtot 0.429809
 1590         h1     55    ccc     H6   1590 0.08499200   1.008000   ; qtot 0.514801
 1591         n3     55    ccc     N1   1591 -0.29948700  14.010000   ; qtot 0.215314
 1592         c3     55    ccc     C4   1592 -0.01321200  12.010000   ; qtot 0.202102
 1593         h1     55    ccc     H7   1593 0.08172200   1.008000   ; qtot 0.283824
 1594         h1     55    ccc     H8   1594 0.08172200   1.008000   ; qtot 0.365546
 1595         c3     55    ccc     C5   1595 -0.22180000  12.010000   ; qtot 0.143746
 1596         hc     55    ccc     H9   1596 0.09671800   1.008000   ; qtot 0.240464
 1597         hc     55    ccc    H10   1597 0.09671800   1.008000   ; qtot 0.337182
 1598          c     55    ccc     C6   1598 0.526324  12.010000   ; qtot 1.333709
 1599          o     55    ccc     O1   1599 -0.39142825  16.000000   ; qtot 0.637203
 1600         oh     55    ccc     O2   1600 -0.56822625  16.000000   ; qtot -0.203608
 1601         ho     55    ccc    H11   1601 0.4186155   1.008000   ; qtot 0.322467
 1602         c3     55    ccc     C7   1602 -0.01321200  12.010000   ; qtot 0.309255
 1603         h1     55    ccc    H12   1603 0.08172200   1.008000   ; qtot 0.390977
 1604         h1     55    ccc    H13   1604 0.08172200   1.008000   ; qtot 0.472699
 1605         c3     55    ccc     C8   1605 -0.22180000  12.010000   ; qtot 0.250899
 1606         hc     55    ccc    H14   1606 0.09671800   1.008000   ; qtot 0.347617
 1607         hc     55    ccc    H15   1607 0.09671800   1.008000   ; qtot 0.444335
 1608          c     55    ccc     C9   1608 0.526324  12.010000   ; qtot 1.440862
 1609          o     55    ccc     O3   1609 -0.39142825  16.000000   ; qtot 0.744356
 1610         oh     55    ccc     O4   1610 -0.56822625  16.000000   ; qtot -0.096455
 1611         ho     55    ccc    H16   1611 0.4186155   1.008000   ; qtot 0.429620
 1612         os     55    ccc     O5   1612 -0.42966500  16.000000   ; qtot -0.000045
; residue   56 ccc rtp ccc q 0.0
 1613         c3     56    ccc     C1   1613 0.50749700  12.010000   ; qtot 0.507452
 1614         h1     56    ccc     H1   1614 -0.02808400   1.008000   ; qtot 0.479368
 1615         h1     56    ccc     H2   1615 -0.02808400   1.008000   ; qtot 0.451284
 1616         c3     56    ccc     C2   1616 -0.15486000  12.010000   ; qtot 0.296424
 1617         hc     56    ccc     H3   1617 0.10266400   1.008000   ; qtot 0.399088
 1618         hc     56    ccc     H4   1618 0.10266400   1.008000   ; qtot 0.501752
 1619         c3     56    ccc     C3   1619 -0.15693500  12.010000   ; qtot 0.344817
 1620         h1     56    ccc     H5   1620 0.08499200   1.008000   ; qtot 0.429809
 1621         h1     56    ccc     H6   1621 0.08499200   1.008000   ; qtot 0.514801
 1622         n3     56    ccc     N1   1622 -0.29948700  14.010000   ; qtot 0.215314
 1623         c3     56    ccc     C4   1623 -0.01321200  12.010000   ; qtot 0.202102
 1624         h1     56    ccc     H7   1624 0.08172200   1.008000   ; qtot 0.283824
 1625         h1     56    ccc     H8   1625 0.08172200   1.008000   ; qtot 0.365546
 1626         c3     56    ccc     C5   1626 -0.22180000  12.010000   ; qtot 0.143746
 1627         hc     56    ccc     H9   1627 0.09671800   1.008000   ; qtot 0.240464
 1628         hc     56    ccc    H10   1628 0.09671800   1.008000   ; qtot 0.337182
 1629          c     56    ccc     C6   1629 0.526324  12.010000   ; qtot 1.333709
 1630          o     56    ccc     O1   1630 -0.39142825  16.000000   ; qtot 0.637203
 1631         oh     56    ccc     O2   1631 -0.56822625  16.000000   ; qtot -0.203608
 1632         ho     56    ccc    H11   1632 0.4186155   1.008000   ; qtot 0.322467
 1633         c3     56    ccc     C7   1633 -0.01321200  12.010000   ; qtot 0.309255
 1634         h1     56    ccc    H12   1634 0.08172200   1.008000   ; qtot 0.390977
 1635         h1     56    ccc    H13   1635 0.08172200   1.008000   ; qtot 0.472699
 1636         c3     56    ccc     C8   1636 -0.22180000  12.010000   ; qtot 0.250899
 1637         hc     56    ccc    H14   1637 0.09671800   1.008000   ; qtot 0.347617
 1638         hc     56    ccc    H15   1638 0.09671800   1.008000   ; qtot 0.444335
 1639          c     56    ccc     C9   1639 0.526324  12.010000   ; qtot 1.440862
 1640          o     56    ccc     O3   1640 -0.39142825  16.000000   ; qtot 0.744356
 1641         oh     56    ccc     O4   1641 -0.56822625  16.000000   ; qtot -0.096455
 1642         ho     56    ccc    H16   1642 0.4186155   1.008000   ; qtot 0.429620
 1643         os     56    ccc     O5   1643 -0.42966500  16.000000   ; qtot -0.000045
; residue   57 ccc rtp ccc q 0.0
 1644         c3     57    ccc     C1   1644 0.50749700  12.010000   ; qtot 0.507452
 1645         h1     57    ccc     H1   1645 -0.02808400   1.008000   ; qtot 0.479368
 1646         h1     57    ccc     H2   1646 -0.02808400   1.008000   ; qtot 0.451284
 1647         c3     57    ccc     C2   1647 -0.15486000  12.010000   ; qtot 0.296424
 1648         hc     57    ccc     H3   1648 0.10266400   1.008000   ; qtot 0.399088
 1649         hc     57    ccc     H4   1649 0.10266400   1.008000   ; qtot 0.501752
 1650         c3     57    ccc     C3   1650 -0.15693500  12.010000   ; qtot 0.344817
 1651         h1     57    ccc     H5   1651 0.08499200   1.008000   ; qtot 0.429809
 1652         h1     57    ccc     H6   1652 0.08499200   1.008000   ; qtot 0.514801
 1653         n3     57    ccc     N1   1653 -0.29948700  14.010000   ; qtot 0.215314
 1654         c3     57    ccc     C4   1654 -0.01321200  12.010000   ; qtot 0.202102
 1655         h1     57    ccc     H7   1655 0.08172200   1.008000   ; qtot 0.283824
 1656         h1     57    ccc     H8   1656 0.08172200   1.008000   ; qtot 0.365546
 1657         c3     57    ccc     C5   1657 -0.22180000  12.010000   ; qtot 0.143746
 1658         hc     57    ccc     H9   1658 0.09671800   1.008000   ; qtot 0.240464
 1659         hc     57    ccc    H10   1659 0.09671800   1.008000   ; qtot 0.337182
 1660          c     57    ccc     C6   1660 0.526324  12.010000   ; qtot 1.333709
 1661          o     57    ccc     O1   1661 -0.39142825  16.000000   ; qtot 0.637203
 1662         oh     57    ccc     O2   1662 -0.56822625  16.000000   ; qtot -0.203608
 1663         ho     57    ccc    H11   1663 0.4186155   1.008000   ; qtot 0.322467
 1664         c3     57    ccc     C7   1664 -0.01321200  12.010000   ; qtot 0.309255
 1665         h1     57    ccc    H12   1665 0.08172200   1.008000   ; qtot 0.390977
 1666         h1     57    ccc    H13   1666 0.08172200   1.008000   ; qtot 0.472699
 1667         c3     57    ccc     C8   1667 -0.22180000  12.010000   ; qtot 0.250899
 1668         hc     57    ccc    H14   1668 0.09671800   1.008000   ; qtot 0.347617
 1669         hc     57    ccc    H15   1669 0.09671800   1.008000   ; qtot 0.444335
 1670          c     57    ccc     C9   1670 0.526324  12.010000   ; qtot 1.440862
 1671          o     57    ccc     O3   1671 -0.39142825  16.000000   ; qtot 0.744356
 1672         oh     57    ccc     O4   1672 -0.56822625  16.000000   ; qtot -0.096455
 1673         ho     57    ccc    H16   1673 0.4186155   1.008000   ; qtot 0.429620
 1674         os     57    ccc     O5   1674 -0.42966500  16.000000   ; qtot -0.000045
; residue   58 ccc rtp ccc q 0.0
 1675         c3     58    ccc     C1   1675 0.50749700  12.010000   ; qtot 0.507452
 1676         h1     58    ccc     H1   1676 -0.02808400   1.008000   ; qtot 0.479368
 1677         h1     58    ccc     H2   1677 -0.02808400   1.008000   ; qtot 0.451284
 1678         c3     58    ccc     C2   1678 -0.15486000  12.010000   ; qtot 0.296424
 1679         hc     58    ccc     H3   1679 0.10266400   1.008000   ; qtot 0.399088
 1680         hc     58    ccc     H4   1680 0.10266400   1.008000   ; qtot 0.501752
 1681         c3     58    ccc     C3   1681 -0.15693500  12.010000   ; qtot 0.344817
 1682         h1     58    ccc     H5   1682 0.08499200   1.008000   ; qtot 0.429809
 1683         h1     58    ccc     H6   1683 0.08499200   1.008000   ; qtot 0.514801
 1684         n3     58    ccc     N1   1684 -0.29948700  14.010000   ; qtot 0.215314
 1685         c3     58    ccc     C4   1685 -0.01321200  12.010000   ; qtot 0.202102
 1686         h1     58    ccc     H7   1686 0.08172200   1.008000   ; qtot 0.283824
 1687         h1     58    ccc     H8   1687 0.08172200   1.008000   ; qtot 0.365546
 1688         c3     58    ccc     C5   1688 -0.22180000  12.010000   ; qtot 0.143746
 1689         hc     58    ccc     H9   1689 0.09671800   1.008000   ; qtot 0.240464
 1690         hc     58    ccc    H10   1690 0.09671800   1.008000   ; qtot 0.337182
 1691          c     58    ccc     C6   1691 0.526324  12.010000   ; qtot 1.333709
 1692          o     58    ccc     O1   1692 -0.39142825  16.000000   ; qtot 0.637203
 1693         oh     58    ccc     O2   1693 -0.56822625  16.000000   ; qtot -0.203608
 1694         ho     58    ccc    H11   1694 0.4186155   1.008000   ; qtot 0.322467
 1695         c3     58    ccc     C7   1695 -0.01321200  12.010000   ; qtot 0.309255
 1696         h1     58    ccc    H12   1696 0.08172200   1.008000   ; qtot 0.390977
 1697         h1     58    ccc    H13   1697 0.08172200   1.008000   ; qtot 0.472699
 1698         c3     58    ccc     C8   1698 -0.22180000  12.010000   ; qtot 0.250899
 1699         hc     58    ccc    H14   1699 0.09671800   1.008000   ; qtot 0.347617
 1700         hc     58    ccc    H15   1700 0.09671800   1.008000   ; qtot 0.444335
 1701          c     58    ccc     C9   1701 0.526324  12.010000   ; qtot 1.440862
 1702          o     58    ccc     O3   1702 -0.39142825  16.000000   ; qtot 0.744356
 1703         oh     58    ccc     O4   1703 -0.56822625  16.000000   ; qtot -0.096455
 1704         ho     58    ccc    H16   1704 0.4186155   1.008000   ; qtot 0.429620
 1705         os     58    ccc     O5   1705 -0.42966500  16.000000   ; qtot -0.000045
; residue   59 ccc rtp ccc q 0.0
 1706         c3     59    ccc     C1   1706 0.50749700  12.010000   ; qtot 0.507452
 1707         h1     59    ccc     H1   1707 -0.02808400   1.008000   ; qtot 0.479368
 1708         h1     59    ccc     H2   1708 -0.02808400   1.008000   ; qtot 0.451284
 1709         c3     59    ccc     C2   1709 -0.15486000  12.010000   ; qtot 0.296424
 1710         hc     59    ccc     H3   1710 0.10266400   1.008000   ; qtot 0.399088
 1711         hc     59    ccc     H4   1711 0.10266400   1.008000   ; qtot 0.501752
 1712         c3     59    ccc     C3   1712 -0.15693500  12.010000   ; qtot 0.344817
 1713         h1     59    ccc     H5   1713 0.08499200   1.008000   ; qtot 0.429809
 1714         h1     59    ccc     H6   1714 0.08499200   1.008000   ; qtot 0.514801
 1715         n3     59    ccc     N1   1715 -0.29948700  14.010000   ; qtot 0.215314
 1716         c3     59    ccc     C4   1716 -0.01321200  12.010000   ; qtot 0.202102
 1717         h1     59    ccc     H7   1717 0.08172200   1.008000   ; qtot 0.283824
 1718         h1     59    ccc     H8   1718 0.08172200   1.008000   ; qtot 0.365546
 1719         c3     59    ccc     C5   1719 -0.22180000  12.010000   ; qtot 0.143746
 1720         hc     59    ccc     H9   1720 0.09671800   1.008000   ; qtot 0.240464
 1721         hc     59    ccc    H10   1721 0.09671800   1.008000   ; qtot 0.337182
 1722          c     59    ccc     C6   1722 0.526324  12.010000   ; qtot 1.333709
 1723          o     59    ccc     O1   1723 -0.39142825  16.000000   ; qtot 0.637203
 1724         oh     59    ccc     O2   1724 -0.56822625  16.000000   ; qtot -0.203608
 1725         ho     59    ccc    H11   1725 0.4186155   1.008000   ; qtot 0.322467
 1726         c3     59    ccc     C7   1726 -0.01321200  12.010000   ; qtot 0.309255
 1727         h1     59    ccc    H12   1727 0.08172200   1.008000   ; qtot 0.390977
 1728         h1     59    ccc    H13   1728 0.08172200   1.008000   ; qtot 0.472699
 1729         c3     59    ccc     C8   1729 -0.22180000  12.010000   ; qtot 0.250899
 1730         hc     59    ccc    H14   1730 0.09671800   1.008000   ; qtot 0.347617
 1731         hc     59    ccc    H15   1731 0.09671800   1.008000   ; qtot 0.444335
 1732          c     59    ccc     C9   1732 0.526324  12.010000   ; qtot 1.440862
 1733          o     59    ccc     O3   1733 -0.39142825  16.000000   ; qtot 0.744356
 1734         oh     59    ccc     O4   1734 -0.56822625  16.000000   ; qtot -0.096455
 1735         ho     59    ccc    H16   1735 0.4186155   1.008000   ; qtot 0.429620
 1736         os     59    ccc     O5   1736 -0.42966500  16.000000   ; qtot -0.000045
; residue   60 ccc rtp ccc q 0.0
 1737         c3     60    ccc     C1   1737 0.50749700  12.010000   ; qtot 0.507452
 1738         h1     60    ccc     H1   1738 -0.02808400   1.008000   ; qtot 0.479368
 1739         h1     60    ccc     H2   1739 -0.02808400   1.008000   ; qtot 0.451284
 1740         c3     60    ccc     C2   1740 -0.15486000  12.010000   ; qtot 0.296424
 1741         hc     60    ccc     H3   1741 0.10266400   1.008000   ; qtot 0.399088
 1742         hc     60    ccc     H4   1742 0.10266400   1.008000   ; qtot 0.501752
 1743         c3     60    ccc     C3   1743 -0.15693500  12.010000   ; qtot 0.344817
 1744         h1     60    ccc     H5   1744 0.08499200   1.008000   ; qtot 0.429809
 1745         h1     60    ccc     H6   1745 0.08499200   1.008000   ; qtot 0.514801
 1746         n3     60    ccc     N1   1746 -0.29948700  14.010000   ; qtot 0.215314
 1747         c3     60    ccc     C4   1747 -0.01321200  12.010000   ; qtot 0.202102
 1748         h1     60    ccc     H7   1748 0.08172200   1.008000   ; qtot 0.283824
 1749         h1     60    ccc     H8   1749 0.08172200   1.008000   ; qtot 0.365546
 1750         c3     60    ccc     C5   1750 -0.22180000  12.010000   ; qtot 0.143746
 1751         hc     60    ccc     H9   1751 0.09671800   1.008000   ; qtot 0.240464
 1752         hc     60    ccc    H10   1752 0.09671800   1.008000   ; qtot 0.337182
 1753          c     60    ccc     C6   1753 0.526324  12.010000   ; qtot 1.333709
 1754          o     60    ccc     O1   1754 -0.39142825  16.000000   ; qtot 0.637203
 1755         oh     60    ccc     O2   1755 -0.56822625  16.000000   ; qtot -0.203608
 1756         ho     60    ccc    H11   1756 0.4186155   1.008000   ; qtot 0.322467
 1757         c3     60    ccc     C7   1757 -0.01321200  12.010000   ; qtot 0.309255
 1758         h1     60    ccc    H12   1758 0.08172200   1.008000   ; qtot 0.390977
 1759         h1     60    ccc    H13   1759 0.08172200   1.008000   ; qtot 0.472699
 1760         c3     60    ccc     C8   1760 -0.22180000  12.010000   ; qtot 0.250899
 1761         hc     60    ccc    H14   1761 0.09671800   1.008000   ; qtot 0.347617
 1762         hc     60    ccc    H15   1762 0.09671800   1.008000   ; qtot 0.444335
 1763          c     60    ccc     C9   1763 0.526324  12.010000   ; qtot 1.440862
 1764          o     60    ccc     O3   1764 -0.39142825  16.000000   ; qtot 0.744356
 1765         oh     60    ccc     O4   1765 -0.56822625  16.000000   ; qtot -0.096455
 1766         ho     60    ccc    H16   1766 0.4186155   1.008000   ; qtot 0.429620
 1767         os     60    ccc     O5   1767 -0.42966500  16.000000   ; qtot -0.000045
; residue   61 ccc rtp ccc q 0.0
 1768         c3     61    ccc     C1   1768 0.50749700  12.010000   ; qtot 0.507452
 1769         h1     61    ccc     H1   1769 -0.02808400   1.008000   ; qtot 0.479368
 1770         h1     61    ccc     H2   1770 -0.02808400   1.008000   ; qtot 0.451284
 1771         c3     61    ccc     C2   1771 -0.15486000  12.010000   ; qtot 0.296424
 1772         hc     61    ccc     H3   1772 0.10266400   1.008000   ; qtot 0.399088
 1773         hc     61    ccc     H4   1773 0.10266400   1.008000   ; qtot 0.501752
 1774         c3     61    ccc     C3   1774 -0.15693500  12.010000   ; qtot 0.344817
 1775         h1     61    ccc     H5   1775 0.08499200   1.008000   ; qtot 0.429809
 1776         h1     61    ccc     H6   1776 0.08499200   1.008000   ; qtot 0.514801
 1777         n3     61    ccc     N1   1777 -0.29948700  14.010000   ; qtot 0.215314
 1778         c3     61    ccc     C4   1778 -0.01321200  12.010000   ; qtot 0.202102
 1779         h1     61    ccc     H7   1779 0.08172200   1.008000   ; qtot 0.283824
 1780         h1     61    ccc     H8   1780 0.08172200   1.008000   ; qtot 0.365546
 1781         c3     61    ccc     C5   1781 -0.22180000  12.010000   ; qtot 0.143746
 1782         hc     61    ccc     H9   1782 0.09671800   1.008000   ; qtot 0.240464
 1783         hc     61    ccc    H10   1783 0.09671800   1.008000   ; qtot 0.337182
 1784          c     61    ccc     C6   1784 0.526324  12.010000   ; qtot 1.333709
 1785          o     61    ccc     O1   1785 -0.39142825  16.000000   ; qtot 0.637203
 1786         oh     61    ccc     O2   1786 -0.56822625  16.000000   ; qtot -0.203608
 1787         ho     61    ccc    H11   1787 0.4186155   1.008000   ; qtot 0.322467
 1788         c3     61    ccc     C7   1788 -0.01321200  12.010000   ; qtot 0.309255
 1789         h1     61    ccc    H12   1789 0.08172200   1.008000   ; qtot 0.390977
 1790         h1     61    ccc    H13   1790 0.08172200   1.008000   ; qtot 0.472699
 1791         c3     61    ccc     C8   1791 -0.22180000  12.010000   ; qtot 0.250899
 1792         hc     61    ccc    H14   1792 0.09671800   1.008000   ; qtot 0.347617
 1793         hc     61    ccc    H15   1793 0.09671800   1.008000   ; qtot 0.444335
 1794          c     61    ccc     C9   1794 0.526324  12.010000   ; qtot 1.440862
 1795          o     61    ccc     O3   1795 -0.39142825  16.000000   ; qtot 0.744356
 1796         oh     61    ccc     O4   1796 -0.56822625  16.000000   ; qtot -0.096455
 1797         ho     61    ccc    H16   1797 0.4186155   1.008000   ; qtot 0.429620
 1798         os     61    ccc     O5   1798 -0.42966500  16.000000   ; qtot -0.000045
; residue   62 ccc rtp ccc q 0.0
 1799         c3     62    ccc     C1   1799 0.50749700  12.010000   ; qtot 0.507452
 1800         h1     62    ccc     H1   1800 -0.02808400   1.008000   ; qtot 0.479368
 1801         h1     62    ccc     H2   1801 -0.02808400   1.008000   ; qtot 0.451284
 1802         c3     62    ccc     C2   1802 -0.15486000  12.010000   ; qtot 0.296424
 1803         hc     62    ccc     H3   1803 0.10266400   1.008000   ; qtot 0.399088
 1804         hc     62    ccc     H4   1804 0.10266400   1.008000   ; qtot 0.501752
 1805         c3     62    ccc     C3   1805 -0.15693500  12.010000   ; qtot 0.344817
 1806         h1     62    ccc     H5   1806 0.08499200   1.008000   ; qtot 0.429809
 1807         h1     62    ccc     H6   1807 0.08499200   1.008000   ; qtot 0.514801
 1808         n3     62    ccc     N1   1808 -0.29948700  14.010000   ; qtot 0.215314
 1809         c3     62    ccc     C4   1809 -0.01321200  12.010000   ; qtot 0.202102
 1810         h1     62    ccc     H7   1810 0.08172200   1.008000   ; qtot 0.283824
 1811         h1     62    ccc     H8   1811 0.08172200   1.008000   ; qtot 0.365546
 1812         c3     62    ccc     C5   1812 -0.22180000  12.010000   ; qtot 0.143746
 1813         hc     62    ccc     H9   1813 0.09671800   1.008000   ; qtot 0.240464
 1814         hc     62    ccc    H10   1814 0.09671800   1.008000   ; qtot 0.337182
 1815          c     62    ccc     C6   1815 0.526324  12.010000   ; qtot 1.333709
 1816          o     62    ccc     O1   1816 -0.39142825  16.000000   ; qtot 0.637203
 1817         oh     62    ccc     O2   1817 -0.56822625  16.000000   ; qtot -0.203608
 1818         ho     62    ccc    H11   1818 0.4186155   1.008000   ; qtot 0.322467
 1819         c3     62    ccc     C7   1819 -0.01321200  12.010000   ; qtot 0.309255
 1820         h1     62    ccc    H12   1820 0.08172200   1.008000   ; qtot 0.390977
 1821         h1     62    ccc    H13   1821 0.08172200   1.008000   ; qtot 0.472699
 1822         c3     62    ccc     C8   1822 -0.22180000  12.010000   ; qtot 0.250899
 1823         hc     62    ccc    H14   1823 0.09671800   1.008000   ; qtot 0.347617
 1824         hc     62    ccc    H15   1824 0.09671800   1.008000   ; qtot 0.444335
 1825          c     62    ccc     C9   1825 0.526324  12.010000   ; qtot 1.440862
 1826          o     62    ccc     O3   1826 -0.39142825  16.000000   ; qtot 0.744356
 1827         oh     62    ccc     O4   1827 -0.56822625  16.000000   ; qtot -0.096455
 1828         ho     62    ccc    H16   1828 0.4186155   1.008000   ; qtot 0.429620
 1829         os     62    ccc     O5   1829 -0.42966500  16.000000   ; qtot -0.000045
; residue   63 ccc rtp ccc q 0.0
 1830         c3     63    ccc     C1   1830 0.50749700  12.010000   ; qtot 0.507452
 1831         h1     63    ccc     H1   1831 -0.02808400   1.008000   ; qtot 0.479368
 1832         h1     63    ccc     H2   1832 -0.02808400   1.008000   ; qtot 0.451284
 1833         c3     63    ccc     C2   1833 -0.15486000  12.010000   ; qtot 0.296424
 1834         hc     63    ccc     H3   1834 0.10266400   1.008000   ; qtot 0.399088
 1835         hc     63    ccc     H4   1835 0.10266400   1.008000   ; qtot 0.501752
 1836         c3     63    ccc     C3   1836 -0.15693500  12.010000   ; qtot 0.344817
 1837         h1     63    ccc     H5   1837 0.08499200   1.008000   ; qtot 0.429809
 1838         h1     63    ccc     H6   1838 0.08499200   1.008000   ; qtot 0.514801
 1839         n3     63    ccc     N1   1839 -0.29948700  14.010000   ; qtot 0.215314
 1840         c3     63    ccc     C4   1840 -0.01321200  12.010000   ; qtot 0.202102
 1841         h1     63    ccc     H7   1841 0.08172200   1.008000   ; qtot 0.283824
 1842         h1     63    ccc     H8   1842 0.08172200   1.008000   ; qtot 0.365546
 1843         c3     63    ccc     C5   1843 -0.22180000  12.010000   ; qtot 0.143746
 1844         hc     63    ccc     H9   1844 0.09671800   1.008000   ; qtot 0.240464
 1845         hc     63    ccc    H10   1845 0.09671800   1.008000   ; qtot 0.337182
 1846          c     63    ccc     C6   1846 0.526324  12.010000   ; qtot 1.333709
 1847          o     63    ccc     O1   1847 -0.39142825  16.000000   ; qtot 0.637203
 1848         oh     63    ccc     O2   1848 -0.56822625  16.000000   ; qtot -0.203608
 1849         ho     63    ccc    H11   1849 0.4186155   1.008000   ; qtot 0.322467
 1850         c3     63    ccc     C7   1850 -0.01321200  12.010000   ; qtot 0.309255
 1851         h1     63    ccc    H12   1851 0.08172200   1.008000   ; qtot 0.390977
 1852         h1     63    ccc    H13   1852 0.08172200   1.008000   ; qtot 0.472699
 1853         c3     63    ccc     C8   1853 -0.22180000  12.010000   ; qtot 0.250899
 1854         hc     63    ccc    H14   1854 0.09671800   1.008000   ; qtot 0.347617
 1855         hc     63    ccc    H15   1855 0.09671800   1.008000   ; qtot 0.444335
 1856          c     63    ccc     C9   1856 0.526324  12.010000   ; qtot 1.440862
 1857          o     63    ccc     O3   1857 -0.39142825  16.000000   ; qtot 0.744356
 1858         oh     63    ccc     O4   1858 -0.56822625  16.000000   ; qtot -0.096455
 1859         ho     63    ccc    H16   1859 0.4186155   1.008000   ; qtot 0.429620
 1860         os     63    ccc     O5   1860 -0.42966500  16.000000   ; qtot -0.000045
; residue   64 ccc rtp ccc q 0.0
 1861         c3     64    ccc     C1   1861 0.50749700  12.010000   ; qtot 0.507452
 1862         h1     64    ccc     H1   1862 -0.02808400   1.008000   ; qtot 0.479368
 1863         h1     64    ccc     H2   1863 -0.02808400   1.008000   ; qtot 0.451284
 1864         c3     64    ccc     C2   1864 -0.15486000  12.010000   ; qtot 0.296424
 1865         hc     64    ccc     H3   1865 0.10266400   1.008000   ; qtot 0.399088
 1866         hc     64    ccc     H4   1866 0.10266400   1.008000   ; qtot 0.501752
 1867         c3     64    ccc     C3   1867 -0.15693500  12.010000   ; qtot 0.344817
 1868         h1     64    ccc     H5   1868 0.08499200   1.008000   ; qtot 0.429809
 1869         h1     64    ccc     H6   1869 0.08499200   1.008000   ; qtot 0.514801
 1870         n3     64    ccc     N1   1870 -0.29948700  14.010000   ; qtot 0.215314
 1871         c3     64    ccc     C4   1871 -0.01321200  12.010000   ; qtot 0.202102
 1872         h1     64    ccc     H7   1872 0.08172200   1.008000   ; qtot 0.283824
 1873         h1     64    ccc     H8   1873 0.08172200   1.008000   ; qtot 0.365546
 1874         c3     64    ccc     C5   1874 -0.22180000  12.010000   ; qtot 0.143746
 1875         hc     64    ccc     H9   1875 0.09671800   1.008000   ; qtot 0.240464
 1876         hc     64    ccc    H10   1876 0.09671800   1.008000   ; qtot 0.337182
 1877          c     64    ccc     C6   1877 0.526324  12.010000   ; qtot 1.333709
 1878          o     64    ccc     O1   1878 -0.39142825  16.000000   ; qtot 0.637203
 1879         oh     64    ccc     O2   1879 -0.56822625  16.000000   ; qtot -0.203608
 1880         ho     64    ccc    H11   1880 0.4186155   1.008000   ; qtot 0.322467
 1881         c3     64    ccc     C7   1881 -0.01321200  12.010000   ; qtot 0.309255
 1882         h1     64    ccc    H12   1882 0.08172200   1.008000   ; qtot 0.390977
 1883         h1     64    ccc    H13   1883 0.08172200   1.008000   ; qtot 0.472699
 1884         c3     64    ccc     C8   1884 -0.22180000  12.010000   ; qtot 0.250899
 1885         hc     64    ccc    H14   1885 0.09671800   1.008000   ; qtot 0.347617
 1886         hc     64    ccc    H15   1886 0.09671800   1.008000   ; qtot 0.444335
 1887          c     64    ccc     C9   1887 0.526324  12.010000   ; qtot 1.440862
 1888          o     64    ccc     O3   1888 -0.39142825  16.000000   ; qtot 0.744356
 1889         oh     64    ccc     O4   1889 -0.56822625  16.000000   ; qtot -0.096455
 1890         ho     64    ccc    H16   1890 0.4186155   1.008000   ; qtot 0.429620
 1891         os     64    ccc     O5   1891 -0.42966500  16.000000   ; qtot -0.000045
; residue   65 ccc rtp ccc q 0.0
 1892         c3     65    ccc     C1   1892 0.50749700  12.010000   ; qtot 0.507452
 1893         h1     65    ccc     H1   1893 -0.02808400   1.008000   ; qtot 0.479368
 1894         h1     65    ccc     H2   1894 -0.02808400   1.008000   ; qtot 0.451284
 1895         c3     65    ccc     C2   1895 -0.15486000  12.010000   ; qtot 0.296424
 1896         hc     65    ccc     H3   1896 0.10266400   1.008000   ; qtot 0.399088
 1897         hc     65    ccc     H4   1897 0.10266400   1.008000   ; qtot 0.501752
 1898         c3     65    ccc     C3   1898 -0.15693500  12.010000   ; qtot 0.344817
 1899         h1     65    ccc     H5   1899 0.08499200   1.008000   ; qtot 0.429809
 1900         h1     65    ccc     H6   1900 0.08499200   1.008000   ; qtot 0.514801
 1901         n3     65    ccc     N1   1901 -0.29948700  14.010000   ; qtot 0.215314
 1902         c3     65    ccc     C4   1902 -0.01321200  12.010000   ; qtot 0.202102
 1903         h1     65    ccc     H7   1903 0.08172200   1.008000   ; qtot 0.283824
 1904         h1     65    ccc     H8   1904 0.08172200   1.008000   ; qtot 0.365546
 1905         c3     65    ccc     C5   1905 -0.22180000  12.010000   ; qtot 0.143746
 1906         hc     65    ccc     H9   1906 0.09671800   1.008000   ; qtot 0.240464
 1907         hc     65    ccc    H10   1907 0.09671800   1.008000   ; qtot 0.337182
 1908          c     65    ccc     C6   1908 0.526324  12.010000   ; qtot 1.333709
 1909          o     65    ccc     O1   1909 -0.39142825  16.000000   ; qtot 0.637203
 1910         oh     65    ccc     O2   1910 -0.56822625  16.000000   ; qtot -0.203608
 1911         ho     65    ccc    H11   1911 0.4186155   1.008000   ; qtot 0.322467
 1912         c3     65    ccc     C7   1912 -0.01321200  12.010000   ; qtot 0.309255
 1913         h1     65    ccc    H12   1913 0.08172200   1.008000   ; qtot 0.390977
 1914         h1     65    ccc    H13   1914 0.08172200   1.008000   ; qtot 0.472699
 1915         c3     65    ccc     C8   1915 -0.22180000  12.010000   ; qtot 0.250899
 1916         hc     65    ccc    H14   1916 0.09671800   1.008000   ; qtot 0.347617
 1917         hc     65    ccc    H15   1917 0.09671800   1.008000   ; qtot 0.444335
 1918          c     65    ccc     C9   1918 0.526324  12.010000   ; qtot 1.440862
 1919          o     65    ccc     O3   1919 -0.39142825  16.000000   ; qtot 0.744356
 1920         oh     65    ccc     O4   1920 -0.56822625  16.000000   ; qtot -0.096455
 1921         ho     65    ccc    H16   1921 0.4186155   1.008000   ; qtot 0.429620
 1922         os     65    ccc     O5   1922 -0.42966500  16.000000   ; qtot -0.000045
; residue   66 ccc rtp ccc q 0.0
 1923         c3     66    ccc     C1   1923 0.50749700  12.010000   ; qtot 0.507452
 1924         h1     66    ccc     H1   1924 -0.02808400   1.008000   ; qtot 0.479368
 1925         h1     66    ccc     H2   1925 -0.02808400   1.008000   ; qtot 0.451284
 1926         c3     66    ccc     C2   1926 -0.15486000  12.010000   ; qtot 0.296424
 1927         hc     66    ccc     H3   1927 0.10266400   1.008000   ; qtot 0.399088
 1928         hc     66    ccc     H4   1928 0.10266400   1.008000   ; qtot 0.501752
 1929         c3     66    ccc     C3   1929 -0.15693500  12.010000   ; qtot 0.344817
 1930         h1     66    ccc     H5   1930 0.08499200   1.008000   ; qtot 0.429809
 1931         h1     66    ccc     H6   1931 0.08499200   1.008000   ; qtot 0.514801
 1932         n3     66    ccc     N1   1932 -0.29948700  14.010000   ; qtot 0.215314
 1933         c3     66    ccc     C4   1933 -0.01321200  12.010000   ; qtot 0.202102
 1934         h1     66    ccc     H7   1934 0.08172200   1.008000   ; qtot 0.283824
 1935         h1     66    ccc     H8   1935 0.08172200   1.008000   ; qtot 0.365546
 1936         c3     66    ccc     C5   1936 -0.22180000  12.010000   ; qtot 0.143746
 1937         hc     66    ccc     H9   1937 0.09671800   1.008000   ; qtot 0.240464
 1938         hc     66    ccc    H10   1938 0.09671800   1.008000   ; qtot 0.337182
 1939          c     66    ccc     C6   1939 0.526324  12.010000   ; qtot 1.333709
 1940          o     66    ccc     O1   1940 -0.39142825  16.000000   ; qtot 0.637203
 1941         oh     66    ccc     O2   1941 -0.56822625  16.000000   ; qtot -0.203608
 1942         ho     66    ccc    H11   1942 0.4186155   1.008000   ; qtot 0.322467
 1943         c3     66    ccc     C7   1943 -0.01321200  12.010000   ; qtot 0.309255
 1944         h1     66    ccc    H12   1944 0.08172200   1.008000   ; qtot 0.390977
 1945         h1     66    ccc    H13   1945 0.08172200   1.008000   ; qtot 0.472699
 1946         c3     66    ccc     C8   1946 -0.22180000  12.010000   ; qtot 0.250899
 1947         hc     66    ccc    H14   1947 0.09671800   1.008000   ; qtot 0.347617
 1948         hc     66    ccc    H15   1948 0.09671800   1.008000   ; qtot 0.444335
 1949          c     66    ccc     C9   1949 0.526324  12.010000   ; qtot 1.440862
 1950          o     66    ccc     O3   1950 -0.39142825  16.000000   ; qtot 0.744356
 1951         oh     66    ccc     O4   1951 -0.56822625  16.000000   ; qtot -0.096455
 1952         ho     66    ccc    H16   1952 0.4186155   1.008000   ; qtot 0.429620
 1953         os     66    ccc     O5   1953 -0.42966500  16.000000   ; qtot -0.000045
; residue   67 ccc rtp ccc q 0.0
 1954         c3     67    ccc     C1   1954 0.50749700  12.010000   ; qtot 0.507452
 1955         h1     67    ccc     H1   1955 -0.02808400   1.008000   ; qtot 0.479368
 1956         h1     67    ccc     H2   1956 -0.02808400   1.008000   ; qtot 0.451284
 1957         c3     67    ccc     C2   1957 -0.15486000  12.010000   ; qtot 0.296424
 1958         hc     67    ccc     H3   1958 0.10266400   1.008000   ; qtot 0.399088
 1959         hc     67    ccc     H4   1959 0.10266400   1.008000   ; qtot 0.501752
 1960         c3     67    ccc     C3   1960 -0.15693500  12.010000   ; qtot 0.344817
 1961         h1     67    ccc     H5   1961 0.08499200   1.008000   ; qtot 0.429809
 1962         h1     67    ccc     H6   1962 0.08499200   1.008000   ; qtot 0.514801
 1963         n3     67    ccc     N1   1963 -0.29948700  14.010000   ; qtot 0.215314
 1964         c3     67    ccc     C4   1964 -0.01321200  12.010000   ; qtot 0.202102
 1965         h1     67    ccc     H7   1965 0.08172200   1.008000   ; qtot 0.283824
 1966         h1     67    ccc     H8   1966 0.08172200   1.008000   ; qtot 0.365546
 1967         c3     67    ccc     C5   1967 -0.22180000  12.010000   ; qtot 0.143746
 1968         hc     67    ccc     H9   1968 0.09671800   1.008000   ; qtot 0.240464
 1969         hc     67    ccc    H10   1969 0.09671800   1.008000   ; qtot 0.337182
 1970          c     67    ccc     C6   1970 0.526324  12.010000   ; qtot 1.333709
 1971          o     67    ccc     O1   1971 -0.39142825  16.000000   ; qtot 0.637203
 1972         oh     67    ccc     O2   1972 -0.56822625  16.000000   ; qtot -0.203608
 1973         ho     67    ccc    H11   1973 0.4186155   1.008000   ; qtot 0.322467
 1974         c3     67    ccc     C7   1974 -0.01321200  12.010000   ; qtot 0.309255
 1975         h1     67    ccc    H12   1975 0.08172200   1.008000   ; qtot 0.390977
 1976         h1     67    ccc    H13   1976 0.08172200   1.008000   ; qtot 0.472699
 1977         c3     67    ccc     C8   1977 -0.22180000  12.010000   ; qtot 0.250899
 1978         hc     67    ccc    H14   1978 0.09671800   1.008000   ; qtot 0.347617
 1979         hc     67    ccc    H15   1979 0.09671800   1.008000   ; qtot 0.444335
 1980          c     67    ccc     C9   1980 0.526324  12.010000   ; qtot 1.440862
 1981          o     67    ccc     O3   1981 -0.39142825  16.000000   ; qtot 0.744356
 1982         oh     67    ccc     O4   1982 -0.56822625  16.000000   ; qtot -0.096455
 1983         ho     67    ccc    H16   1983 0.4186155   1.008000   ; qtot 0.429620
 1984         os     67    ccc     O5   1984 -0.42966500  16.000000   ; qtot -0.000045
; residue   68 ccc rtp ccc q 0.0
 1985         c3     68    ccc     C1   1985 0.50749700  12.010000   ; qtot 0.507452
 1986         h1     68    ccc     H1   1986 -0.02808400   1.008000   ; qtot 0.479368
 1987         h1     68    ccc     H2   1987 -0.02808400   1.008000   ; qtot 0.451284
 1988         c3     68    ccc     C2   1988 -0.15486000  12.010000   ; qtot 0.296424
 1989         hc     68    ccc     H3   1989 0.10266400   1.008000   ; qtot 0.399088
 1990         hc     68    ccc     H4   1990 0.10266400   1.008000   ; qtot 0.501752
 1991         c3     68    ccc     C3   1991 -0.15693500  12.010000   ; qtot 0.344817
 1992         h1     68    ccc     H5   1992 0.08499200   1.008000   ; qtot 0.429809
 1993         h1     68    ccc     H6   1993 0.08499200   1.008000   ; qtot 0.514801
 1994         n3     68    ccc     N1   1994 -0.29948700  14.010000   ; qtot 0.215314
 1995         c3     68    ccc     C4   1995 -0.01321200  12.010000   ; qtot 0.202102
 1996         h1     68    ccc     H7   1996 0.08172200   1.008000   ; qtot 0.283824
 1997         h1     68    ccc     H8   1997 0.08172200   1.008000   ; qtot 0.365546
 1998         c3     68    ccc     C5   1998 -0.22180000  12.010000   ; qtot 0.143746
 1999         hc     68    ccc     H9   1999 0.09671800   1.008000   ; qtot 0.240464
 2000         hc     68    ccc    H10   2000 0.09671800   1.008000   ; qtot 0.337182
 2001          c     68    ccc     C6   2001 0.526324  12.010000   ; qtot 1.333709
 2002          o     68    ccc     O1   2002 -0.39142825  16.000000   ; qtot 0.637203
 2003         oh     68    ccc     O2   2003 -0.56822625  16.000000   ; qtot -0.203608
 2004         ho     68    ccc    H11   2004 0.4186155   1.008000   ; qtot 0.322467
 2005         c3     68    ccc     C7   2005 -0.01321200  12.010000   ; qtot 0.309255
 2006         h1     68    ccc    H12   2006 0.08172200   1.008000   ; qtot 0.390977
 2007         h1     68    ccc    H13   2007 0.08172200   1.008000   ; qtot 0.472699
 2008         c3     68    ccc     C8   2008 -0.22180000  12.010000   ; qtot 0.250899
 2009         hc     68    ccc    H14   2009 0.09671800   1.008000   ; qtot 0.347617
 2010         hc     68    ccc    H15   2010 0.09671800   1.008000   ; qtot 0.444335
 2011          c     68    ccc     C9   2011 0.526324  12.010000   ; qtot 1.440862
 2012          o     68    ccc     O3   2012 -0.39142825  16.000000   ; qtot 0.744356
 2013         oh     68    ccc     O4   2013 -0.56822625  16.000000   ; qtot -0.096455
 2014         ho     68    ccc    H16   2014 0.4186155   1.008000   ; qtot 0.429620
 2015         os     68    ccc     O5   2015 -0.42966500  16.000000   ; qtot -0.000045
; residue   69 ccc rtp ccc q 0.0
 2016         c3     69    ccc     C1   2016 0.50749700  12.010000   ; qtot 0.507452
 2017         h1     69    ccc     H1   2017 -0.02808400   1.008000   ; qtot 0.479368
 2018         h1     69    ccc     H2   2018 -0.02808400   1.008000   ; qtot 0.451284
 2019         c3     69    ccc     C2   2019 -0.15486000  12.010000   ; qtot 0.296424
 2020         hc     69    ccc     H3   2020 0.10266400   1.008000   ; qtot 0.399088
 2021         hc     69    ccc     H4   2021 0.10266400   1.008000   ; qtot 0.501752
 2022         c3     69    ccc     C3   2022 -0.15693500  12.010000   ; qtot 0.344817
 2023         h1     69    ccc     H5   2023 0.08499200   1.008000   ; qtot 0.429809
 2024         h1     69    ccc     H6   2024 0.08499200   1.008000   ; qtot 0.514801
 2025         n3     69    ccc     N1   2025 -0.29948700  14.010000   ; qtot 0.215314
 2026         c3     69    ccc     C4   2026 -0.01321200  12.010000   ; qtot 0.202102
 2027         h1     69    ccc     H7   2027 0.08172200   1.008000   ; qtot 0.283824
 2028         h1     69    ccc     H8   2028 0.08172200   1.008000   ; qtot 0.365546
 2029         c3     69    ccc     C5   2029 -0.22180000  12.010000   ; qtot 0.143746
 2030         hc     69    ccc     H9   2030 0.09671800   1.008000   ; qtot 0.240464
 2031         hc     69    ccc    H10   2031 0.09671800   1.008000   ; qtot 0.337182
 2032          c     69    ccc     C6   2032 0.526324  12.010000   ; qtot 1.333709
 2033          o     69    ccc     O1   2033 -0.39142825  16.000000   ; qtot 0.637203
 2034         oh     69    ccc     O2   2034 -0.56822625  16.000000   ; qtot -0.203608
 2035         ho     69    ccc    H11   2035 0.4186155   1.008000   ; qtot 0.322467
 2036         c3     69    ccc     C7   2036 -0.01321200  12.010000   ; qtot 0.309255
 2037         h1     69    ccc    H12   2037 0.08172200   1.008000   ; qtot 0.390977
 2038         h1     69    ccc    H13   2038 0.08172200   1.008000   ; qtot 0.472699
 2039         c3     69    ccc     C8   2039 -0.22180000  12.010000   ; qtot 0.250899
 2040         hc     69    ccc    H14   2040 0.09671800   1.008000   ; qtot 0.347617
 2041         hc     69    ccc    H15   2041 0.09671800   1.008000   ; qtot 0.444335
 2042          c     69    ccc     C9   2042 0.526324  12.010000   ; qtot 1.440862
 2043          o     69    ccc     O3   2043 -0.39142825  16.000000   ; qtot 0.744356
 2044         oh     69    ccc     O4   2044 -0.56822625  16.000000   ; qtot -0.096455
 2045         ho     69    ccc    H16   2045 0.4186155   1.008000   ; qtot 0.429620
 2046         os     69    ccc     O5   2046 -0.42966500  16.000000   ; qtot -0.000045
; residue   70 ccc rtp ccc q 0.0
 2047         c3     70    ccc     C1   2047 0.50749700  12.010000   ; qtot 0.507452
 2048         h1     70    ccc     H1   2048 -0.02808400   1.008000   ; qtot 0.479368
 2049         h1     70    ccc     H2   2049 -0.02808400   1.008000   ; qtot 0.451284
 2050         c3     70    ccc     C2   2050 -0.15486000  12.010000   ; qtot 0.296424
 2051         hc     70    ccc     H3   2051 0.10266400   1.008000   ; qtot 0.399088
 2052         hc     70    ccc     H4   2052 0.10266400   1.008000   ; qtot 0.501752
 2053         c3     70    ccc     C3   2053 -0.15693500  12.010000   ; qtot 0.344817
 2054         h1     70    ccc     H5   2054 0.08499200   1.008000   ; qtot 0.429809
 2055         h1     70    ccc     H6   2055 0.08499200   1.008000   ; qtot 0.514801
 2056         n3     70    ccc     N1   2056 -0.29948700  14.010000   ; qtot 0.215314
 2057         c3     70    ccc     C4   2057 -0.01321200  12.010000   ; qtot 0.202102
 2058         h1     70    ccc     H7   2058 0.08172200   1.008000   ; qtot 0.283824
 2059         h1     70    ccc     H8   2059 0.08172200   1.008000   ; qtot 0.365546
 2060         c3     70    ccc     C5   2060 -0.22180000  12.010000   ; qtot 0.143746
 2061         hc     70    ccc     H9   2061 0.09671800   1.008000   ; qtot 0.240464
 2062         hc     70    ccc    H10   2062 0.09671800   1.008000   ; qtot 0.337182
 2063          c     70    ccc     C6   2063 0.526324  12.010000   ; qtot 1.333709
 2064          o     70    ccc     O1   2064 -0.39142825  16.000000   ; qtot 0.637203
 2065         oh     70    ccc     O2   2065 -0.56822625  16.000000   ; qtot -0.203608
 2066         ho     70    ccc    H11   2066 0.4186155   1.008000   ; qtot 0.322467
 2067         c3     70    ccc     C7   2067 -0.01321200  12.010000   ; qtot 0.309255
 2068         h1     70    ccc    H12   2068 0.08172200   1.008000   ; qtot 0.390977
 2069         h1     70    ccc    H13   2069 0.08172200   1.008000   ; qtot 0.472699
 2070         c3     70    ccc     C8   2070 -0.22180000  12.010000   ; qtot 0.250899
 2071         hc     70    ccc    H14   2071 0.09671800   1.008000   ; qtot 0.347617
 2072         hc     70    ccc    H15   2072 0.09671800   1.008000   ; qtot 0.444335
 2073          c     70    ccc     C9   2073 0.526324  12.010000   ; qtot 1.440862
 2074          o     70    ccc     O3   2074 -0.39142825  16.000000   ; qtot 0.744356
 2075         oh     70    ccc     O4   2075 -0.56822625  16.000000   ; qtot -0.096455
 2076         ho     70    ccc    H16   2076 0.4186155   1.008000   ; qtot 0.429620
 2077         os     70    ccc     O5   2077 -0.42966500  16.000000   ; qtot -0.000045
; residue   71 ccc rtp ccc q 0.0
 2078         c3     71    ccc     C1   2078 0.50749700  12.010000   ; qtot 0.507452
 2079         h1     71    ccc     H1   2079 -0.02808400   1.008000   ; qtot 0.479368
 2080         h1     71    ccc     H2   2080 -0.02808400   1.008000   ; qtot 0.451284
 2081         c3     71    ccc     C2   2081 -0.15486000  12.010000   ; qtot 0.296424
 2082         hc     71    ccc     H3   2082 0.10266400   1.008000   ; qtot 0.399088
 2083         hc     71    ccc     H4   2083 0.10266400   1.008000   ; qtot 0.501752
 2084         c3     71    ccc     C3   2084 -0.15693500  12.010000   ; qtot 0.344817
 2085         h1     71    ccc     H5   2085 0.08499200   1.008000   ; qtot 0.429809
 2086         h1     71    ccc     H6   2086 0.08499200   1.008000   ; qtot 0.514801
 2087         n3     71    ccc     N1   2087 -0.29948700  14.010000   ; qtot 0.215314
 2088         c3     71    ccc     C4   2088 -0.01321200  12.010000   ; qtot 0.202102
 2089         h1     71    ccc     H7   2089 0.08172200   1.008000   ; qtot 0.283824
 2090         h1     71    ccc     H8   2090 0.08172200   1.008000   ; qtot 0.365546
 2091         c3     71    ccc     C5   2091 -0.22180000  12.010000   ; qtot 0.143746
 2092         hc     71    ccc     H9   2092 0.09671800   1.008000   ; qtot 0.240464
 2093         hc     71    ccc    H10   2093 0.09671800   1.008000   ; qtot 0.337182
 2094          c     71    ccc     C6   2094 0.526324  12.010000   ; qtot 1.333709
 2095          o     71    ccc     O1   2095 -0.39142825  16.000000   ; qtot 0.637203
 2096         oh     71    ccc     O2   2096 -0.56822625  16.000000   ; qtot -0.203608
 2097         ho     71    ccc    H11   2097 0.4186155   1.008000   ; qtot 0.322467
 2098         c3     71    ccc     C7   2098 -0.01321200  12.010000   ; qtot 0.309255
 2099         h1     71    ccc    H12   2099 0.08172200   1.008000   ; qtot 0.390977
 2100         h1     71    ccc    H13   2100 0.08172200   1.008000   ; qtot 0.472699
 2101         c3     71    ccc     C8   2101 -0.22180000  12.010000   ; qtot 0.250899
 2102         hc     71    ccc    H14   2102 0.09671800   1.008000   ; qtot 0.347617
 2103         hc     71    ccc    H15   2103 0.09671800   1.008000   ; qtot 0.444335
 2104          c     71    ccc     C9   2104 0.526324  12.010000   ; qtot 1.440862
 2105          o     71    ccc     O3   2105 -0.39142825  16.000000   ; qtot 0.744356
 2106         oh     71    ccc     O4   2106 -0.56822625  16.000000   ; qtot -0.096455
 2107         ho     71    ccc    H16   2107 0.4186155   1.008000   ; qtot 0.429620
 2108         os     71    ccc     O5   2108 -0.42966500  16.000000   ; qtot -0.000045
; residue   72 ccc rtp ccc q 0.0
 2109         c3     72    ccc     C1   2109 0.50749700  12.010000   ; qtot 0.507452
 2110         h1     72    ccc     H1   2110 -0.02808400   1.008000   ; qtot 0.479368
 2111         h1     72    ccc     H2   2111 -0.02808400   1.008000   ; qtot 0.451284
 2112         c3     72    ccc     C2   2112 -0.15486000  12.010000   ; qtot 0.296424
 2113         hc     72    ccc     H3   2113 0.10266400   1.008000   ; qtot 0.399088
 2114         hc     72    ccc     H4   2114 0.10266400   1.008000   ; qtot 0.501752
 2115         c3     72    ccc     C3   2115 -0.15693500  12.010000   ; qtot 0.344817
 2116         h1     72    ccc     H5   2116 0.08499200   1.008000   ; qtot 0.429809
 2117         h1     72    ccc     H6   2117 0.08499200   1.008000   ; qtot 0.514801
 2118         n3     72    ccc     N1   2118 -0.29948700  14.010000   ; qtot 0.215314
 2119         c3     72    ccc     C4   2119 -0.01321200  12.010000   ; qtot 0.202102
 2120         h1     72    ccc     H7   2120 0.08172200   1.008000   ; qtot 0.283824
 2121         h1     72    ccc     H8   2121 0.08172200   1.008000   ; qtot 0.365546
 2122         c3     72    ccc     C5   2122 -0.22180000  12.010000   ; qtot 0.143746
 2123         hc     72    ccc     H9   2123 0.09671800   1.008000   ; qtot 0.240464
 2124         hc     72    ccc    H10   2124 0.09671800   1.008000   ; qtot 0.337182
 2125          c     72    ccc     C6   2125 0.526324  12.010000   ; qtot 1.333709
 2126          o     72    ccc     O1   2126 -0.39142825  16.000000   ; qtot 0.637203
 2127         oh     72    ccc     O2   2127 -0.56822625  16.000000   ; qtot -0.203608
 2128         ho     72    ccc    H11   2128 0.4186155   1.008000   ; qtot 0.322467
 2129         c3     72    ccc     C7   2129 -0.01321200  12.010000   ; qtot 0.309255
 2130         h1     72    ccc    H12   2130 0.08172200   1.008000   ; qtot 0.390977
 2131         h1     72    ccc    H13   2131 0.08172200   1.008000   ; qtot 0.472699
 2132         c3     72    ccc     C8   2132 -0.22180000  12.010000   ; qtot 0.250899
 2133         hc     72    ccc    H14   2133 0.09671800   1.008000   ; qtot 0.347617
 2134         hc     72    ccc    H15   2134 0.09671800   1.008000   ; qtot 0.444335
 2135          c     72    ccc     C9   2135 0.526324  12.010000   ; qtot 1.440862
 2136          o     72    ccc     O3   2136 -0.39142825  16.000000   ; qtot 0.744356
 2137         oh     72    ccc     O4   2137 -0.56822625  16.000000   ; qtot -0.096455
 2138         ho     72    ccc    H16   2138 0.4186155   1.008000   ; qtot 0.429620
 2139         os     72    ccc     O5   2139 -0.42966500  16.000000   ; qtot -0.000045
; residue   73 ccc rtp ccc q 0.0
 2140         c3     73    ccc     C1   2140 0.50749700  12.010000   ; qtot 0.507452
 2141         h1     73    ccc     H1   2141 -0.02808400   1.008000   ; qtot 0.479368
 2142         h1     73    ccc     H2   2142 -0.02808400   1.008000   ; qtot 0.451284
 2143         c3     73    ccc     C2   2143 -0.15486000  12.010000   ; qtot 0.296424
 2144         hc     73    ccc     H3   2144 0.10266400   1.008000   ; qtot 0.399088
 2145         hc     73    ccc     H4   2145 0.10266400   1.008000   ; qtot 0.501752
 2146         c3     73    ccc     C3   2146 -0.15693500  12.010000   ; qtot 0.344817
 2147         h1     73    ccc     H5   2147 0.08499200   1.008000   ; qtot 0.429809
 2148         h1     73    ccc     H6   2148 0.08499200   1.008000   ; qtot 0.514801
 2149         n3     73    ccc     N1   2149 -0.29948700  14.010000   ; qtot 0.215314
 2150         c3     73    ccc     C4   2150 -0.01321200  12.010000   ; qtot 0.202102
 2151         h1     73    ccc     H7   2151 0.08172200   1.008000   ; qtot 0.283824
 2152         h1     73    ccc     H8   2152 0.08172200   1.008000   ; qtot 0.365546
 2153         c3     73    ccc     C5   2153 -0.22180000  12.010000   ; qtot 0.143746
 2154         hc     73    ccc     H9   2154 0.09671800   1.008000   ; qtot 0.240464
 2155         hc     73    ccc    H10   2155 0.09671800   1.008000   ; qtot 0.337182
 2156          c     73    ccc     C6   2156 0.526324  12.010000   ; qtot 1.333709
 2157          o     73    ccc     O1   2157 -0.39142825  16.000000   ; qtot 0.637203
 2158         oh     73    ccc     O2   2158 -0.56822625  16.000000   ; qtot -0.203608
 2159         ho     73    ccc    H11   2159 0.4186155   1.008000   ; qtot 0.322467
 2160         c3     73    ccc     C7   2160 -0.01321200  12.010000   ; qtot 0.309255
 2161         h1     73    ccc    H12   2161 0.08172200   1.008000   ; qtot 0.390977
 2162         h1     73    ccc    H13   2162 0.08172200   1.008000   ; qtot 0.472699
 2163         c3     73    ccc     C8   2163 -0.22180000  12.010000   ; qtot 0.250899
 2164         hc     73    ccc    H14   2164 0.09671800   1.008000   ; qtot 0.347617
 2165         hc     73    ccc    H15   2165 0.09671800   1.008000   ; qtot 0.444335
 2166          c     73    ccc     C9   2166 0.526324  12.010000   ; qtot 1.440862
 2167          o     73    ccc     O3   2167 -0.39142825  16.000000   ; qtot 0.744356
 2168         oh     73    ccc     O4   2168 -0.56822625  16.000000   ; qtot -0.096455
 2169         ho     73    ccc    H16   2169 0.4186155   1.008000   ; qtot 0.429620
 2170         os     73    ccc     O5   2170 -0.42966500  16.000000   ; qtot -0.000045
; residue   74 ccc rtp ccc q 0.0
 2171         c3     74    ccc     C1   2171 0.50749700  12.010000   ; qtot 0.507452
 2172         h1     74    ccc     H1   2172 -0.02808400   1.008000   ; qtot 0.479368
 2173         h1     74    ccc     H2   2173 -0.02808400   1.008000   ; qtot 0.451284
 2174         c3     74    ccc     C2   2174 -0.15486000  12.010000   ; qtot 0.296424
 2175         hc     74    ccc     H3   2175 0.10266400   1.008000   ; qtot 0.399088
 2176         hc     74    ccc     H4   2176 0.10266400   1.008000   ; qtot 0.501752
 2177         c3     74    ccc     C3   2177 -0.15693500  12.010000   ; qtot 0.344817
 2178         h1     74    ccc     H5   2178 0.08499200   1.008000   ; qtot 0.429809
 2179         h1     74    ccc     H6   2179 0.08499200   1.008000   ; qtot 0.514801
 2180         n3     74    ccc     N1   2180 -0.29948700  14.010000   ; qtot 0.215314
 2181         c3     74    ccc     C4   2181 -0.01321200  12.010000   ; qtot 0.202102
 2182         h1     74    ccc     H7   2182 0.08172200   1.008000   ; qtot 0.283824
 2183         h1     74    ccc     H8   2183 0.08172200   1.008000   ; qtot 0.365546
 2184         c3     74    ccc     C5   2184 -0.22180000  12.010000   ; qtot 0.143746
 2185         hc     74    ccc     H9   2185 0.09671800   1.008000   ; qtot 0.240464
 2186         hc     74    ccc    H10   2186 0.09671800   1.008000   ; qtot 0.337182
 2187          c     74    ccc     C6   2187 0.526324  12.010000   ; qtot 1.333709
 2188          o     74    ccc     O1   2188 -0.39142825  16.000000   ; qtot 0.637203
 2189         oh     74    ccc     O2   2189 -0.56822625  16.000000   ; qtot -0.203608
 2190         ho     74    ccc    H11   2190 0.4186155   1.008000   ; qtot 0.322467
 2191         c3     74    ccc     C7   2191 -0.01321200  12.010000   ; qtot 0.309255
 2192         h1     74    ccc    H12   2192 0.08172200   1.008000   ; qtot 0.390977
 2193         h1     74    ccc    H13   2193 0.08172200   1.008000   ; qtot 0.472699
 2194         c3     74    ccc     C8   2194 -0.22180000  12.010000   ; qtot 0.250899
 2195         hc     74    ccc    H14   2195 0.09671800   1.008000   ; qtot 0.347617
 2196         hc     74    ccc    H15   2196 0.09671800   1.008000   ; qtot 0.444335
 2197          c     74    ccc     C9   2197 0.526324  12.010000   ; qtot 1.440862
 2198          o     74    ccc     O3   2198 -0.39142825  16.000000   ; qtot 0.744356
 2199         oh     74    ccc     O4   2199 -0.56822625  16.000000   ; qtot -0.096455
 2200         ho     74    ccc    H16   2200 0.4186155   1.008000   ; qtot 0.429620
 2201         os     74    ccc     O5   2201 -0.42966500  16.000000   ; qtot -0.000045
; residue   75 ccc rtp ccc q 0.0
 2202         c3     75    ccc     C1   2202 0.50749700  12.010000   ; qtot 0.507452
 2203         h1     75    ccc     H1   2203 -0.02808400   1.008000   ; qtot 0.479368
 2204         h1     75    ccc     H2   2204 -0.02808400   1.008000   ; qtot 0.451284
 2205         c3     75    ccc     C2   2205 -0.15486000  12.010000   ; qtot 0.296424
 2206         hc     75    ccc     H3   2206 0.10266400   1.008000   ; qtot 0.399088
 2207         hc     75    ccc     H4   2207 0.10266400   1.008000   ; qtot 0.501752
 2208         c3     75    ccc     C3   2208 -0.15693500  12.010000   ; qtot 0.344817
 2209         h1     75    ccc     H5   2209 0.08499200   1.008000   ; qtot 0.429809
 2210         h1     75    ccc     H6   2210 0.08499200   1.008000   ; qtot 0.514801
 2211         n3     75    ccc     N1   2211 -0.29948700  14.010000   ; qtot 0.215314
 2212         c3     75    ccc     C4   2212 -0.01321200  12.010000   ; qtot 0.202102
 2213         h1     75    ccc     H7   2213 0.08172200   1.008000   ; qtot 0.283824
 2214         h1     75    ccc     H8   2214 0.08172200   1.008000   ; qtot 0.365546
 2215         c3     75    ccc     C5   2215 -0.22180000  12.010000   ; qtot 0.143746
 2216         hc     75    ccc     H9   2216 0.09671800   1.008000   ; qtot 0.240464
 2217         hc     75    ccc    H10   2217 0.09671800   1.008000   ; qtot 0.337182
 2218          c     75    ccc     C6   2218 0.526324  12.010000   ; qtot 1.333709
 2219          o     75    ccc     O1   2219 -0.39142825  16.000000   ; qtot 0.637203
 2220         oh     75    ccc     O2   2220 -0.56822625  16.000000   ; qtot -0.203608
 2221         ho     75    ccc    H11   2221 0.4186155   1.008000   ; qtot 0.322467
 2222         c3     75    ccc     C7   2222 -0.01321200  12.010000   ; qtot 0.309255
 2223         h1     75    ccc    H12   2223 0.08172200   1.008000   ; qtot 0.390977
 2224         h1     75    ccc    H13   2224 0.08172200   1.008000   ; qtot 0.472699
 2225         c3     75    ccc     C8   2225 -0.22180000  12.010000   ; qtot 0.250899
 2226         hc     75    ccc    H14   2226 0.09671800   1.008000   ; qtot 0.347617
 2227         hc     75    ccc    H15   2227 0.09671800   1.008000   ; qtot 0.444335
 2228          c     75    ccc     C9   2228 0.526324  12.010000   ; qtot 1.440862
 2229          o     75    ccc     O3   2229 -0.39142825  16.000000   ; qtot 0.744356
 2230         oh     75    ccc     O4   2230 -0.56822625  16.000000   ; qtot -0.096455
 2231         ho     75    ccc    H16   2231 0.4186155   1.008000   ; qtot 0.429620
 2232         os     75    ccc     O5   2232 -0.42966500  16.000000   ; qtot -0.000045
; residue   76 ccc rtp ccc q 0.0
 2233         c3     76    ccc     C1   2233 0.50749700  12.010000   ; qtot 0.507452
 2234         h1     76    ccc     H1   2234 -0.02808400   1.008000   ; qtot 0.479368
 2235         h1     76    ccc     H2   2235 -0.02808400   1.008000   ; qtot 0.451284
 2236         c3     76    ccc     C2   2236 -0.15486000  12.010000   ; qtot 0.296424
 2237         hc     76    ccc     H3   2237 0.10266400   1.008000   ; qtot 0.399088
 2238         hc     76    ccc     H4   2238 0.10266400   1.008000   ; qtot 0.501752
 2239         c3     76    ccc     C3   2239 -0.15693500  12.010000   ; qtot 0.344817
 2240         h1     76    ccc     H5   2240 0.08499200   1.008000   ; qtot 0.429809
 2241         h1     76    ccc     H6   2241 0.08499200   1.008000   ; qtot 0.514801
 2242         n3     76    ccc     N1   2242 -0.29948700  14.010000   ; qtot 0.215314
 2243         c3     76    ccc     C4   2243 -0.01321200  12.010000   ; qtot 0.202102
 2244         h1     76    ccc     H7   2244 0.08172200   1.008000   ; qtot 0.283824
 2245         h1     76    ccc     H8   2245 0.08172200   1.008000   ; qtot 0.365546
 2246         c3     76    ccc     C5   2246 -0.22180000  12.010000   ; qtot 0.143746
 2247         hc     76    ccc     H9   2247 0.09671800   1.008000   ; qtot 0.240464
 2248         hc     76    ccc    H10   2248 0.09671800   1.008000   ; qtot 0.337182
 2249          c     76    ccc     C6   2249 0.526324  12.010000   ; qtot 1.333709
 2250          o     76    ccc     O1   2250 -0.39142825  16.000000   ; qtot 0.637203
 2251         oh     76    ccc     O2   2251 -0.56822625  16.000000   ; qtot -0.203608
 2252         ho     76    ccc    H11   2252 0.4186155   1.008000   ; qtot 0.322467
 2253         c3     76    ccc     C7   2253 -0.01321200  12.010000   ; qtot 0.309255
 2254         h1     76    ccc    H12   2254 0.08172200   1.008000   ; qtot 0.390977
 2255         h1     76    ccc    H13   2255 0.08172200   1.008000   ; qtot 0.472699
 2256         c3     76    ccc     C8   2256 -0.22180000  12.010000   ; qtot 0.250899
 2257         hc     76    ccc    H14   2257 0.09671800   1.008000   ; qtot 0.347617
 2258         hc     76    ccc    H15   2258 0.09671800   1.008000   ; qtot 0.444335
 2259          c     76    ccc     C9   2259 0.526324  12.010000   ; qtot 1.440862
 2260          o     76    ccc     O3   2260 -0.39142825  16.000000   ; qtot 0.744356
 2261         oh     76    ccc     O4   2261 -0.56822625  16.000000   ; qtot -0.096455
 2262         ho     76    ccc    H16   2262 0.4186155   1.008000   ; qtot 0.429620
 2263         os     76    ccc     O5   2263 -0.42966500  16.000000   ; qtot -0.000045
; residue   77 ccc rtp ccc q 0.0
 2264         c3     77    ccc     C1   2264 0.50749700  12.010000   ; qtot 0.507452
 2265         h1     77    ccc     H1   2265 -0.02808400   1.008000   ; qtot 0.479368
 2266         h1     77    ccc     H2   2266 -0.02808400   1.008000   ; qtot 0.451284
 2267         c3     77    ccc     C2   2267 -0.15486000  12.010000   ; qtot 0.296424
 2268         hc     77    ccc     H3   2268 0.10266400   1.008000   ; qtot 0.399088
 2269         hc     77    ccc     H4   2269 0.10266400   1.008000   ; qtot 0.501752
 2270         c3     77    ccc     C3   2270 -0.15693500  12.010000   ; qtot 0.344817
 2271         h1     77    ccc     H5   2271 0.08499200   1.008000   ; qtot 0.429809
 2272         h1     77    ccc     H6   2272 0.08499200   1.008000   ; qtot 0.514801
 2273         n3     77    ccc     N1   2273 -0.29948700  14.010000   ; qtot 0.215314
 2274         c3     77    ccc     C4   2274 -0.01321200  12.010000   ; qtot 0.202102
 2275         h1     77    ccc     H7   2275 0.08172200   1.008000   ; qtot 0.283824
 2276         h1     77    ccc     H8   2276 0.08172200   1.008000   ; qtot 0.365546
 2277         c3     77    ccc     C5   2277 -0.22180000  12.010000   ; qtot 0.143746
 2278         hc     77    ccc     H9   2278 0.09671800   1.008000   ; qtot 0.240464
 2279         hc     77    ccc    H10   2279 0.09671800   1.008000   ; qtot 0.337182
 2280          c     77    ccc     C6   2280 0.526324  12.010000   ; qtot 1.333709
 2281          o     77    ccc     O1   2281 -0.39142825  16.000000   ; qtot 0.637203
 2282         oh     77    ccc     O2   2282 -0.56822625  16.000000   ; qtot -0.203608
 2283         ho     77    ccc    H11   2283 0.4186155   1.008000   ; qtot 0.322467
 2284         c3     77    ccc     C7   2284 -0.01321200  12.010000   ; qtot 0.309255
 2285         h1     77    ccc    H12   2285 0.08172200   1.008000   ; qtot 0.390977
 2286         h1     77    ccc    H13   2286 0.08172200   1.008000   ; qtot 0.472699
 2287         c3     77    ccc     C8   2287 -0.22180000  12.010000   ; qtot 0.250899
 2288         hc     77    ccc    H14   2288 0.09671800   1.008000   ; qtot 0.347617
 2289         hc     77    ccc    H15   2289 0.09671800   1.008000   ; qtot 0.444335
 2290          c     77    ccc     C9   2290 0.526324  12.010000   ; qtot 1.440862
 2291          o     77    ccc     O3   2291 -0.39142825  16.000000   ; qtot 0.744356
 2292         oh     77    ccc     O4   2292 -0.56822625  16.000000   ; qtot -0.096455
 2293         ho     77    ccc    H16   2293 0.4186155   1.008000   ; qtot 0.429620
 2294         os     77    ccc     O5   2294 -0.42966500  16.000000   ; qtot -0.000045
; residue   78 ccc rtp ccc q 0.0
 2295         c3     78    ccc     C1   2295 0.50749700  12.010000   ; qtot 0.507452
 2296         h1     78    ccc     H1   2296 -0.02808400   1.008000   ; qtot 0.479368
 2297         h1     78    ccc     H2   2297 -0.02808400   1.008000   ; qtot 0.451284
 2298         c3     78    ccc     C2   2298 -0.15486000  12.010000   ; qtot 0.296424
 2299         hc     78    ccc     H3   2299 0.10266400   1.008000   ; qtot 0.399088
 2300         hc     78    ccc     H4   2300 0.10266400   1.008000   ; qtot 0.501752
 2301         c3     78    ccc     C3   2301 -0.15693500  12.010000   ; qtot 0.344817
 2302         h1     78    ccc     H5   2302 0.08499200   1.008000   ; qtot 0.429809
 2303         h1     78    ccc     H6   2303 0.08499200   1.008000   ; qtot 0.514801
 2304         n3     78    ccc     N1   2304 -0.29948700  14.010000   ; qtot 0.215314
 2305         c3     78    ccc     C4   2305 -0.01321200  12.010000   ; qtot 0.202102
 2306         h1     78    ccc     H7   2306 0.08172200   1.008000   ; qtot 0.283824
 2307         h1     78    ccc     H8   2307 0.08172200   1.008000   ; qtot 0.365546
 2308         c3     78    ccc     C5   2308 -0.22180000  12.010000   ; qtot 0.143746
 2309         hc     78    ccc     H9   2309 0.09671800   1.008000   ; qtot 0.240464
 2310         hc     78    ccc    H10   2310 0.09671800   1.008000   ; qtot 0.337182
 2311          c     78    ccc     C6   2311 0.526324  12.010000   ; qtot 1.333709
 2312          o     78    ccc     O1   2312 -0.39142825  16.000000   ; qtot 0.637203
 2313         oh     78    ccc     O2   2313 -0.56822625  16.000000   ; qtot -0.203608
 2314         ho     78    ccc    H11   2314 0.4186155   1.008000   ; qtot 0.322467
 2315         c3     78    ccc     C7   2315 -0.01321200  12.010000   ; qtot 0.309255
 2316         h1     78    ccc    H12   2316 0.08172200   1.008000   ; qtot 0.390977
 2317         h1     78    ccc    H13   2317 0.08172200   1.008000   ; qtot 0.472699
 2318         c3     78    ccc     C8   2318 -0.22180000  12.010000   ; qtot 0.250899
 2319         hc     78    ccc    H14   2319 0.09671800   1.008000   ; qtot 0.347617
 2320         hc     78    ccc    H15   2320 0.09671800   1.008000   ; qtot 0.444335
 2321          c     78    ccc     C9   2321 0.526324  12.010000   ; qtot 1.440862
 2322          o     78    ccc     O3   2322 -0.39142825  16.000000   ; qtot 0.744356
 2323         oh     78    ccc     O4   2323 -0.56822625  16.000000   ; qtot -0.096455
 2324         ho     78    ccc    H16   2324 0.4186155   1.008000   ; qtot 0.429620
 2325         os     78    ccc     O5   2325 -0.42966500  16.000000   ; qtot -0.000045
; residue   79 ccc rtp ccc q 0.0
 2326         c3     79    ccc     C1   2326 0.50749700  12.010000   ; qtot 0.507452
 2327         h1     79    ccc     H1   2327 -0.02808400   1.008000   ; qtot 0.479368
 2328         h1     79    ccc     H2   2328 -0.02808400   1.008000   ; qtot 0.451284
 2329         c3     79    ccc     C2   2329 -0.15486000  12.010000   ; qtot 0.296424
 2330         hc     79    ccc     H3   2330 0.10266400   1.008000   ; qtot 0.399088
 2331         hc     79    ccc     H4   2331 0.10266400   1.008000   ; qtot 0.501752
 2332         c3     79    ccc     C3   2332 -0.15693500  12.010000   ; qtot 0.344817
 2333         h1     79    ccc     H5   2333 0.08499200   1.008000   ; qtot 0.429809
 2334         h1     79    ccc     H6   2334 0.08499200   1.008000   ; qtot 0.514801
 2335         n3     79    ccc     N1   2335 -0.29948700  14.010000   ; qtot 0.215314
 2336         c3     79    ccc     C4   2336 -0.01321200  12.010000   ; qtot 0.202102
 2337         h1     79    ccc     H7   2337 0.08172200   1.008000   ; qtot 0.283824
 2338         h1     79    ccc     H8   2338 0.08172200   1.008000   ; qtot 0.365546
 2339         c3     79    ccc     C5   2339 -0.22180000  12.010000   ; qtot 0.143746
 2340         hc     79    ccc     H9   2340 0.09671800   1.008000   ; qtot 0.240464
 2341         hc     79    ccc    H10   2341 0.09671800   1.008000   ; qtot 0.337182
 2342          c     79    ccc     C6   2342 0.526324  12.010000   ; qtot 1.333709
 2343          o     79    ccc     O1   2343 -0.39142825  16.000000   ; qtot 0.637203
 2344         oh     79    ccc     O2   2344 -0.56822625  16.000000   ; qtot -0.203608
 2345         ho     79    ccc    H11   2345 0.4186155   1.008000   ; qtot 0.322467
 2346         c3     79    ccc     C7   2346 -0.01321200  12.010000   ; qtot 0.309255
 2347         h1     79    ccc    H12   2347 0.08172200   1.008000   ; qtot 0.390977
 2348         h1     79    ccc    H13   2348 0.08172200   1.008000   ; qtot 0.472699
 2349         c3     79    ccc     C8   2349 -0.22180000  12.010000   ; qtot 0.250899
 2350         hc     79    ccc    H14   2350 0.09671800   1.008000   ; qtot 0.347617
 2351         hc     79    ccc    H15   2351 0.09671800   1.008000   ; qtot 0.444335
 2352          c     79    ccc     C9   2352 0.526324  12.010000   ; qtot 1.440862
 2353          o     79    ccc     O3   2353 -0.39142825  16.000000   ; qtot 0.744356
 2354         oh     79    ccc     O4   2354 -0.56822625  16.000000   ; qtot -0.096455
 2355         ho     79    ccc    H16   2355 0.4186155   1.008000   ; qtot 0.429620
 2356         os     79    ccc     O5   2356 -0.42966500  16.000000   ; qtot -0.000045
; residue   80 ccc rtp ccc q 0.0
 2357         c3     80    ccc     C1   2357 0.50749700  12.010000   ; qtot 0.507452
 2358         h1     80    ccc     H1   2358 -0.02808400   1.008000   ; qtot 0.479368
 2359         h1     80    ccc     H2   2359 -0.02808400   1.008000   ; qtot 0.451284
 2360         c3     80    ccc     C2   2360 -0.15486000  12.010000   ; qtot 0.296424
 2361         hc     80    ccc     H3   2361 0.10266400   1.008000   ; qtot 0.399088
 2362         hc     80    ccc     H4   2362 0.10266400   1.008000   ; qtot 0.501752
 2363         c3     80    ccc     C3   2363 -0.15693500  12.010000   ; qtot 0.344817
 2364         h1     80    ccc     H5   2364 0.08499200   1.008000   ; qtot 0.429809
 2365         h1     80    ccc     H6   2365 0.08499200   1.008000   ; qtot 0.514801
 2366         n3     80    ccc     N1   2366 -0.29948700  14.010000   ; qtot 0.215314
 2367         c3     80    ccc     C4   2367 -0.01321200  12.010000   ; qtot 0.202102
 2368         h1     80    ccc     H7   2368 0.08172200   1.008000   ; qtot 0.283824
 2369         h1     80    ccc     H8   2369 0.08172200   1.008000   ; qtot 0.365546
 2370         c3     80    ccc     C5   2370 -0.22180000  12.010000   ; qtot 0.143746
 2371         hc     80    ccc     H9   2371 0.09671800   1.008000   ; qtot 0.240464
 2372         hc     80    ccc    H10   2372 0.09671800   1.008000   ; qtot 0.337182
 2373          c     80    ccc     C6   2373 0.526324  12.010000   ; qtot 1.333709
 2374          o     80    ccc     O1   2374 -0.39142825  16.000000   ; qtot 0.637203
 2375         oh     80    ccc     O2   2375 -0.56822625  16.000000   ; qtot -0.203608
 2376         ho     80    ccc    H11   2376 0.4186155   1.008000   ; qtot 0.322467
 2377         c3     80    ccc     C7   2377 -0.01321200  12.010000   ; qtot 0.309255
 2378         h1     80    ccc    H12   2378 0.08172200   1.008000   ; qtot 0.390977
 2379         h1     80    ccc    H13   2379 0.08172200   1.008000   ; qtot 0.472699
 2380         c3     80    ccc     C8   2380 -0.22180000  12.010000   ; qtot 0.250899
 2381         hc     80    ccc    H14   2381 0.09671800   1.008000   ; qtot 0.347617
 2382         hc     80    ccc    H15   2382 0.09671800   1.008000   ; qtot 0.444335
 2383          c     80    ccc     C9   2383 0.526324  12.010000   ; qtot 1.440862
 2384          o     80    ccc     O3   2384 -0.39142825  16.000000   ; qtot 0.744356
 2385         oh     80    ccc     O4   2385 -0.56822625  16.000000   ; qtot -0.096455
 2386         ho     80    ccc    H16   2386 0.4186155   1.008000   ; qtot 0.429620
 2387         os     80    ccc     O5   2387 -0.42966500  16.000000   ; qtot -0.000045
; residue   81 ccc rtp ccc q 0.0
 2388         c3     81    ccc     C1   2388 0.50749700  12.010000   ; qtot 0.507452
 2389         h1     81    ccc     H1   2389 -0.02808400   1.008000   ; qtot 0.479368
 2390         h1     81    ccc     H2   2390 -0.02808400   1.008000   ; qtot 0.451284
 2391         c3     81    ccc     C2   2391 -0.15486000  12.010000   ; qtot 0.296424
 2392         hc     81    ccc     H3   2392 0.10266400   1.008000   ; qtot 0.399088
 2393         hc     81    ccc     H4   2393 0.10266400   1.008000   ; qtot 0.501752
 2394         c3     81    ccc     C3   2394 -0.15693500  12.010000   ; qtot 0.344817
 2395         h1     81    ccc     H5   2395 0.08499200   1.008000   ; qtot 0.429809
 2396         h1     81    ccc     H6   2396 0.08499200   1.008000   ; qtot 0.514801
 2397         n3     81    ccc     N1   2397 -0.29948700  14.010000   ; qtot 0.215314
 2398         c3     81    ccc     C4   2398 -0.01321200  12.010000   ; qtot 0.202102
 2399         h1     81    ccc     H7   2399 0.08172200   1.008000   ; qtot 0.283824
 2400         h1     81    ccc     H8   2400 0.08172200   1.008000   ; qtot 0.365546
 2401         c3     81    ccc     C5   2401 -0.22180000  12.010000   ; qtot 0.143746
 2402         hc     81    ccc     H9   2402 0.09671800   1.008000   ; qtot 0.240464
 2403         hc     81    ccc    H10   2403 0.09671800   1.008000   ; qtot 0.337182
 2404          c     81    ccc     C6   2404 0.526324  12.010000   ; qtot 1.333709
 2405          o     81    ccc     O1   2405 -0.39142825  16.000000   ; qtot 0.637203
 2406         oh     81    ccc     O2   2406 -0.56822625  16.000000   ; qtot -0.203608
 2407         ho     81    ccc    H11   2407 0.4186155   1.008000   ; qtot 0.322467
 2408         c3     81    ccc     C7   2408 -0.01321200  12.010000   ; qtot 0.309255
 2409         h1     81    ccc    H12   2409 0.08172200   1.008000   ; qtot 0.390977
 2410         h1     81    ccc    H13   2410 0.08172200   1.008000   ; qtot 0.472699
 2411         c3     81    ccc     C8   2411 -0.22180000  12.010000   ; qtot 0.250899
 2412         hc     81    ccc    H14   2412 0.09671800   1.008000   ; qtot 0.347617
 2413         hc     81    ccc    H15   2413 0.09671800   1.008000   ; qtot 0.444335
 2414          c     81    ccc     C9   2414 0.526324  12.010000   ; qtot 1.440862
 2415          o     81    ccc     O3   2415 -0.39142825  16.000000   ; qtot 0.744356
 2416         oh     81    ccc     O4   2416 -0.56822625  16.000000   ; qtot -0.096455
 2417         ho     81    ccc    H16   2417 0.4186155   1.008000   ; qtot 0.429620
 2418         os     81    ccc     O5   2418 -0.42966500  16.000000   ; qtot -0.000045
; residue   82 ccc rtp ccc q 0.0
 2419         c3     82    ccc     C1   2419 0.50749700  12.010000   ; qtot 0.507452
 2420         h1     82    ccc     H1   2420 -0.02808400   1.008000   ; qtot 0.479368
 2421         h1     82    ccc     H2   2421 -0.02808400   1.008000   ; qtot 0.451284
 2422         c3     82    ccc     C2   2422 -0.15486000  12.010000   ; qtot 0.296424
 2423         hc     82    ccc     H3   2423 0.10266400   1.008000   ; qtot 0.399088
 2424         hc     82    ccc     H4   2424 0.10266400   1.008000   ; qtot 0.501752
 2425         c3     82    ccc     C3   2425 -0.15693500  12.010000   ; qtot 0.344817
 2426         h1     82    ccc     H5   2426 0.08499200   1.008000   ; qtot 0.429809
 2427         h1     82    ccc     H6   2427 0.08499200   1.008000   ; qtot 0.514801
 2428         n3     82    ccc     N1   2428 -0.29948700  14.010000   ; qtot 0.215314
 2429         c3     82    ccc     C4   2429 -0.01321200  12.010000   ; qtot 0.202102
 2430         h1     82    ccc     H7   2430 0.08172200   1.008000   ; qtot 0.283824
 2431         h1     82    ccc     H8   2431 0.08172200   1.008000   ; qtot 0.365546
 2432         c3     82    ccc     C5   2432 -0.22180000  12.010000   ; qtot 0.143746
 2433         hc     82    ccc     H9   2433 0.09671800   1.008000   ; qtot 0.240464
 2434         hc     82    ccc    H10   2434 0.09671800   1.008000   ; qtot 0.337182
 2435          c     82    ccc     C6   2435 0.526324  12.010000   ; qtot 1.333709
 2436          o     82    ccc     O1   2436 -0.39142825  16.000000   ; qtot 0.637203
 2437         oh     82    ccc     O2   2437 -0.56822625  16.000000   ; qtot -0.203608
 2438         ho     82    ccc    H11   2438 0.4186155   1.008000   ; qtot 0.322467
 2439         c3     82    ccc     C7   2439 -0.01321200  12.010000   ; qtot 0.309255
 2440         h1     82    ccc    H12   2440 0.08172200   1.008000   ; qtot 0.390977
 2441         h1     82    ccc    H13   2441 0.08172200   1.008000   ; qtot 0.472699
 2442         c3     82    ccc     C8   2442 -0.22180000  12.010000   ; qtot 0.250899
 2443         hc     82    ccc    H14   2443 0.09671800   1.008000   ; qtot 0.347617
 2444         hc     82    ccc    H15   2444 0.09671800   1.008000   ; qtot 0.444335
 2445          c     82    ccc     C9   2445 0.526324  12.010000   ; qtot 1.440862
 2446          o     82    ccc     O3   2446 -0.39142825  16.000000   ; qtot 0.744356
 2447         oh     82    ccc     O4   2447 -0.56822625  16.000000   ; qtot -0.096455
 2448         ho     82    ccc    H16   2448 0.4186155   1.008000   ; qtot 0.429620
 2449         os     82    ccc     O5   2449 -0.42966500  16.000000   ; qtot -0.000045
; residue   83 ccc rtp ccc q 0.0
 2450         c3     83    ccc     C1   2450 0.50749700  12.010000   ; qtot 0.507452
 2451         h1     83    ccc     H1   2451 -0.02808400   1.008000   ; qtot 0.479368
 2452         h1     83    ccc     H2   2452 -0.02808400   1.008000   ; qtot 0.451284
 2453         c3     83    ccc     C2   2453 -0.15486000  12.010000   ; qtot 0.296424
 2454         hc     83    ccc     H3   2454 0.10266400   1.008000   ; qtot 0.399088
 2455         hc     83    ccc     H4   2455 0.10266400   1.008000   ; qtot 0.501752
 2456         c3     83    ccc     C3   2456 -0.15693500  12.010000   ; qtot 0.344817
 2457         h1     83    ccc     H5   2457 0.08499200   1.008000   ; qtot 0.429809
 2458         h1     83    ccc     H6   2458 0.08499200   1.008000   ; qtot 0.514801
 2459         n3     83    ccc     N1   2459 -0.29948700  14.010000   ; qtot 0.215314
 2460         c3     83    ccc     C4   2460 -0.01321200  12.010000   ; qtot 0.202102
 2461         h1     83    ccc     H7   2461 0.08172200   1.008000   ; qtot 0.283824
 2462         h1     83    ccc     H8   2462 0.08172200   1.008000   ; qtot 0.365546
 2463         c3     83    ccc     C5   2463 -0.22180000  12.010000   ; qtot 0.143746
 2464         hc     83    ccc     H9   2464 0.09671800   1.008000   ; qtot 0.240464
 2465         hc     83    ccc    H10   2465 0.09671800   1.008000   ; qtot 0.337182
 2466          c     83    ccc     C6   2466 0.526324  12.010000   ; qtot 1.333709
 2467          o     83    ccc     O1   2467 -0.39142825  16.000000   ; qtot 0.637203
 2468         oh     83    ccc     O2   2468 -0.56822625  16.000000   ; qtot -0.203608
 2469         ho     83    ccc    H11   2469 0.4186155   1.008000   ; qtot 0.322467
 2470         c3     83    ccc     C7   2470 -0.01321200  12.010000   ; qtot 0.309255
 2471         h1     83    ccc    H12   2471 0.08172200   1.008000   ; qtot 0.390977
 2472         h1     83    ccc    H13   2472 0.08172200   1.008000   ; qtot 0.472699
 2473         c3     83    ccc     C8   2473 -0.22180000  12.010000   ; qtot 0.250899
 2474         hc     83    ccc    H14   2474 0.09671800   1.008000   ; qtot 0.347617
 2475         hc     83    ccc    H15   2475 0.09671800   1.008000   ; qtot 0.444335
 2476          c     83    ccc     C9   2476 0.526324  12.010000   ; qtot 1.440862
 2477          o     83    ccc     O3   2477 -0.39142825  16.000000   ; qtot 0.744356
 2478         oh     83    ccc     O4   2478 -0.56822625  16.000000   ; qtot -0.096455
 2479         ho     83    ccc    H16   2479 0.4186155   1.008000   ; qtot 0.429620
 2480         os     83    ccc     O5   2480 -0.42966500  16.000000   ; qtot -0.000045
; residue   84 ccc rtp ccc q 0.0
 2481         c3     84    ccc     C1   2481 0.50749700  12.010000   ; qtot 0.507452
 2482         h1     84    ccc     H1   2482 -0.02808400   1.008000   ; qtot 0.479368
 2483         h1     84    ccc     H2   2483 -0.02808400   1.008000   ; qtot 0.451284
 2484         c3     84    ccc     C2   2484 -0.15486000  12.010000   ; qtot 0.296424
 2485         hc     84    ccc     H3   2485 0.10266400   1.008000   ; qtot 0.399088
 2486         hc     84    ccc     H4   2486 0.10266400   1.008000   ; qtot 0.501752
 2487         c3     84    ccc     C3   2487 -0.15693500  12.010000   ; qtot 0.344817
 2488         h1     84    ccc     H5   2488 0.08499200   1.008000   ; qtot 0.429809
 2489         h1     84    ccc     H6   2489 0.08499200   1.008000   ; qtot 0.514801
 2490         n3     84    ccc     N1   2490 -0.29948700  14.010000   ; qtot 0.215314
 2491         c3     84    ccc     C4   2491 -0.01321200  12.010000   ; qtot 0.202102
 2492         h1     84    ccc     H7   2492 0.08172200   1.008000   ; qtot 0.283824
 2493         h1     84    ccc     H8   2493 0.08172200   1.008000   ; qtot 0.365546
 2494         c3     84    ccc     C5   2494 -0.22180000  12.010000   ; qtot 0.143746
 2495         hc     84    ccc     H9   2495 0.09671800   1.008000   ; qtot 0.240464
 2496         hc     84    ccc    H10   2496 0.09671800   1.008000   ; qtot 0.337182
 2497          c     84    ccc     C6   2497 0.526324  12.010000   ; qtot 1.333709
 2498          o     84    ccc     O1   2498 -0.39142825  16.000000   ; qtot 0.637203
 2499         oh     84    ccc     O2   2499 -0.56822625  16.000000   ; qtot -0.203608
 2500         ho     84    ccc    H11   2500 0.4186155   1.008000   ; qtot 0.322467
 2501         c3     84    ccc     C7   2501 -0.01321200  12.010000   ; qtot 0.309255
 2502         h1     84    ccc    H12   2502 0.08172200   1.008000   ; qtot 0.390977
 2503         h1     84    ccc    H13   2503 0.08172200   1.008000   ; qtot 0.472699
 2504         c3     84    ccc     C8   2504 -0.22180000  12.010000   ; qtot 0.250899
 2505         hc     84    ccc    H14   2505 0.09671800   1.008000   ; qtot 0.347617
 2506         hc     84    ccc    H15   2506 0.09671800   1.008000   ; qtot 0.444335
 2507          c     84    ccc     C9   2507 0.526324  12.010000   ; qtot 1.440862
 2508          o     84    ccc     O3   2508 -0.39142825  16.000000   ; qtot 0.744356
 2509         oh     84    ccc     O4   2509 -0.56822625  16.000000   ; qtot -0.096455
 2510         ho     84    ccc    H16   2510 0.4186155   1.008000   ; qtot 0.429620
 2511         os     84    ccc     O5   2511 -0.42966500  16.000000   ; qtot -0.000045
; residue   85 ccc rtp ccc q 0.0
 2512         c3     85    ccc     C1   2512 0.50749700  12.010000   ; qtot 0.507452
 2513         h1     85    ccc     H1   2513 -0.02808400   1.008000   ; qtot 0.479368
 2514         h1     85    ccc     H2   2514 -0.02808400   1.008000   ; qtot 0.451284
 2515         c3     85    ccc     C2   2515 -0.15486000  12.010000   ; qtot 0.296424
 2516         hc     85    ccc     H3   2516 0.10266400   1.008000   ; qtot 0.399088
 2517         hc     85    ccc     H4   2517 0.10266400   1.008000   ; qtot 0.501752
 2518         c3     85    ccc     C3   2518 -0.15693500  12.010000   ; qtot 0.344817
 2519         h1     85    ccc     H5   2519 0.08499200   1.008000   ; qtot 0.429809
 2520         h1     85    ccc     H6   2520 0.08499200   1.008000   ; qtot 0.514801
 2521         n3     85    ccc     N1   2521 -0.29948700  14.010000   ; qtot 0.215314
 2522         c3     85    ccc     C4   2522 -0.01321200  12.010000   ; qtot 0.202102
 2523         h1     85    ccc     H7   2523 0.08172200   1.008000   ; qtot 0.283824
 2524         h1     85    ccc     H8   2524 0.08172200   1.008000   ; qtot 0.365546
 2525         c3     85    ccc     C5   2525 -0.22180000  12.010000   ; qtot 0.143746
 2526         hc     85    ccc     H9   2526 0.09671800   1.008000   ; qtot 0.240464
 2527         hc     85    ccc    H10   2527 0.09671800   1.008000   ; qtot 0.337182
 2528          c     85    ccc     C6   2528 0.526324  12.010000   ; qtot 1.333709
 2529          o     85    ccc     O1   2529 -0.39142825  16.000000   ; qtot 0.637203
 2530         oh     85    ccc     O2   2530 -0.56822625  16.000000   ; qtot -0.203608
 2531         ho     85    ccc    H11   2531 0.4186155   1.008000   ; qtot 0.322467
 2532         c3     85    ccc     C7   2532 -0.01321200  12.010000   ; qtot 0.309255
 2533         h1     85    ccc    H12   2533 0.08172200   1.008000   ; qtot 0.390977
 2534         h1     85    ccc    H13   2534 0.08172200   1.008000   ; qtot 0.472699
 2535         c3     85    ccc     C8   2535 -0.22180000  12.010000   ; qtot 0.250899
 2536         hc     85    ccc    H14   2536 0.09671800   1.008000   ; qtot 0.347617
 2537         hc     85    ccc    H15   2537 0.09671800   1.008000   ; qtot 0.444335
 2538          c     85    ccc     C9   2538 0.526324  12.010000   ; qtot 1.440862
 2539          o     85    ccc     O3   2539 -0.39142825  16.000000   ; qtot 0.744356
 2540         oh     85    ccc     O4   2540 -0.56822625  16.000000   ; qtot -0.096455
 2541         ho     85    ccc    H16   2541 0.4186155   1.008000   ; qtot 0.429620
 2542         os     85    ccc     O5   2542 -0.42966500  16.000000   ; qtot -0.000045
; residue   86 ccc rtp ccc q 0.0
 2543         c3     86    ccc     C1   2543 0.50749700  12.010000   ; qtot 0.507452
 2544         h1     86    ccc     H1   2544 -0.02808400   1.008000   ; qtot 0.479368
 2545         h1     86    ccc     H2   2545 -0.02808400   1.008000   ; qtot 0.451284
 2546         c3     86    ccc     C2   2546 -0.15486000  12.010000   ; qtot 0.296424
 2547         hc     86    ccc     H3   2547 0.10266400   1.008000   ; qtot 0.399088
 2548         hc     86    ccc     H4   2548 0.10266400   1.008000   ; qtot 0.501752
 2549         c3     86    ccc     C3   2549 -0.15693500  12.010000   ; qtot 0.344817
 2550         h1     86    ccc     H5   2550 0.08499200   1.008000   ; qtot 0.429809
 2551         h1     86    ccc     H6   2551 0.08499200   1.008000   ; qtot 0.514801
 2552         n3     86    ccc     N1   2552 -0.29948700  14.010000   ; qtot 0.215314
 2553         c3     86    ccc     C4   2553 -0.01321200  12.010000   ; qtot 0.202102
 2554         h1     86    ccc     H7   2554 0.08172200   1.008000   ; qtot 0.283824
 2555         h1     86    ccc     H8   2555 0.08172200   1.008000   ; qtot 0.365546
 2556         c3     86    ccc     C5   2556 -0.22180000  12.010000   ; qtot 0.143746
 2557         hc     86    ccc     H9   2557 0.09671800   1.008000   ; qtot 0.240464
 2558         hc     86    ccc    H10   2558 0.09671800   1.008000   ; qtot 0.337182
 2559          c     86    ccc     C6   2559 0.526324  12.010000   ; qtot 1.333709
 2560          o     86    ccc     O1   2560 -0.39142825  16.000000   ; qtot 0.637203
 2561         oh     86    ccc     O2   2561 -0.56822625  16.000000   ; qtot -0.203608
 2562         ho     86    ccc    H11   2562 0.4186155   1.008000   ; qtot 0.322467
 2563         c3     86    ccc     C7   2563 -0.01321200  12.010000   ; qtot 0.309255
 2564         h1     86    ccc    H12   2564 0.08172200   1.008000   ; qtot 0.390977
 2565         h1     86    ccc    H13   2565 0.08172200   1.008000   ; qtot 0.472699
 2566         c3     86    ccc     C8   2566 -0.22180000  12.010000   ; qtot 0.250899
 2567         hc     86    ccc    H14   2567 0.09671800   1.008000   ; qtot 0.347617
 2568         hc     86    ccc    H15   2568 0.09671800   1.008000   ; qtot 0.444335
 2569          c     86    ccc     C9   2569 0.526324  12.010000   ; qtot 1.440862
 2570          o     86    ccc     O3   2570 -0.39142825  16.000000   ; qtot 0.744356
 2571         oh     86    ccc     O4   2571 -0.56822625  16.000000   ; qtot -0.096455
 2572         ho     86    ccc    H16   2572 0.4186155   1.008000   ; qtot 0.429620
 2573         os     86    ccc     O5   2573 -0.42966500  16.000000   ; qtot -0.000045
; residue   87 ccc rtp ccc q 0.0
 2574         c3     87    ccc     C1   2574 0.50749700  12.010000   ; qtot 0.507452
 2575         h1     87    ccc     H1   2575 -0.02808400   1.008000   ; qtot 0.479368
 2576         h1     87    ccc     H2   2576 -0.02808400   1.008000   ; qtot 0.451284
 2577         c3     87    ccc     C2   2577 -0.15486000  12.010000   ; qtot 0.296424
 2578         hc     87    ccc     H3   2578 0.10266400   1.008000   ; qtot 0.399088
 2579         hc     87    ccc     H4   2579 0.10266400   1.008000   ; qtot 0.501752
 2580         c3     87    ccc     C3   2580 -0.15693500  12.010000   ; qtot 0.344817
 2581         h1     87    ccc     H5   2581 0.08499200   1.008000   ; qtot 0.429809
 2582         h1     87    ccc     H6   2582 0.08499200   1.008000   ; qtot 0.514801
 2583         n3     87    ccc     N1   2583 -0.29948700  14.010000   ; qtot 0.215314
 2584         c3     87    ccc     C4   2584 -0.01321200  12.010000   ; qtot 0.202102
 2585         h1     87    ccc     H7   2585 0.08172200   1.008000   ; qtot 0.283824
 2586         h1     87    ccc     H8   2586 0.08172200   1.008000   ; qtot 0.365546
 2587         c3     87    ccc     C5   2587 -0.22180000  12.010000   ; qtot 0.143746
 2588         hc     87    ccc     H9   2588 0.09671800   1.008000   ; qtot 0.240464
 2589         hc     87    ccc    H10   2589 0.09671800   1.008000   ; qtot 0.337182
 2590          c     87    ccc     C6   2590 0.526324  12.010000   ; qtot 1.333709
 2591          o     87    ccc     O1   2591 -0.39142825  16.000000   ; qtot 0.637203
 2592         oh     87    ccc     O2   2592 -0.56822625  16.000000   ; qtot -0.203608
 2593         ho     87    ccc    H11   2593 0.4186155   1.008000   ; qtot 0.322467
 2594         c3     87    ccc     C7   2594 -0.01321200  12.010000   ; qtot 0.309255
 2595         h1     87    ccc    H12   2595 0.08172200   1.008000   ; qtot 0.390977
 2596         h1     87    ccc    H13   2596 0.08172200   1.008000   ; qtot 0.472699
 2597         c3     87    ccc     C8   2597 -0.22180000  12.010000   ; qtot 0.250899
 2598         hc     87    ccc    H14   2598 0.09671800   1.008000   ; qtot 0.347617
 2599         hc     87    ccc    H15   2599 0.09671800   1.008000   ; qtot 0.444335
 2600          c     87    ccc     C9   2600 0.526324  12.010000   ; qtot 1.440862
 2601          o     87    ccc     O3   2601 -0.39142825  16.000000   ; qtot 0.744356
 2602         oh     87    ccc     O4   2602 -0.56822625  16.000000   ; qtot -0.096455
 2603         ho     87    ccc    H16   2603 0.4186155   1.008000   ; qtot 0.429620
 2604         os     87    ccc     O5   2604 -0.42966500  16.000000   ; qtot -0.000045
; residue   88 ccc rtp ccc q 0.0
 2605         c3     88    ccc     C1   2605 0.50749700  12.010000   ; qtot 0.507452
 2606         h1     88    ccc     H1   2606 -0.02808400   1.008000   ; qtot 0.479368
 2607         h1     88    ccc     H2   2607 -0.02808400   1.008000   ; qtot 0.451284
 2608         c3     88    ccc     C2   2608 -0.15486000  12.010000   ; qtot 0.296424
 2609         hc     88    ccc     H3   2609 0.10266400   1.008000   ; qtot 0.399088
 2610         hc     88    ccc     H4   2610 0.10266400   1.008000   ; qtot 0.501752
 2611         c3     88    ccc     C3   2611 -0.15693500  12.010000   ; qtot 0.344817
 2612         h1     88    ccc     H5   2612 0.08499200   1.008000   ; qtot 0.429809
 2613         h1     88    ccc     H6   2613 0.08499200   1.008000   ; qtot 0.514801
 2614         n3     88    ccc     N1   2614 -0.29948700  14.010000   ; qtot 0.215314
 2615         c3     88    ccc     C4   2615 -0.01321200  12.010000   ; qtot 0.202102
 2616         h1     88    ccc     H7   2616 0.08172200   1.008000   ; qtot 0.283824
 2617         h1     88    ccc     H8   2617 0.08172200   1.008000   ; qtot 0.365546
 2618         c3     88    ccc     C5   2618 -0.22180000  12.010000   ; qtot 0.143746
 2619         hc     88    ccc     H9   2619 0.09671800   1.008000   ; qtot 0.240464
 2620         hc     88    ccc    H10   2620 0.09671800   1.008000   ; qtot 0.337182
 2621          c     88    ccc     C6   2621 0.526324  12.010000   ; qtot 1.333709
 2622          o     88    ccc     O1   2622 -0.39142825  16.000000   ; qtot 0.637203
 2623         oh     88    ccc     O2   2623 -0.56822625  16.000000   ; qtot -0.203608
 2624         ho     88    ccc    H11   2624 0.4186155   1.008000   ; qtot 0.322467
 2625         c3     88    ccc     C7   2625 -0.01321200  12.010000   ; qtot 0.309255
 2626         h1     88    ccc    H12   2626 0.08172200   1.008000   ; qtot 0.390977
 2627         h1     88    ccc    H13   2627 0.08172200   1.008000   ; qtot 0.472699
 2628         c3     88    ccc     C8   2628 -0.22180000  12.010000   ; qtot 0.250899
 2629         hc     88    ccc    H14   2629 0.09671800   1.008000   ; qtot 0.347617
 2630         hc     88    ccc    H15   2630 0.09671800   1.008000   ; qtot 0.444335
 2631          c     88    ccc     C9   2631 0.526324  12.010000   ; qtot 1.440862
 2632          o     88    ccc     O3   2632 -0.39142825  16.000000   ; qtot 0.744356
 2633         oh     88    ccc     O4   2633 -0.56822625  16.000000   ; qtot -0.096455
 2634         ho     88    ccc    H16   2634 0.4186155   1.008000   ; qtot 0.429620
 2635         os     88    ccc     O5   2635 -0.42966500  16.000000   ; qtot -0.000045
; residue   89 ccc rtp ccc q 0.0
 2636         c3     89    ccc     C1   2636 0.50749700  12.010000   ; qtot 0.507452
 2637         h1     89    ccc     H1   2637 -0.02808400   1.008000   ; qtot 0.479368
 2638         h1     89    ccc     H2   2638 -0.02808400   1.008000   ; qtot 0.451284
 2639         c3     89    ccc     C2   2639 -0.15486000  12.010000   ; qtot 0.296424
 2640         hc     89    ccc     H3   2640 0.10266400   1.008000   ; qtot 0.399088
 2641         hc     89    ccc     H4   2641 0.10266400   1.008000   ; qtot 0.501752
 2642         c3     89    ccc     C3   2642 -0.15693500  12.010000   ; qtot 0.344817
 2643         h1     89    ccc     H5   2643 0.08499200   1.008000   ; qtot 0.429809
 2644         h1     89    ccc     H6   2644 0.08499200   1.008000   ; qtot 0.514801
 2645         n3     89    ccc     N1   2645 -0.29948700  14.010000   ; qtot 0.215314
 2646         c3     89    ccc     C4   2646 -0.01321200  12.010000   ; qtot 0.202102
 2647         h1     89    ccc     H7   2647 0.08172200   1.008000   ; qtot 0.283824
 2648         h1     89    ccc     H8   2648 0.08172200   1.008000   ; qtot 0.365546
 2649         c3     89    ccc     C5   2649 -0.22180000  12.010000   ; qtot 0.143746
 2650         hc     89    ccc     H9   2650 0.09671800   1.008000   ; qtot 0.240464
 2651         hc     89    ccc    H10   2651 0.09671800   1.008000   ; qtot 0.337182
 2652          c     89    ccc     C6   2652 0.526324  12.010000   ; qtot 1.333709
 2653          o     89    ccc     O1   2653 -0.39142825  16.000000   ; qtot 0.637203
 2654         oh     89    ccc     O2   2654 -0.56822625  16.000000   ; qtot -0.203608
 2655         ho     89    ccc    H11   2655 0.4186155   1.008000   ; qtot 0.322467
 2656         c3     89    ccc     C7   2656 -0.01321200  12.010000   ; qtot 0.309255
 2657         h1     89    ccc    H12   2657 0.08172200   1.008000   ; qtot 0.390977
 2658         h1     89    ccc    H13   2658 0.08172200   1.008000   ; qtot 0.472699
 2659         c3     89    ccc     C8   2659 -0.22180000  12.010000   ; qtot 0.250899
 2660         hc     89    ccc    H14   2660 0.09671800   1.008000   ; qtot 0.347617
 2661         hc     89    ccc    H15   2661 0.09671800   1.008000   ; qtot 0.444335
 2662          c     89    ccc     C9   2662 0.526324  12.010000   ; qtot 1.440862
 2663          o     89    ccc     O3   2663 -0.39142825  16.000000   ; qtot 0.744356
 2664         oh     89    ccc     O4   2664 -0.56822625  16.000000   ; qtot -0.096455
 2665         ho     89    ccc    H16   2665 0.4186155   1.008000   ; qtot 0.429620
 2666         os     89    ccc     O5   2666 -0.42966500  16.000000   ; qtot -0.000045
; residue   90 ccc rtp ccc q 0.0
 2667         c3     90    ccc     C1   2667 0.50749700  12.010000   ; qtot 0.507452
 2668         h1     90    ccc     H1   2668 -0.02808400   1.008000   ; qtot 0.479368
 2669         h1     90    ccc     H2   2669 -0.02808400   1.008000   ; qtot 0.451284
 2670         c3     90    ccc     C2   2670 -0.15486000  12.010000   ; qtot 0.296424
 2671         hc     90    ccc     H3   2671 0.10266400   1.008000   ; qtot 0.399088
 2672         hc     90    ccc     H4   2672 0.10266400   1.008000   ; qtot 0.501752
 2673         c3     90    ccc     C3   2673 -0.15693500  12.010000   ; qtot 0.344817
 2674         h1     90    ccc     H5   2674 0.08499200   1.008000   ; qtot 0.429809
 2675         h1     90    ccc     H6   2675 0.08499200   1.008000   ; qtot 0.514801
 2676         n3     90    ccc     N1   2676 -0.29948700  14.010000   ; qtot 0.215314
 2677         c3     90    ccc     C4   2677 -0.01321200  12.010000   ; qtot 0.202102
 2678         h1     90    ccc     H7   2678 0.08172200   1.008000   ; qtot 0.283824
 2679         h1     90    ccc     H8   2679 0.08172200   1.008000   ; qtot 0.365546
 2680         c3     90    ccc     C5   2680 -0.22180000  12.010000   ; qtot 0.143746
 2681         hc     90    ccc     H9   2681 0.09671800   1.008000   ; qtot 0.240464
 2682         hc     90    ccc    H10   2682 0.09671800   1.008000   ; qtot 0.337182
 2683          c     90    ccc     C6   2683 0.526324  12.010000   ; qtot 1.333709
 2684          o     90    ccc     O1   2684 -0.39142825  16.000000   ; qtot 0.637203
 2685         oh     90    ccc     O2   2685 -0.56822625  16.000000   ; qtot -0.203608
 2686         ho     90    ccc    H11   2686 0.4186155   1.008000   ; qtot 0.322467
 2687         c3     90    ccc     C7   2687 -0.01321200  12.010000   ; qtot 0.309255
 2688         h1     90    ccc    H12   2688 0.08172200   1.008000   ; qtot 0.390977
 2689         h1     90    ccc    H13   2689 0.08172200   1.008000   ; qtot 0.472699
 2690         c3     90    ccc     C8   2690 -0.22180000  12.010000   ; qtot 0.250899
 2691         hc     90    ccc    H14   2691 0.09671800   1.008000   ; qtot 0.347617
 2692         hc     90    ccc    H15   2692 0.09671800   1.008000   ; qtot 0.444335
 2693          c     90    ccc     C9   2693 0.526324  12.010000   ; qtot 1.440862
 2694          o     90    ccc     O3   2694 -0.39142825  16.000000   ; qtot 0.744356
 2695         oh     90    ccc     O4   2695 -0.56822625  16.000000   ; qtot -0.096455
 2696         ho     90    ccc    H16   2696 0.4186155   1.008000   ; qtot 0.429620
 2697         os     90    ccc     O5   2697 -0.42966500  16.000000   ; qtot -0.000045
; residue   91 ccc rtp ccc q 0.0
 2698         c3     91    ccc     C1   2698 0.50749700  12.010000   ; qtot 0.507452
 2699         h1     91    ccc     H1   2699 -0.02808400   1.008000   ; qtot 0.479368
 2700         h1     91    ccc     H2   2700 -0.02808400   1.008000   ; qtot 0.451284
 2701         c3     91    ccc     C2   2701 -0.15486000  12.010000   ; qtot 0.296424
 2702         hc     91    ccc     H3   2702 0.10266400   1.008000   ; qtot 0.399088
 2703         hc     91    ccc     H4   2703 0.10266400   1.008000   ; qtot 0.501752
 2704         c3     91    ccc     C3   2704 -0.15693500  12.010000   ; qtot 0.344817
 2705         h1     91    ccc     H5   2705 0.08499200   1.008000   ; qtot 0.429809
 2706         h1     91    ccc     H6   2706 0.08499200   1.008000   ; qtot 0.514801
 2707         n3     91    ccc     N1   2707 -0.29948700  14.010000   ; qtot 0.215314
 2708         c3     91    ccc     C4   2708 -0.01321200  12.010000   ; qtot 0.202102
 2709         h1     91    ccc     H7   2709 0.08172200   1.008000   ; qtot 0.283824
 2710         h1     91    ccc     H8   2710 0.08172200   1.008000   ; qtot 0.365546
 2711         c3     91    ccc     C5   2711 -0.22180000  12.010000   ; qtot 0.143746
 2712         hc     91    ccc     H9   2712 0.09671800   1.008000   ; qtot 0.240464
 2713         hc     91    ccc    H10   2713 0.09671800   1.008000   ; qtot 0.337182
 2714          c     91    ccc     C6   2714 0.526324  12.010000   ; qtot 1.333709
 2715          o     91    ccc     O1   2715 -0.39142825  16.000000   ; qtot 0.637203
 2716         oh     91    ccc     O2   2716 -0.56822625  16.000000   ; qtot -0.203608
 2717         ho     91    ccc    H11   2717 0.4186155   1.008000   ; qtot 0.322467
 2718         c3     91    ccc     C7   2718 -0.01321200  12.010000   ; qtot 0.309255
 2719         h1     91    ccc    H12   2719 0.08172200   1.008000   ; qtot 0.390977
 2720         h1     91    ccc    H13   2720 0.08172200   1.008000   ; qtot 0.472699
 2721         c3     91    ccc     C8   2721 -0.22180000  12.010000   ; qtot 0.250899
 2722         hc     91    ccc    H14   2722 0.09671800   1.008000   ; qtot 0.347617
 2723         hc     91    ccc    H15   2723 0.09671800   1.008000   ; qtot 0.444335
 2724          c     91    ccc     C9   2724 0.526324  12.010000   ; qtot 1.440862
 2725          o     91    ccc     O3   2725 -0.39142825  16.000000   ; qtot 0.744356
 2726         oh     91    ccc     O4   2726 -0.56822625  16.000000   ; qtot -0.096455
 2727         ho     91    ccc    H16   2727 0.4186155   1.008000   ; qtot 0.429620
 2728         os     91    ccc     O5   2728 -0.42966500  16.000000   ; qtot -0.000045
; residue   92 ccc rtp ccc q 0.0
 2729         c3     92    ccc     C1   2729 0.50749700  12.010000   ; qtot 0.507452
 2730         h1     92    ccc     H1   2730 -0.02808400   1.008000   ; qtot 0.479368
 2731         h1     92    ccc     H2   2731 -0.02808400   1.008000   ; qtot 0.451284
 2732         c3     92    ccc     C2   2732 -0.15486000  12.010000   ; qtot 0.296424
 2733         hc     92    ccc     H3   2733 0.10266400   1.008000   ; qtot 0.399088
 2734         hc     92    ccc     H4   2734 0.10266400   1.008000   ; qtot 0.501752
 2735         c3     92    ccc     C3   2735 -0.15693500  12.010000   ; qtot 0.344817
 2736         h1     92    ccc     H5   2736 0.08499200   1.008000   ; qtot 0.429809
 2737         h1     92    ccc     H6   2737 0.08499200   1.008000   ; qtot 0.514801
 2738         n3     92    ccc     N1   2738 -0.29948700  14.010000   ; qtot 0.215314
 2739         c3     92    ccc     C4   2739 -0.01321200  12.010000   ; qtot 0.202102
 2740         h1     92    ccc     H7   2740 0.08172200   1.008000   ; qtot 0.283824
 2741         h1     92    ccc     H8   2741 0.08172200   1.008000   ; qtot 0.365546
 2742         c3     92    ccc     C5   2742 -0.22180000  12.010000   ; qtot 0.143746
 2743         hc     92    ccc     H9   2743 0.09671800   1.008000   ; qtot 0.240464
 2744         hc     92    ccc    H10   2744 0.09671800   1.008000   ; qtot 0.337182
 2745          c     92    ccc     C6   2745 0.526324  12.010000   ; qtot 1.333709
 2746          o     92    ccc     O1   2746 -0.39142825  16.000000   ; qtot 0.637203
 2747         oh     92    ccc     O2   2747 -0.56822625  16.000000   ; qtot -0.203608
 2748         ho     92    ccc    H11   2748 0.4186155   1.008000   ; qtot 0.322467
 2749         c3     92    ccc     C7   2749 -0.01321200  12.010000   ; qtot 0.309255
 2750         h1     92    ccc    H12   2750 0.08172200   1.008000   ; qtot 0.390977
 2751         h1     92    ccc    H13   2751 0.08172200   1.008000   ; qtot 0.472699
 2752         c3     92    ccc     C8   2752 -0.22180000  12.010000   ; qtot 0.250899
 2753         hc     92    ccc    H14   2753 0.09671800   1.008000   ; qtot 0.347617
 2754         hc     92    ccc    H15   2754 0.09671800   1.008000   ; qtot 0.444335
 2755          c     92    ccc     C9   2755 0.526324  12.010000   ; qtot 1.440862
 2756          o     92    ccc     O3   2756 -0.39142825  16.000000   ; qtot 0.744356
 2757         oh     92    ccc     O4   2757 -0.56822625  16.000000   ; qtot -0.096455
 2758         ho     92    ccc    H16   2758 0.4186155   1.008000   ; qtot 0.429620
 2759         os     92    ccc     O5   2759 -0.42966500  16.000000   ; qtot -0.000045
; residue   93 ccc rtp ccc q 0.0
 2760         c3     93    ccc     C1   2760 0.50749700  12.010000   ; qtot 0.507452
 2761         h1     93    ccc     H1   2761 -0.02808400   1.008000   ; qtot 0.479368
 2762         h1     93    ccc     H2   2762 -0.02808400   1.008000   ; qtot 0.451284
 2763         c3     93    ccc     C2   2763 -0.15486000  12.010000   ; qtot 0.296424
 2764         hc     93    ccc     H3   2764 0.10266400   1.008000   ; qtot 0.399088
 2765         hc     93    ccc     H4   2765 0.10266400   1.008000   ; qtot 0.501752
 2766         c3     93    ccc     C3   2766 -0.15693500  12.010000   ; qtot 0.344817
 2767         h1     93    ccc     H5   2767 0.08499200   1.008000   ; qtot 0.429809
 2768         h1     93    ccc     H6   2768 0.08499200   1.008000   ; qtot 0.514801
 2769         n3     93    ccc     N1   2769 -0.29948700  14.010000   ; qtot 0.215314
 2770         c3     93    ccc     C4   2770 -0.01321200  12.010000   ; qtot 0.202102
 2771         h1     93    ccc     H7   2771 0.08172200   1.008000   ; qtot 0.283824
 2772         h1     93    ccc     H8   2772 0.08172200   1.008000   ; qtot 0.365546
 2773         c3     93    ccc     C5   2773 -0.22180000  12.010000   ; qtot 0.143746
 2774         hc     93    ccc     H9   2774 0.09671800   1.008000   ; qtot 0.240464
 2775         hc     93    ccc    H10   2775 0.09671800   1.008000   ; qtot 0.337182
 2776          c     93    ccc     C6   2776 0.526324  12.010000   ; qtot 1.333709
 2777          o     93    ccc     O1   2777 -0.39142825  16.000000   ; qtot 0.637203
 2778         oh     93    ccc     O2   2778 -0.56822625  16.000000   ; qtot -0.203608
 2779         ho     93    ccc    H11   2779 0.4186155   1.008000   ; qtot 0.322467
 2780         c3     93    ccc     C7   2780 -0.01321200  12.010000   ; qtot 0.309255
 2781         h1     93    ccc    H12   2781 0.08172200   1.008000   ; qtot 0.390977
 2782         h1     93    ccc    H13   2782 0.08172200   1.008000   ; qtot 0.472699
 2783         c3     93    ccc     C8   2783 -0.22180000  12.010000   ; qtot 0.250899
 2784         hc     93    ccc    H14   2784 0.09671800   1.008000   ; qtot 0.347617
 2785         hc     93    ccc    H15   2785 0.09671800   1.008000   ; qtot 0.444335
 2786          c     93    ccc     C9   2786 0.526324  12.010000   ; qtot 1.440862
 2787          o     93    ccc     O3   2787 -0.39142825  16.000000   ; qtot 0.744356
 2788         oh     93    ccc     O4   2788 -0.56822625  16.000000   ; qtot -0.096455
 2789         ho     93    ccc    H16   2789 0.4186155   1.008000   ; qtot 0.429620
 2790         os     93    ccc     O5   2790 -0.42966500  16.000000   ; qtot -0.000045
; residue   94 ccc rtp ccc q 0.0
 2791         c3     94    ccc     C1   2791 0.50749700  12.010000   ; qtot 0.507452
 2792         h1     94    ccc     H1   2792 -0.02808400   1.008000   ; qtot 0.479368
 2793         h1     94    ccc     H2   2793 -0.02808400   1.008000   ; qtot 0.451284
 2794         c3     94    ccc     C2   2794 -0.15486000  12.010000   ; qtot 0.296424
 2795         hc     94    ccc     H3   2795 0.10266400   1.008000   ; qtot 0.399088
 2796         hc     94    ccc     H4   2796 0.10266400   1.008000   ; qtot 0.501752
 2797         c3     94    ccc     C3   2797 -0.15693500  12.010000   ; qtot 0.344817
 2798         h1     94    ccc     H5   2798 0.08499200   1.008000   ; qtot 0.429809
 2799         h1     94    ccc     H6   2799 0.08499200   1.008000   ; qtot 0.514801
 2800         n3     94    ccc     N1   2800 -0.29948700  14.010000   ; qtot 0.215314
 2801         c3     94    ccc     C4   2801 -0.01321200  12.010000   ; qtot 0.202102
 2802         h1     94    ccc     H7   2802 0.08172200   1.008000   ; qtot 0.283824
 2803         h1     94    ccc     H8   2803 0.08172200   1.008000   ; qtot 0.365546
 2804         c3     94    ccc     C5   2804 -0.22180000  12.010000   ; qtot 0.143746
 2805         hc     94    ccc     H9   2805 0.09671800   1.008000   ; qtot 0.240464
 2806         hc     94    ccc    H10   2806 0.09671800   1.008000   ; qtot 0.337182
 2807          c     94    ccc     C6   2807 0.526324  12.010000   ; qtot 1.333709
 2808          o     94    ccc     O1   2808 -0.39142825  16.000000   ; qtot 0.637203
 2809         oh     94    ccc     O2   2809 -0.56822625  16.000000   ; qtot -0.203608
 2810         ho     94    ccc    H11   2810 0.4186155   1.008000   ; qtot 0.322467
 2811         c3     94    ccc     C7   2811 -0.01321200  12.010000   ; qtot 0.309255
 2812         h1     94    ccc    H12   2812 0.08172200   1.008000   ; qtot 0.390977
 2813         h1     94    ccc    H13   2813 0.08172200   1.008000   ; qtot 0.472699
 2814         c3     94    ccc     C8   2814 -0.22180000  12.010000   ; qtot 0.250899
 2815         hc     94    ccc    H14   2815 0.09671800   1.008000   ; qtot 0.347617
 2816         hc     94    ccc    H15   2816 0.09671800   1.008000   ; qtot 0.444335
 2817          c     94    ccc     C9   2817 0.526324  12.010000   ; qtot 1.440862
 2818          o     94    ccc     O3   2818 -0.39142825  16.000000   ; qtot 0.744356
 2819         oh     94    ccc     O4   2819 -0.56822625  16.000000   ; qtot -0.096455
 2820         ho     94    ccc    H16   2820 0.4186155   1.008000   ; qtot 0.429620
 2821         os     94    ccc     O5   2821 -0.42966500  16.000000   ; qtot -0.000045

[ bonds ]
;    ai     aj funct         c0         c1         c2         c3
      1      2     1   0.14647 272713.120000
      1      5     1   0.14647 272713.120000
      1      8     1   0.14647 272713.120000
      2     14     1   0.15375 251793.120000
      5     17     1   0.15375 251793.120000
      8     11     1   0.15375 251793.120000
     11     23     1   0.15375 251793.120000
     14     26     1   0.15375 251793.120000
     17     20     1   0.15375 251793.120000
     20     57     1   0.14316 258236.480000
     23     86     1   0.14316 258236.480000
     26    115     1   0.14316 258236.480000
     29     30     1   0.14647 272713.120000
     29     33     1   0.14647 272713.120000
     29     36     1   0.14647 272713.120000
     30     42     1   0.15375 251793.120000
     33     45     1   0.15375 251793.120000
     36     39     1   0.15375 251793.120000
     39     48     1   0.15375 251793.120000
     42     54     1   0.15375 251793.120000
     45     51     1   0.15375 251793.120000
     48     57     1   0.14316 258236.480000
     51    144     1   0.14316 258236.480000
     54    173     1   0.14316 258236.480000
     58     59     1   0.14647 272713.120000
     58     62     1   0.14647 272713.120000
     58     65     1   0.14647 272713.120000
     59     71     1   0.15375 251793.120000
     62     74     1   0.15375 251793.120000
     65     68     1   0.15375 251793.120000
     68     77     1   0.15375 251793.120000
     71     83     1   0.15375 251793.120000
     74     80     1   0.15375 251793.120000
     77     86     1   0.14316 258236.480000
     80    202     1   0.14316 258236.480000
     83    231     1   0.14316 258236.480000
     87     88     1   0.14647 272713.120000
     87     91     1   0.14647 272713.120000
     87     94     1   0.14647 272713.120000
     88    100     1   0.15375 251793.120000
     91    103     1   0.15375 251793.120000
     94     97     1   0.15375 251793.120000
     97    106     1   0.15375 251793.120000
    100    112     1   0.15375 251793.120000
    103    109     1   0.15375 251793.120000
    106    115     1   0.14316 258236.480000
    109    260     1   0.14316 258236.480000
    112    289     1   0.14316 258236.480000
    116    117     1   0.14647 272713.120000
    116    120     1   0.14647 272713.120000
    116    123     1   0.14647 272713.120000
    117    129     1   0.15375 251793.120000
    120    132     1   0.15375 251793.120000
    123    126     1   0.15375 251793.120000
    126    135     1   0.15375 251793.120000
    129    141     1   0.15375 251793.120000
    132    138     1   0.15375 251793.120000
    135    144     1   0.14316 258236.480000
    138    318     1   0.14316 258236.480000
    141    347     1   0.14316 258236.480000
    145    146     1   0.14647 272713.120000
    145    149     1   0.14647 272713.120000
    145    152     1   0.14647 272713.120000
    146    158     1   0.15375 251793.120000
    149    161     1   0.15375 251793.120000
    152    155     1   0.15375 251793.120000
    155    164     1   0.15375 251793.120000
    158    170     1   0.15375 251793.120000
    161    167     1   0.15375 251793.120000
    164    173     1   0.14316 258236.480000
    167    376     1   0.14316 258236.480000
    170    405     1   0.14316 258236.480000
    174    175     1   0.14647 272713.120000
    174    178     1   0.14647 272713.120000
    174    181     1   0.14647 272713.120000
    175    187     1   0.15375 251793.120000
    178    190     1   0.15375 251793.120000
    181    184     1   0.15375 251793.120000
    184    193     1   0.15375 251793.120000
    187    199     1   0.15375 251793.120000
    190    196     1   0.15375 251793.120000
    193    202     1   0.14316 258236.480000
    196    434     1   0.14316 258236.480000
    199    463     1   0.14316 258236.480000
    203    204     1   0.14647 272713.120000
    203    207     1   0.14647 272713.120000
    203    210     1   0.14647 272713.120000
    204    216     1   0.15375 251793.120000
    207    219     1   0.15375 251793.120000
    210    213     1   0.15375 251793.120000
    213    222     1   0.15375 251793.120000
    216    228     1   0.15375 251793.120000
    219    225     1   0.15375 251793.120000
    222    231     1   0.14316 258236.480000
    225    492     1   0.14316 258236.480000
    228    521     1   0.14316 258236.480000
    232    233     1   0.14647 272713.120000
    232    236     1   0.14647 272713.120000
    232    239     1   0.14647 272713.120000
    233    245     1   0.15375 251793.120000
    236    248     1   0.15375 251793.120000
    239    242     1   0.15375 251793.120000
    242    251     1   0.15375 251793.120000
    245    257     1   0.15375 251793.120000
    248    254     1   0.15375 251793.120000
    251    260     1   0.14316 258236.480000
    254    550     1   0.14316 258236.480000
    257    579     1   0.14316 258236.480000
    261    262     1   0.14647 272713.120000
    261    265     1   0.14647 272713.120000
    261    268     1   0.14647 272713.120000
    262    274     1   0.15375 251793.120000
    265    277     1   0.15375 251793.120000
    268    271     1   0.15375 251793.120000
    271    280     1   0.15375 251793.120000
    274    286     1   0.15375 251793.120000
    277    283     1   0.15375 251793.120000
    280    289     1   0.14316 258236.480000
    283    608     1   0.14316 258236.480000
    286    637     1   0.14316 258236.480000
    290    291     1   0.14647 272713.120000
    290    294     1   0.14647 272713.120000
    290    297     1   0.14647 272713.120000
    291    303     1   0.15375 251793.120000
    294    306     1   0.15375 251793.120000
    297    300     1   0.15375 251793.120000
    300    309     1   0.15375 251793.120000
    303    315     1   0.15375 251793.120000
    306    312     1   0.15375 251793.120000
    309    318     1   0.14316 258236.480000
    312    666     1   0.14316 258236.480000
    315    695     1   0.14316 258236.480000
    319    320     1   0.14647 272713.120000
    319    323     1   0.14647 272713.120000
    319    326     1   0.14647 272713.120000
    320    332     1   0.15375 251793.120000
    323    335     1   0.15375 251793.120000
    326    329     1   0.15375 251793.120000
    329    338     1   0.15375 251793.120000
    332    344     1   0.15375 251793.120000
    335    341     1   0.15375 251793.120000
    338    347     1   0.14316 258236.480000
    341    724     1   0.14316 258236.480000
    344    753     1   0.14316 258236.480000
    348    349     1   0.14647 272713.120000
    348    352     1   0.14647 272713.120000
    348    355     1   0.14647 272713.120000
    349    361     1   0.15375 251793.120000
    352    364     1   0.15375 251793.120000
    355    358     1   0.15375 251793.120000
    358    367     1   0.15375 251793.120000
    361    373     1   0.15375 251793.120000
    364    370     1   0.15375 251793.120000
    367    376     1   0.14316 258236.480000
    370    782     1   0.14316 258236.480000
    373    811     1   0.14316 258236.480000
    377    378     1   0.14647 272713.120000
    377    381     1   0.14647 272713.120000
    377    384     1   0.14647 272713.120000
    378    390     1   0.15375 251793.120000
    381    393     1   0.15375 251793.120000
    384    387     1   0.15375 251793.120000
    387    396     1   0.15375 251793.120000
    390    402     1   0.15375 251793.120000
    393    399     1   0.15375 251793.120000
    396    405     1   0.14316 258236.480000
    399    840     1   0.14316 258236.480000
    402    869     1   0.14316 258236.480000
    406    407     1   0.14647 272713.120000
    406    410     1   0.14647 272713.120000
    406    413     1   0.14647 272713.120000
    407    419     1   0.15375 251793.120000
    410    422     1   0.15375 251793.120000
    413    416     1   0.15375 251793.120000
    416    425     1   0.15375 251793.120000
    419    431     1   0.15375 251793.120000
    422    428     1   0.15375 251793.120000
    425    434     1   0.14316 258236.480000
    428    898     1   0.14316 258236.480000
    431    927     1   0.14316 258236.480000
    435    436     1   0.14647 272713.120000
    435    439     1   0.14647 272713.120000
    435    442     1   0.14647 272713.120000
    436    448     1   0.15375 251793.120000
    439    451     1   0.15375 251793.120000
    442    445     1   0.15375 251793.120000
    445    454     1   0.15375 251793.120000
    448    460     1   0.15375 251793.120000
    451    457     1   0.15375 251793.120000
    454    463     1   0.14316 258236.480000
    457    956     1   0.14316 258236.480000
    460    985     1   0.14316 258236.480000
    464    465     1   0.14647 272713.120000
    464    468     1   0.14647 272713.120000
    464    471     1   0.14647 272713.120000
    465    477     1   0.15375 251793.120000
    468    480     1   0.15375 251793.120000
    471    474     1   0.15375 251793.120000
    474    483     1   0.15375 251793.120000
    477    489     1   0.15375 251793.120000
    480    486     1   0.15375 251793.120000
    483    492     1   0.14316 258236.480000
    486   1014     1   0.14316 258236.480000
    489   1043     1   0.14316 258236.480000
    493    494     1   0.14647 272713.120000
    493    497     1   0.14647 272713.120000
    493    500     1   0.14647 272713.120000
    494    506     1   0.15375 251793.120000
    497    509     1   0.15375 251793.120000
    500    503     1   0.15375 251793.120000
    503    512     1   0.15375 251793.120000
    506    518     1   0.15375 251793.120000
    509    515     1   0.15375 251793.120000
    512    521     1   0.14316 258236.480000
    515   1072     1   0.14316 258236.480000
    518   1101     1   0.14316 258236.480000
    522    523     1   0.14647 272713.120000
    522    526     1   0.14647 272713.120000
    522    529     1   0.14647 272713.120000
    523    535     1   0.15375 251793.120000
    526    538     1   0.15375 251793.120000
    529    532     1   0.15375 251793.120000
    532    541     1   0.15375 251793.120000
    535    547     1   0.15375 251793.120000
    538    544     1   0.15375 251793.120000
    541    550     1   0.14316 258236.480000
    544   1130     1   0.14316 258236.480000
    547   1159     1   0.14316 258236.480000
    551    552     1   0.14647 272713.120000
    551    555     1   0.14647 272713.120000
    551    558     1   0.14647 272713.120000
    552    564     1   0.15375 251793.120000
    555    567     1   0.15375 251793.120000
    558    561     1   0.15375 251793.120000
    561    570     1   0.15375 251793.120000
    564    576     1   0.15375 251793.120000
    567    573     1   0.15375 251793.120000
    570    579     1   0.14316 258236.480000
    573   1188     1   0.14316 258236.480000
    576   1217     1   0.14316 258236.480000
    580    581     1   0.14647 272713.120000
    580    584     1   0.14647 272713.120000
    580    587     1   0.14647 272713.120000
    581    593     1   0.15375 251793.120000
    584    596     1   0.15375 251793.120000
    587    590     1   0.15375 251793.120000
    590    599     1   0.15375 251793.120000
    593    605     1   0.15375 251793.120000
    596    602     1   0.15375 251793.120000
    599    608     1   0.14316 258236.480000
    602   1246     1   0.14316 258236.480000
    605   1275     1   0.14316 258236.480000
    609    610     1   0.14647 272713.120000
    609    613     1   0.14647 272713.120000
    609    616     1   0.14647 272713.120000
    610    622     1   0.15375 251793.120000
    613    625     1   0.15375 251793.120000
    616    619     1   0.15375 251793.120000
    619    628     1   0.15375 251793.120000
    622    634     1   0.15375 251793.120000
    625    631     1   0.15375 251793.120000
    628    637     1   0.14316 258236.480000
    631   1304     1   0.14316 258236.480000
    634   1333     1   0.14316 258236.480000
    638    639     1   0.14647 272713.120000
    638    642     1   0.14647 272713.120000
    638    645     1   0.14647 272713.120000
    639    651     1   0.15375 251793.120000
    642    654     1   0.15375 251793.120000
    645    648     1   0.15375 251793.120000
    648    657     1   0.15375 251793.120000
    651    663     1   0.15375 251793.120000
    654    660     1   0.15375 251793.120000
    657    666     1   0.14316 258236.480000
    660   1364     1   0.14316 258236.480000
    663   1395     1   0.14316 258236.480000
    667    668     1   0.14647 272713.120000
    667    671     1   0.14647 272713.120000
    667    674     1   0.14647 272713.120000
    668    680     1   0.15375 251793.120000
    671    683     1   0.15375 251793.120000
    674    677     1   0.15375 251793.120000
    677    686     1   0.15375 251793.120000
    680    692     1   0.15375 251793.120000
    683    689     1   0.15375 251793.120000
    686    695     1   0.14316 258236.480000
    689   1426     1   0.14316 258236.480000
    692   1457     1   0.14316 258236.480000
    696    697     1   0.14647 272713.120000
    696    700     1   0.14647 272713.120000
    696    703     1   0.14647 272713.120000
    697    709     1   0.15375 251793.120000
    700    712     1   0.15375 251793.120000
    703    706     1   0.15375 251793.120000
    706    715     1   0.15375 251793.120000
    709    721     1   0.15375 251793.120000
    712    718     1   0.15375 251793.120000
    715    724     1   0.14316 258236.480000
    718   1488     1   0.14316 258236.480000
    721   1519     1   0.14316 258236.480000
    725    726     1   0.14647 272713.120000
    725    729     1   0.14647 272713.120000
    725    732     1   0.14647 272713.120000
    726    738     1   0.15375 251793.120000
    729    741     1   0.15375 251793.120000
    732    735     1   0.15375 251793.120000
    735    744     1   0.15375 251793.120000
    738    750     1   0.15375 251793.120000
    741    747     1   0.15375 251793.120000
    744    753     1   0.14316 258236.480000
    747   1550     1   0.14316 258236.480000
    750   1581     1   0.14316 258236.480000
    754    755     1   0.14647 272713.120000
    754    758     1   0.14647 272713.120000
    754    761     1   0.14647 272713.120000
    755    767     1   0.15375 251793.120000
    758    770     1   0.15375 251793.120000
    761    764     1   0.15375 251793.120000
    764    773     1   0.15375 251793.120000
    767    779     1   0.15375 251793.120000
    770    776     1   0.15375 251793.120000
    773    782     1   0.14316 258236.480000
    776   1612     1   0.14316 258236.480000
    779   1643     1   0.14316 258236.480000
    783    784     1   0.14647 272713.120000
    783    787     1   0.14647 272713.120000
    783    790     1   0.14647 272713.120000
    784    796     1   0.15375 251793.120000
    787    799     1   0.15375 251793.120000
    790    793     1   0.15375 251793.120000
    793    802     1   0.15375 251793.120000
    796    808     1   0.15375 251793.120000
    799    805     1   0.15375 251793.120000
    802    811     1   0.14316 258236.480000
    805   1674     1   0.14316 258236.480000
    808   1705     1   0.14316 258236.480000
    812    813     1   0.14647 272713.120000
    812    816     1   0.14647 272713.120000
    812    819     1   0.14647 272713.120000
    813    825     1   0.15375 251793.120000
    816    828     1   0.15375 251793.120000
    819    822     1   0.15375 251793.120000
    822    831     1   0.15375 251793.120000
    825    837     1   0.15375 251793.120000
    828    834     1   0.15375 251793.120000
    831    840     1   0.14316 258236.480000
    834   1736     1   0.14316 258236.480000
    837   1767     1   0.14316 258236.480000
    841    842     1   0.14647 272713.120000
    841    845     1   0.14647 272713.120000
    841    848     1   0.14647 272713.120000
    842    854     1   0.15375 251793.120000
    845    857     1   0.15375 251793.120000
    848    851     1   0.15375 251793.120000
    851    860     1   0.15375 251793.120000
    854    866     1   0.15375 251793.120000
    857    863     1   0.15375 251793.120000
    860    869     1   0.14316 258236.480000
    863   1798     1   0.14316 258236.480000
    866   1829     1   0.14316 258236.480000
    870    871     1   0.14647 272713.120000
    870    874     1   0.14647 272713.120000
    870    877     1   0.14647 272713.120000
    871    883     1   0.15375 251793.120000
    874    886     1   0.15375 251793.120000
    877    880     1   0.15375 251793.120000
    880    889     1   0.15375 251793.120000
    883    895     1   0.15375 251793.120000
    886    892     1   0.15375 251793.120000
    889    898     1   0.14316 258236.480000
    892   1860     1   0.14316 258236.480000
    895   1891     1   0.14316 258236.480000
    899    900     1   0.14647 272713.120000
    899    903     1   0.14647 272713.120000
    899    906     1   0.14647 272713.120000
    900    912     1   0.15375 251793.120000
    903    915     1   0.15375 251793.120000
    906    909     1   0.15375 251793.120000
    909    918     1   0.15375 251793.120000
    912    924     1   0.15375 251793.120000
    915    921     1   0.15375 251793.120000
    918    927     1   0.14316 258236.480000
    921   1922     1   0.14316 258236.480000
    924   1953     1   0.14316 258236.480000
    928    929     1   0.14647 272713.120000
    928    932     1   0.14647 272713.120000
    928    935     1   0.14647 272713.120000
    929    941     1   0.15375 251793.120000
    932    944     1   0.15375 251793.120000
    935    938     1   0.15375 251793.120000
    938    947     1   0.15375 251793.120000
    941    953     1   0.15375 251793.120000
    944    950     1   0.15375 251793.120000
    947    956     1   0.14316 258236.480000
    950   1984     1   0.14316 258236.480000
    953   2015     1   0.14316 258236.480000
    957    958     1   0.14647 272713.120000
    957    961     1   0.14647 272713.120000
    957    964     1   0.14647 272713.120000
    958    970     1   0.15375 251793.120000
    961    973     1   0.15375 251793.120000
    964    967     1   0.15375 251793.120000
    967    976     1   0.15375 251793.120000
    970    982     1   0.15375 251793.120000
    973    979     1   0.15375 251793.120000
    976    985     1   0.14316 258236.480000
    979   2046     1   0.14316 258236.480000
    982   2077     1   0.14316 258236.480000
    986    987     1   0.14647 272713.120000
    986    990     1   0.14647 272713.120000
    986    993     1   0.14647 272713.120000
    987    999     1   0.15375 251793.120000
    990   1002     1   0.15375 251793.120000
    993    996     1   0.15375 251793.120000
    996   1005     1   0.15375 251793.120000
    999   1011     1   0.15375 251793.120000
   1002   1008     1   0.15375 251793.120000
   1005   1014     1   0.14316 258236.480000
   1008   2108     1   0.14316 258236.480000
   1011   2139     1   0.14316 258236.480000
   1015   1016     1   0.14647 272713.120000
   1015   1019     1   0.14647 272713.120000
   1015   1022     1   0.14647 272713.120000
   1016   1028     1   0.15375 251793.120000
   1019   1031     1   0.15375 251793.120000
   1022   1025     1   0.15375 251793.120000
   1025   1034     1   0.15375 251793.120000
   1028   1040     1   0.15375 251793.120000
   1031   1037     1   0.15375 251793.120000
   1034   1043     1   0.14316 258236.480000
   1037   2170     1   0.14316 258236.480000
   1040   2201     1   0.14316 258236.480000
   1044   1045     1   0.14647 272713.120000
   1044   1048     1   0.14647 272713.120000
   1044   1051     1   0.14647 272713.120000
   1045   1057     1   0.15375 251793.120000
   1048   1060     1   0.15375 251793.120000
   1051   1054     1   0.15375 251793.120000
   1054   1063     1   0.15375 251793.120000
   1057   1069     1   0.15375 251793.120000
   1060   1066     1   0.15375 251793.120000
   1063   1072     1   0.14316 258236.480000
   1066   2232     1   0.14316 258236.480000
   1069   2263     1   0.14316 258236.480000
   1073   1074     1   0.14647 272713.120000
   1073   1077     1   0.14647 272713.120000
   1073   1080     1   0.14647 272713.120000
   1074   1086     1   0.15375 251793.120000
   1077   1089     1   0.15375 251793.120000
   1080   1083     1   0.15375 251793.120000
   1083   1092     1   0.15375 251793.120000
   1086   1098     1   0.15375 251793.120000
   1089   1095     1   0.15375 251793.120000
   1092   1101     1   0.14316 258236.480000
   1095   2294     1   0.14316 258236.480000
   1098   2325     1   0.14316 258236.480000
   1102   1103     1   0.14647 272713.120000
   1102   1106     1   0.14647 272713.120000
   1102   1109     1   0.14647 272713.120000
   1103   1115     1   0.15375 251793.120000
   1106   1118     1   0.15375 251793.120000
   1109   1112     1   0.15375 251793.120000
   1112   1121     1   0.15375 251793.120000
   1115   1127     1   0.15375 251793.120000
   1118   1124     1   0.15375 251793.120000
   1121   1130     1   0.14316 258236.480000
   1124   2356     1   0.14316 258236.480000
   1127   2387     1   0.14316 258236.480000
   1131   1132     1   0.14647 272713.120000
   1131   1135     1   0.14647 272713.120000
   1131   1138     1   0.14647 272713.120000
   1132   1144     1   0.15375 251793.120000
   1135   1147     1   0.15375 251793.120000
   1138   1141     1   0.15375 251793.120000
   1141   1150     1   0.15375 251793.120000
   1144   1156     1   0.15375 251793.120000
   1147   1153     1   0.15375 251793.120000
   1150   1159     1   0.14316 258236.480000
   1153   2418     1   0.14316 258236.480000
   1156   2449     1   0.14316 258236.480000
   1160   1161     1   0.14647 272713.120000
   1160   1164     1   0.14647 272713.120000
   1160   1167     1   0.14647 272713.120000
   1161   1173     1   0.15375 251793.120000
   1164   1176     1   0.15375 251793.120000
   1167   1170     1   0.15375 251793.120000
   1170   1179     1   0.15375 251793.120000
   1173   1185     1   0.15375 251793.120000
   1176   1182     1   0.15375 251793.120000
   1179   1188     1   0.14316 258236.480000
   1182   2480     1   0.14316 258236.480000
   1185   2511     1   0.14316 258236.480000
   1189   1190     1   0.14647 272713.120000
   1189   1193     1   0.14647 272713.120000
   1189   1196     1   0.14647 272713.120000
   1190   1202     1   0.15375 251793.120000
   1193   1205     1   0.15375 251793.120000
   1196   1199     1   0.15375 251793.120000
   1199   1208     1   0.15375 251793.120000
   1202   1214     1   0.15375 251793.120000
   1205   1211     1   0.15375 251793.120000
   1208   1217     1   0.14316 258236.480000
   1211   2542     1   0.14316 258236.480000
   1214   2573     1   0.14316 258236.480000
   1218   1219     1   0.14647 272713.120000
   1218   1222     1   0.14647 272713.120000
   1218   1225     1   0.14647 272713.120000
   1219   1231     1   0.15375 251793.120000
   1222   1234     1   0.15375 251793.120000
   1225   1228     1   0.15375 251793.120000
   1228   1237     1   0.15375 251793.120000
   1231   1243     1   0.15375 251793.120000
   1234   1240     1   0.15375 251793.120000
   1237   1246     1   0.14316 258236.480000
   1240   2604     1   0.14316 258236.480000
   1243   2635     1   0.14316 258236.480000
   1247   1248     1   0.14647 272713.120000
   1247   1251     1   0.14647 272713.120000
   1247   1254     1   0.14647 272713.120000
   1248   1260     1   0.15375 251793.120000
   1251   1263     1   0.15375 251793.120000
   1254   1257     1   0.15375 251793.120000
   1257   1266     1   0.15375 251793.120000
   1260   1272     1   0.15375 251793.120000
   1263   1269     1   0.15375 251793.120000
   1266   1275     1   0.14316 258236.480000
   1269   2666     1   0.14316 258236.480000
   1272   2697     1   0.14316 258236.480000
   1276   1277     1   0.14647 272713.120000
   1276   1280     1   0.14647 272713.120000
   1276   1283     1   0.14647 272713.120000
   1277   1289     1   0.15375 251793.120000
   1280   1292     1   0.15375 251793.120000
   1283   1286     1   0.15375 251793.120000
   1286   1295     1   0.15375 251793.120000
   1289   1301     1   0.15375 251793.120000
   1292   1298     1   0.15375 251793.120000
   1295   1304     1   0.14316 258236.480000
   1298   2728     1   0.14316 258236.480000
   1301   2759     1   0.14316 258236.480000
   1305   1306     1   0.14647 272713.120000
   1305   1309     1   0.14647 272713.120000
   1305   1312     1   0.14647 272713.120000
   1306   1318     1   0.15375 251793.120000
   1309   1321     1   0.15375 251793.120000
   1312   1315     1   0.15375 251793.120000
   1315   1324     1   0.15375 251793.120000
   1318   1330     1   0.15375 251793.120000
   1321   1327     1   0.15375 251793.120000
   1324   1333     1   0.14316 258236.480000
   1327   2790     1   0.14316 258236.480000
   1330   2821     1   0.14316 258236.480000
   1334   1337     1   0.15375 251793.120000
   1334   1364     1   0.14316 258236.480000
   1337   1340     1   0.15375 251793.120000
   1340   1343     1   0.14647 272713.120000
   1343   1344     1   0.14647 272713.120000
   1343   1354     1   0.14647 272713.120000
   1344   1347     1   0.15375 251793.120000
   1347   1350     1   0.15241 261918.400000
   1350   1351     1   0.12183 533627.360000
   1350   1352     1   0.13513 334803.680000
   1354   1357     1   0.15375 251793.120000
   1357   1360     1   0.15241 261918.400000
   1360   1361     1   0.12183 533627.360000
   1360   1362     1   0.13513 334803.680000
   1365   1368     1   0.15375 251793.120000
   1365   1395     1   0.14316 258236.480000
   1368   1371     1   0.15375 251793.120000
   1371   1374     1   0.14647 272713.120000
   1374   1375     1   0.14647 272713.120000
   1374   1385     1   0.14647 272713.120000
   1375   1378     1   0.15375 251793.120000
   1378   1381     1   0.15241 261918.400000
   1381   1382     1   0.12183 533627.360000
   1381   1383     1   0.13513 334803.680000
   1385   1388     1   0.15375 251793.120000
   1388   1391     1   0.15241 261918.400000
   1391   1392     1   0.12183 533627.360000
   1391   1393     1   0.13513 334803.680000
   1396   1399     1   0.15375 251793.120000
   1396   1426     1   0.14316 258236.480000
   1399   1402     1   0.15375 251793.120000
   1402   1405     1   0.14647 272713.120000
   1405   1406     1   0.14647 272713.120000
   1405   1416     1   0.14647 272713.120000
   1406   1409     1   0.15375 251793.120000
   1409   1412     1   0.15241 261918.400000
   1412   1413     1   0.12183 533627.360000
   1412   1414     1   0.13513 334803.680000
   1416   1419     1   0.15375 251793.120000
   1419   1422     1   0.15241 261918.400000
   1422   1423     1   0.12183 533627.360000
   1422   1424     1   0.13513 334803.680000
   1427   1430     1   0.15375 251793.120000
   1427   1457     1   0.14316 258236.480000
   1430   1433     1   0.15375 251793.120000
   1433   1436     1   0.14647 272713.120000
   1436   1437     1   0.14647 272713.120000
   1436   1447     1   0.14647 272713.120000
   1437   1440     1   0.15375 251793.120000
   1440   1443     1   0.15241 261918.400000
   1443   1444     1   0.12183 533627.360000
   1443   1445     1   0.13513 334803.680000
   1447   1450     1   0.15375 251793.120000
   1450   1453     1   0.15241 261918.400000
   1453   1454     1   0.12183 533627.360000
   1453   1455     1   0.13513 334803.680000
   1458   1461     1   0.15375 251793.120000
   1458   1488     1   0.14316 258236.480000
   1461   1464     1   0.15375 251793.120000
   1464   1467     1   0.14647 272713.120000
   1467   1468     1   0.14647 272713.120000
   1467   1478     1   0.14647 272713.120000
   1468   1471     1   0.15375 251793.120000
   1471   1474     1   0.15241 261918.400000
   1474   1475     1   0.12183 533627.360000
   1474   1476     1   0.13513 334803.680000
   1478   1481     1   0.15375 251793.120000
   1481   1484     1   0.15241 261918.400000
   1484   1485     1   0.12183 533627.360000
   1484   1486     1   0.13513 334803.680000
   1489   1492     1   0.15375 251793.120000
   1489   1519     1   0.14316 258236.480000
   1492   1495     1   0.15375 251793.120000
   1495   1498     1   0.14647 272713.120000
   1498   1499     1   0.14647 272713.120000
   1498   1509     1   0.14647 272713.120000
   1499   1502     1   0.15375 251793.120000
   1502   1505     1   0.15241 261918.400000
   1505   1506     1   0.12183 533627.360000
   1505   1507     1   0.13513 334803.680000
   1509   1512     1   0.15375 251793.120000
   1512   1515     1   0.15241 261918.400000
   1515   1516     1   0.12183 533627.360000
   1515   1517     1   0.13513 334803.680000
   1520   1523     1   0.15375 251793.120000
   1520   1550     1   0.14316 258236.480000
   1523   1526     1   0.15375 251793.120000
   1526   1529     1   0.14647 272713.120000
   1529   1530     1   0.14647 272713.120000
   1529   1540     1   0.14647 272713.120000
   1530   1533     1   0.15375 251793.120000
   1533   1536     1   0.15241 261918.400000
   1536   1537     1   0.12183 533627.360000
   1536   1538     1   0.13513 334803.680000
   1540   1543     1   0.15375 251793.120000
   1543   1546     1   0.15241 261918.400000
   1546   1547     1   0.12183 533627.360000
   1546   1548     1   0.13513 334803.680000
   1551   1554     1   0.15375 251793.120000
   1551   1581     1   0.14316 258236.480000
   1554   1557     1   0.15375 251793.120000
   1557   1560     1   0.14647 272713.120000
   1560   1561     1   0.14647 272713.120000
   1560   1571     1   0.14647 272713.120000
   1561   1564     1   0.15375 251793.120000
   1564   1567     1   0.15241 261918.400000
   1567   1568     1   0.12183 533627.360000
   1567   1569     1   0.13513 334803.680000
   1571   1574     1   0.15375 251793.120000
   1574   1577     1   0.15241 261918.400000
   1577   1578     1   0.12183 533627.360000
   1577   1579     1   0.13513 334803.680000
   1582   1585     1   0.15375 251793.120000
   1582   1612     1   0.14316 258236.480000
   1585   1588     1   0.15375 251793.120000
   1588   1591     1   0.14647 272713.120000
   1591   1592     1   0.14647 272713.120000
   1591   1602     1   0.14647 272713.120000
   1592   1595     1   0.15375 251793.120000
   1595   1598     1   0.15241 261918.400000
   1598   1599     1   0.12183 533627.360000
   1598   1600     1   0.13513 334803.680000
   1602   1605     1   0.15375 251793.120000
   1605   1608     1   0.15241 261918.400000
   1608   1609     1   0.12183 533627.360000
   1608   1610     1   0.13513 334803.680000
   1613   1616     1   0.15375 251793.120000
   1613   1643     1   0.14316 258236.480000
   1616   1619     1   0.15375 251793.120000
   1619   1622     1   0.14647 272713.120000
   1622   1623     1   0.14647 272713.120000
   1622   1633     1   0.14647 272713.120000
   1623   1626     1   0.15375 251793.120000
   1626   1629     1   0.15241 261918.400000
   1629   1630     1   0.12183 533627.360000
   1629   1631     1   0.13513 334803.680000
   1633   1636     1   0.15375 251793.120000
   1636   1639     1   0.15241 261918.400000
   1639   1640     1   0.12183 533627.360000
   1639   1641     1   0.13513 334803.680000
   1644   1647     1   0.15375 251793.120000
   1644   1674     1   0.14316 258236.480000
   1647   1650     1   0.15375 251793.120000
   1650   1653     1   0.14647 272713.120000
   1653   1654     1   0.14647 272713.120000
   1653   1664     1   0.14647 272713.120000
   1654   1657     1   0.15375 251793.120000
   1657   1660     1   0.15241 261918.400000
   1660   1661     1   0.12183 533627.360000
   1660   1662     1   0.13513 334803.680000
   1664   1667     1   0.15375 251793.120000
   1667   1670     1   0.15241 261918.400000
   1670   1671     1   0.12183 533627.360000
   1670   1672     1   0.13513 334803.680000
   1675   1678     1   0.15375 251793.120000
   1675   1705     1   0.14316 258236.480000
   1678   1681     1   0.15375 251793.120000
   1681   1684     1   0.14647 272713.120000
   1684   1685     1   0.14647 272713.120000
   1684   1695     1   0.14647 272713.120000
   1685   1688     1   0.15375 251793.120000
   1688   1691     1   0.15241 261918.400000
   1691   1692     1   0.12183 533627.360000
   1691   1693     1   0.13513 334803.680000
   1695   1698     1   0.15375 251793.120000
   1698   1701     1   0.15241 261918.400000
   1701   1702     1   0.12183 533627.360000
   1701   1703     1   0.13513 334803.680000
   1706   1709     1   0.15375 251793.120000
   1706   1736     1   0.14316 258236.480000
   1709   1712     1   0.15375 251793.120000
   1712   1715     1   0.14647 272713.120000
   1715   1716     1   0.14647 272713.120000
   1715   1726     1   0.14647 272713.120000
   1716   1719     1   0.15375 251793.120000
   1719   1722     1   0.15241 261918.400000
   1722   1723     1   0.12183 533627.360000
   1722   1724     1   0.13513 334803.680000
   1726   1729     1   0.15375 251793.120000
   1729   1732     1   0.15241 261918.400000
   1732   1733     1   0.12183 533627.360000
   1732   1734     1   0.13513 334803.680000
   1737   1740     1   0.15375 251793.120000
   1737   1767     1   0.14316 258236.480000
   1740   1743     1   0.15375 251793.120000
   1743   1746     1   0.14647 272713.120000
   1746   1747     1   0.14647 272713.120000
   1746   1757     1   0.14647 272713.120000
   1747   1750     1   0.15375 251793.120000
   1750   1753     1   0.15241 261918.400000
   1753   1754     1   0.12183 533627.360000
   1753   1755     1   0.13513 334803.680000
   1757   1760     1   0.15375 251793.120000
   1760   1763     1   0.15241 261918.400000
   1763   1764     1   0.12183 533627.360000
   1763   1765     1   0.13513 334803.680000
   1768   1771     1   0.15375 251793.120000
   1768   1798     1   0.14316 258236.480000
   1771   1774     1   0.15375 251793.120000
   1774   1777     1   0.14647 272713.120000
   1777   1778     1   0.14647 272713.120000
   1777   1788     1   0.14647 272713.120000
   1778   1781     1   0.15375 251793.120000
   1781   1784     1   0.15241 261918.400000
   1784   1785     1   0.12183 533627.360000
   1784   1786     1   0.13513 334803.680000
   1788   1791     1   0.15375 251793.120000
   1791   1794     1   0.15241 261918.400000
   1794   1795     1   0.12183 533627.360000
   1794   1796     1   0.13513 334803.680000
   1799   1802     1   0.15375 251793.120000
   1799   1829     1   0.14316 258236.480000
   1802   1805     1   0.15375 251793.120000
   1805   1808     1   0.14647 272713.120000
   1808   1809     1   0.14647 272713.120000
   1808   1819     1   0.14647 272713.120000
   1809   1812     1   0.15375 251793.120000
   1812   1815     1   0.15241 261918.400000
   1815   1816     1   0.12183 533627.360000
   1815   1817     1   0.13513 334803.680000
   1819   1822     1   0.15375 251793.120000
   1822   1825     1   0.15241 261918.400000
   1825   1826     1   0.12183 533627.360000
   1825   1827     1   0.13513 334803.680000
   1830   1833     1   0.15375 251793.120000
   1830   1860     1   0.14316 258236.480000
   1833   1836     1   0.15375 251793.120000
   1836   1839     1   0.14647 272713.120000
   1839   1840     1   0.14647 272713.120000
   1839   1850     1   0.14647 272713.120000
   1840   1843     1   0.15375 251793.120000
   1843   1846     1   0.15241 261918.400000
   1846   1847     1   0.12183 533627.360000
   1846   1848     1   0.13513 334803.680000
   1850   1853     1   0.15375 251793.120000
   1853   1856     1   0.15241 261918.400000
   1856   1857     1   0.12183 533627.360000
   1856   1858     1   0.13513 334803.680000
   1861   1864     1   0.15375 251793.120000
   1861   1891     1   0.14316 258236.480000
   1864   1867     1   0.15375 251793.120000
   1867   1870     1   0.14647 272713.120000
   1870   1871     1   0.14647 272713.120000
   1870   1881     1   0.14647 272713.120000
   1871   1874     1   0.15375 251793.120000
   1874   1877     1   0.15241 261918.400000
   1877   1878     1   0.12183 533627.360000
   1877   1879     1   0.13513 334803.680000
   1881   1884     1   0.15375 251793.120000
   1884   1887     1   0.15241 261918.400000
   1887   1888     1   0.12183 533627.360000
   1887   1889     1   0.13513 334803.680000
   1892   1895     1   0.15375 251793.120000
   1892   1922     1   0.14316 258236.480000
   1895   1898     1   0.15375 251793.120000
   1898   1901     1   0.14647 272713.120000
   1901   1902     1   0.14647 272713.120000
   1901   1912     1   0.14647 272713.120000
   1902   1905     1   0.15375 251793.120000
   1905   1908     1   0.15241 261918.400000
   1908   1909     1   0.12183 533627.360000
   1908   1910     1   0.13513 334803.680000
   1912   1915     1   0.15375 251793.120000
   1915   1918     1   0.15241 261918.400000
   1918   1919     1   0.12183 533627.360000
   1918   1920     1   0.13513 334803.680000
   1923   1926     1   0.15375 251793.120000
   1923   1953     1   0.14316 258236.480000
   1926   1929     1   0.15375 251793.120000
   1929   1932     1   0.14647 272713.120000
   1932   1933     1   0.14647 272713.120000
   1932   1943     1   0.14647 272713.120000
   1933   1936     1   0.15375 251793.120000
   1936   1939     1   0.15241 261918.400000
   1939   1940     1   0.12183 533627.360000
   1939   1941     1   0.13513 334803.680000
   1943   1946     1   0.15375 251793.120000
   1946   1949     1   0.15241 261918.400000
   1949   1950     1   0.12183 533627.360000
   1949   1951     1   0.13513 334803.680000
   1954   1957     1   0.15375 251793.120000
   1954   1984     1   0.14316 258236.480000
   1957   1960     1   0.15375 251793.120000
   1960   1963     1   0.14647 272713.120000
   1963   1964     1   0.14647 272713.120000
   1963   1974     1   0.14647 272713.120000
   1964   1967     1   0.15375 251793.120000
   1967   1970     1   0.15241 261918.400000
   1970   1971     1   0.12183 533627.360000
   1970   1972     1   0.13513 334803.680000
   1974   1977     1   0.15375 251793.120000
   1977   1980     1   0.15241 261918.400000
   1980   1981     1   0.12183 533627.360000
   1980   1982     1   0.13513 334803.680000
   1985   1988     1   0.15375 251793.120000
   1985   2015     1   0.14316 258236.480000
   1988   1991     1   0.15375 251793.120000
   1991   1994     1   0.14647 272713.120000
   1994   1995     1   0.14647 272713.120000
   1994   2005     1   0.14647 272713.120000
   1995   1998     1   0.15375 251793.120000
   1998   2001     1   0.15241 261918.400000
   2001   2002     1   0.12183 533627.360000
   2001   2003     1   0.13513 334803.680000
   2005   2008     1   0.15375 251793.120000
   2008   2011     1   0.15241 261918.400000
   2011   2012     1   0.12183 533627.360000
   2011   2013     1   0.13513 334803.680000
   2016   2019     1   0.15375 251793.120000
   2016   2046     1   0.14316 258236.480000
   2019   2022     1   0.15375 251793.120000
   2022   2025     1   0.14647 272713.120000
   2025   2026     1   0.14647 272713.120000
   2025   2036     1   0.14647 272713.120000
   2026   2029     1   0.15375 251793.120000
   2029   2032     1   0.15241 261918.400000
   2032   2033     1   0.12183 533627.360000
   2032   2034     1   0.13513 334803.680000
   2036   2039     1   0.15375 251793.120000
   2039   2042     1   0.15241 261918.400000
   2042   2043     1   0.12183 533627.360000
   2042   2044     1   0.13513 334803.680000
   2047   2050     1   0.15375 251793.120000
   2047   2077     1   0.14316 258236.480000
   2050   2053     1   0.15375 251793.120000
   2053   2056     1   0.14647 272713.120000
   2056   2057     1   0.14647 272713.120000
   2056   2067     1   0.14647 272713.120000
   2057   2060     1   0.15375 251793.120000
   2060   2063     1   0.15241 261918.400000
   2063   2064     1   0.12183 533627.360000
   2063   2065     1   0.13513 334803.680000
   2067   2070     1   0.15375 251793.120000
   2070   2073     1   0.15241 261918.400000
   2073   2074     1   0.12183 533627.360000
   2073   2075     1   0.13513 334803.680000
   2078   2081     1   0.15375 251793.120000
   2078   2108     1   0.14316 258236.480000
   2081   2084     1   0.15375 251793.120000
   2084   2087     1   0.14647 272713.120000
   2087   2088     1   0.14647 272713.120000
   2087   2098     1   0.14647 272713.120000
   2088   2091     1   0.15375 251793.120000
   2091   2094     1   0.15241 261918.400000
   2094   2095     1   0.12183 533627.360000
   2094   2096     1   0.13513 334803.680000
   2098   2101     1   0.15375 251793.120000
   2101   2104     1   0.15241 261918.400000
   2104   2105     1   0.12183 533627.360000
   2104   2106     1   0.13513 334803.680000
   2109   2112     1   0.15375 251793.120000
   2109   2139     1   0.14316 258236.480000
   2112   2115     1   0.15375 251793.120000
   2115   2118     1   0.14647 272713.120000
   2118   2119     1   0.14647 272713.120000
   2118   2129     1   0.14647 272713.120000
   2119   2122     1   0.15375 251793.120000
   2122   2125     1   0.15241 261918.400000
   2125   2126     1   0.12183 533627.360000
   2125   2127     1   0.13513 334803.680000
   2129   2132     1   0.15375 251793.120000
   2132   2135     1   0.15241 261918.400000
   2135   2136     1   0.12183 533627.360000
   2135   2137     1   0.13513 334803.680000
   2140   2143     1   0.15375 251793.120000
   2140   2170     1   0.14316 258236.480000
   2143   2146     1   0.15375 251793.120000
   2146   2149     1   0.14647 272713.120000
   2149   2150     1   0.14647 272713.120000
   2149   2160     1   0.14647 272713.120000
   2150   2153     1   0.15375 251793.120000
   2153   2156     1   0.15241 261918.400000
   2156   2157     1   0.12183 533627.360000
   2156   2158     1   0.13513 334803.680000
   2160   2163     1   0.15375 251793.120000
   2163   2166     1   0.15241 261918.400000
   2166   2167     1   0.12183 533627.360000
   2166   2168     1   0.13513 334803.680000
   2171   2174     1   0.15375 251793.120000
   2171   2201     1   0.14316 258236.480000
   2174   2177     1   0.15375 251793.120000
   2177   2180     1   0.14647 272713.120000
   2180   2181     1   0.14647 272713.120000
   2180   2191     1   0.14647 272713.120000
   2181   2184     1   0.15375 251793.120000
   2184   2187     1   0.15241 261918.400000
   2187   2188     1   0.12183 533627.360000
   2187   2189     1   0.13513 334803.680000
   2191   2194     1   0.15375 251793.120000
   2194   2197     1   0.15241 261918.400000
   2197   2198     1   0.12183 533627.360000
   2197   2199     1   0.13513 334803.680000
   2202   2205     1   0.15375 251793.120000
   2202   2232     1   0.14316 258236.480000
   2205   2208     1   0.15375 251793.120000
   2208   2211     1   0.14647 272713.120000
   2211   2212     1   0.14647 272713.120000
   2211   2222     1   0.14647 272713.120000
   2212   2215     1   0.15375 251793.120000
   2215   2218     1   0.15241 261918.400000
   2218   2219     1   0.12183 533627.360000
   2218   2220     1   0.13513 334803.680000
   2222   2225     1   0.15375 251793.120000
   2225   2228     1   0.15241 261918.400000
   2228   2229     1   0.12183 533627.360000
   2228   2230     1   0.13513 334803.680000
   2233   2236     1   0.15375 251793.120000
   2233   2263     1   0.14316 258236.480000
   2236   2239     1   0.15375 251793.120000
   2239   2242     1   0.14647 272713.120000
   2242   2243     1   0.14647 272713.120000
   2242   2253     1   0.14647 272713.120000
   2243   2246     1   0.15375 251793.120000
   2246   2249     1   0.15241 261918.400000
   2249   2250     1   0.12183 533627.360000
   2249   2251     1   0.13513 334803.680000
   2253   2256     1   0.15375 251793.120000
   2256   2259     1   0.15241 261918.400000
   2259   2260     1   0.12183 533627.360000
   2259   2261     1   0.13513 334803.680000
   2264   2267     1   0.15375 251793.120000
   2264   2294     1   0.14316 258236.480000
   2267   2270     1   0.15375 251793.120000
   2270   2273     1   0.14647 272713.120000
   2273   2274     1   0.14647 272713.120000
   2273   2284     1   0.14647 272713.120000
   2274   2277     1   0.15375 251793.120000
   2277   2280     1   0.15241 261918.400000
   2280   2281     1   0.12183 533627.360000
   2280   2282     1   0.13513 334803.680000
   2284   2287     1   0.15375 251793.120000
   2287   2290     1   0.15241 261918.400000
   2290   2291     1   0.12183 533627.360000
   2290   2292     1   0.13513 334803.680000
   2295   2298     1   0.15375 251793.120000
   2295   2325     1   0.14316 258236.480000
   2298   2301     1   0.15375 251793.120000
   2301   2304     1   0.14647 272713.120000
   2304   2305     1   0.14647 272713.120000
   2304   2315     1   0.14647 272713.120000
   2305   2308     1   0.15375 251793.120000
   2308   2311     1   0.15241 261918.400000
   2311   2312     1   0.12183 533627.360000
   2311   2313     1   0.13513 334803.680000
   2315   2318     1   0.15375 251793.120000
   2318   2321     1   0.15241 261918.400000
   2321   2322     1   0.12183 533627.360000
   2321   2323     1   0.13513 334803.680000
   2326   2329     1   0.15375 251793.120000
   2326   2356     1   0.14316 258236.480000
   2329   2332     1   0.15375 251793.120000
   2332   2335     1   0.14647 272713.120000
   2335   2336     1   0.14647 272713.120000
   2335   2346     1   0.14647 272713.120000
   2336   2339     1   0.15375 251793.120000
   2339   2342     1   0.15241 261918.400000
   2342   2343     1   0.12183 533627.360000
   2342   2344     1   0.13513 334803.680000
   2346   2349     1   0.15375 251793.120000
   2349   2352     1   0.15241 261918.400000
   2352   2353     1   0.12183 533627.360000
   2352   2354     1   0.13513 334803.680000
   2357   2360     1   0.15375 251793.120000
   2357   2387     1   0.14316 258236.480000
   2360   2363     1   0.15375 251793.120000
   2363   2366     1   0.14647 272713.120000
   2366   2367     1   0.14647 272713.120000
   2366   2377     1   0.14647 272713.120000
   2367   2370     1   0.15375 251793.120000
   2370   2373     1   0.15241 261918.400000
   2373   2374     1   0.12183 533627.360000
   2373   2375     1   0.13513 334803.680000
   2377   2380     1   0.15375 251793.120000
   2380   2383     1   0.15241 261918.400000
   2383   2384     1   0.12183 533627.360000
   2383   2385     1   0.13513 334803.680000
   2388   2391     1   0.15375 251793.120000
   2388   2418     1   0.14316 258236.480000
   2391   2394     1   0.15375 251793.120000
   2394   2397     1   0.14647 272713.120000
   2397   2398     1   0.14647 272713.120000
   2397   2408     1   0.14647 272713.120000
   2398   2401     1   0.15375 251793.120000
   2401   2404     1   0.15241 261918.400000
   2404   2405     1   0.12183 533627.360000
   2404   2406     1   0.13513 334803.680000
   2408   2411     1   0.15375 251793.120000
   2411   2414     1   0.15241 261918.400000
   2414   2415     1   0.12183 533627.360000
   2414   2416     1   0.13513 334803.680000
   2419   2422     1   0.15375 251793.120000
   2419   2449     1   0.14316 258236.480000
   2422   2425     1   0.15375 251793.120000
   2425   2428     1   0.14647 272713.120000
   2428   2429     1   0.14647 272713.120000
   2428   2439     1   0.14647 272713.120000
   2429   2432     1   0.15375 251793.120000
   2432   2435     1   0.15241 261918.400000
   2435   2436     1   0.12183 533627.360000
   2435   2437     1   0.13513 334803.680000
   2439   2442     1   0.15375 251793.120000
   2442   2445     1   0.15241 261918.400000
   2445   2446     1   0.12183 533627.360000
   2445   2447     1   0.13513 334803.680000
   2450   2453     1   0.15375 251793.120000
   2450   2480     1   0.14316 258236.480000
   2453   2456     1   0.15375 251793.120000
   2456   2459     1   0.14647 272713.120000
   2459   2460     1   0.14647 272713.120000
   2459   2470     1   0.14647 272713.120000
   2460   2463     1   0.15375 251793.120000
   2463   2466     1   0.15241 261918.400000
   2466   2467     1   0.12183 533627.360000
   2466   2468     1   0.13513 334803.680000
   2470   2473     1   0.15375 251793.120000
   2473   2476     1   0.15241 261918.400000
   2476   2477     1   0.12183 533627.360000
   2476   2478     1   0.13513 334803.680000
   2481   2484     1   0.15375 251793.120000
   2481   2511     1   0.14316 258236.480000
   2484   2487     1   0.15375 251793.120000
   2487   2490     1   0.14647 272713.120000
   2490   2491     1   0.14647 272713.120000
   2490   2501     1   0.14647 272713.120000
   2491   2494     1   0.15375 251793.120000
   2494   2497     1   0.15241 261918.400000
   2497   2498     1   0.12183 533627.360000
   2497   2499     1   0.13513 334803.680000
   2501   2504     1   0.15375 251793.120000
   2504   2507     1   0.15241 261918.400000
   2507   2508     1   0.12183 533627.360000
   2507   2509     1   0.13513 334803.680000
   2512   2515     1   0.15375 251793.120000
   2512   2542     1   0.14316 258236.480000
   2515   2518     1   0.15375 251793.120000
   2518   2521     1   0.14647 272713.120000
   2521   2522     1   0.14647 272713.120000
   2521   2532     1   0.14647 272713.120000
   2522   2525     1   0.15375 251793.120000
   2525   2528     1   0.15241 261918.400000
   2528   2529     1   0.12183 533627.360000
   2528   2530     1   0.13513 334803.680000
   2532   2535     1   0.15375 251793.120000
   2535   2538     1   0.15241 261918.400000
   2538   2539     1   0.12183 533627.360000
   2538   2540     1   0.13513 334803.680000
   2543   2546     1   0.15375 251793.120000
   2543   2573     1   0.14316 258236.480000
   2546   2549     1   0.15375 251793.120000
   2549   2552     1   0.14647 272713.120000
   2552   2553     1   0.14647 272713.120000
   2552   2563     1   0.14647 272713.120000
   2553   2556     1   0.15375 251793.120000
   2556   2559     1   0.15241 261918.400000
   2559   2560     1   0.12183 533627.360000
   2559   2561     1   0.13513 334803.680000
   2563   2566     1   0.15375 251793.120000
   2566   2569     1   0.15241 261918.400000
   2569   2570     1   0.12183 533627.360000
   2569   2571     1   0.13513 334803.680000
   2574   2577     1   0.15375 251793.120000
   2574   2604     1   0.14316 258236.480000
   2577   2580     1   0.15375 251793.120000
   2580   2583     1   0.14647 272713.120000
   2583   2584     1   0.14647 272713.120000
   2583   2594     1   0.14647 272713.120000
   2584   2587     1   0.15375 251793.120000
   2587   2590     1   0.15241 261918.400000
   2590   2591     1   0.12183 533627.360000
   2590   2592     1   0.13513 334803.680000
   2594   2597     1   0.15375 251793.120000
   2597   2600     1   0.15241 261918.400000
   2600   2601     1   0.12183 533627.360000
   2600   2602     1   0.13513 334803.680000
   2605   2608     1   0.15375 251793.120000
   2605   2635     1   0.14316 258236.480000
   2608   2611     1   0.15375 251793.120000
   2611   2614     1   0.14647 272713.120000
   2614   2615     1   0.14647 272713.120000
   2614   2625     1   0.14647 272713.120000
   2615   2618     1   0.15375 251793.120000
   2618   2621     1   0.15241 261918.400000
   2621   2622     1   0.12183 533627.360000
   2621   2623     1   0.13513 334803.680000
   2625   2628     1   0.15375 251793.120000
   2628   2631     1   0.15241 261918.400000
   2631   2632     1   0.12183 533627.360000
   2631   2633     1   0.13513 334803.680000
   2636   2639     1   0.15375 251793.120000
   2636   2666     1   0.14316 258236.480000
   2639   2642     1   0.15375 251793.120000
   2642   2645     1   0.14647 272713.120000
   2645   2646     1   0.14647 272713.120000
   2645   2656     1   0.14647 272713.120000
   2646   2649     1   0.15375 251793.120000
   2649   2652     1   0.15241 261918.400000
   2652   2653     1   0.12183 533627.360000
   2652   2654     1   0.13513 334803.680000
   2656   2659     1   0.15375 251793.120000
   2659   2662     1   0.15241 261918.400000
   2662   2663     1   0.12183 533627.360000
   2662   2664     1   0.13513 334803.680000
   2667   2670     1   0.15375 251793.120000
   2667   2697     1   0.14316 258236.480000
   2670   2673     1   0.15375 251793.120000
   2673   2676     1   0.14647 272713.120000
   2676   2677     1   0.14647 272713.120000
   2676   2687     1   0.14647 272713.120000
   2677   2680     1   0.15375 251793.120000
   2680   2683     1   0.15241 261918.400000
   2683   2684     1   0.12183 533627.360000
   2683   2685     1   0.13513 334803.680000
   2687   2690     1   0.15375 251793.120000
   2690   2693     1   0.15241 261918.400000
   2693   2694     1   0.12183 533627.360000
   2693   2695     1   0.13513 334803.680000
   2698   2701     1   0.15375 251793.120000
   2698   2728     1   0.14316 258236.480000
   2701   2704     1   0.15375 251793.120000
   2704   2707     1   0.14647 272713.120000
   2707   2708     1   0.14647 272713.120000
   2707   2718     1   0.14647 272713.120000
   2708   2711     1   0.15375 251793.120000
   2711   2714     1   0.15241 261918.400000
   2714   2715     1   0.12183 533627.360000
   2714   2716     1   0.13513 334803.680000
   2718   2721     1   0.15375 251793.120000
   2721   2724     1   0.15241 261918.400000
   2724   2725     1   0.12183 533627.360000
   2724   2726     1   0.13513 334803.680000
   2729   2732     1   0.15375 251793.120000
   2729   2759     1   0.14316 258236.480000
   2732   2735     1   0.15375 251793.120000
   2735   2738     1   0.14647 272713.120000
   2738   2739     1   0.14647 272713.120000
   2738   2749     1   0.14647 272713.120000
   2739   2742     1   0.15375 251793.120000
   2742   2745     1   0.15241 261918.400000
   2745   2746     1   0.12183 533627.360000
   2745   2747     1   0.13513 334803.680000
   2749   2752     1   0.15375 251793.120000
   2752   2755     1   0.15241 261918.400000
   2755   2756     1   0.12183 533627.360000
   2755   2757     1   0.13513 334803.680000
   2760   2763     1   0.15375 251793.120000
   2760   2790     1   0.14316 258236.480000
   2763   2766     1   0.15375 251793.120000
   2766   2769     1   0.14647 272713.120000
   2769   2770     1   0.14647 272713.120000
   2769   2780     1   0.14647 272713.120000
   2770   2773     1   0.15375 251793.120000
   2773   2776     1   0.15241 261918.400000
   2776   2777     1   0.12183 533627.360000
   2776   2778     1   0.13513 334803.680000
   2780   2783     1   0.15375 251793.120000
   2783   2786     1   0.15241 261918.400000
   2786   2787     1   0.12183 533627.360000
   2786   2788     1   0.13513 334803.680000
   2791   2794     1   0.15375 251793.120000
   2791   2821     1   0.14316 258236.480000
   2794   2797     1   0.15375 251793.120000
   2797   2800     1   0.14647 272713.120000
   2800   2801     1   0.14647 272713.120000
   2800   2811     1   0.14647 272713.120000
   2801   2804     1   0.15375 251793.120000
   2804   2807     1   0.15241 261918.400000
   2807   2808     1   0.12183 533627.360000
   2807   2809     1   0.13513 334803.680000
   2811   2814     1   0.15375 251793.120000
   2814   2817     1   0.15241 261918.400000
   2817   2818     1   0.12183 533627.360000
   2817   2819     1   0.13513 334803.680000
      2      3     1   0.10969 276646.080000
      2      4     1   0.10969 276646.080000
      5      6     1   0.10969 276646.080000
      5      7     1   0.10969 276646.080000
      8      9     1   0.10969 276646.080000
      8     10     1   0.10969 276646.080000
     11     12     1   0.10969 276646.080000
     11     13     1   0.10969 276646.080000
     14     15     1   0.10969 276646.080000
     14     16     1   0.10969 276646.080000
     17     18     1   0.10969 276646.080000
     17     19     1   0.10969 276646.080000
     20     21     1   0.10969 276646.080000
     20     22     1   0.10969 276646.080000
     23     24     1   0.10969 276646.080000
     23     25     1   0.10969 276646.080000
     26     27     1   0.10969 276646.080000
     26     28     1   0.10969 276646.080000
     30     31     1   0.10969 276646.080000
     30     32     1   0.10969 276646.080000
     33     34     1   0.10969 276646.080000
     33     35     1   0.10969 276646.080000
     36     37     1   0.10969 276646.080000
     36     38     1   0.10969 276646.080000
     39     40     1   0.10969 276646.080000
     39     41     1   0.10969 276646.080000
     42     43     1   0.10969 276646.080000
     42     44     1   0.10969 276646.080000
     45     46     1   0.10969 276646.080000
     45     47     1   0.10969 276646.080000
     48     49     1   0.10969 276646.080000
     48     50     1   0.10969 276646.080000
     51     52     1   0.10969 276646.080000
     51     53     1   0.10969 276646.080000
     54     55     1   0.10969 276646.080000
     54     56     1   0.10969 276646.080000
     59     60     1   0.10969 276646.080000
     59     61     1   0.10969 276646.080000
     62     63     1   0.10969 276646.080000
     62     64     1   0.10969 276646.080000
     65     66     1   0.10969 276646.080000
     65     67     1   0.10969 276646.080000
     68     69     1   0.10969 276646.080000
     68     70     1   0.10969 276646.080000
     71     72     1   0.10969 276646.080000
     71     73     1   0.10969 276646.080000
     74     75     1   0.10969 276646.080000
     74     76     1   0.10969 276646.080000
     77     78     1   0.10969 276646.080000
     77     79     1   0.10969 276646.080000
     80     81     1   0.10969 276646.080000
     80     82     1   0.10969 276646.080000
     83     84     1   0.10969 276646.080000
     83     85     1   0.10969 276646.080000
     88     89     1   0.10969 276646.080000
     88     90     1   0.10969 276646.080000
     91     92     1   0.10969 276646.080000
     91     93     1   0.10969 276646.080000
     94     95     1   0.10969 276646.080000
     94     96     1   0.10969 276646.080000
     97     98     1   0.10969 276646.080000
     97     99     1   0.10969 276646.080000
    100    101     1   0.10969 276646.080000
    100    102     1   0.10969 276646.080000
    103    104     1   0.10969 276646.080000
    103    105     1   0.10969 276646.080000
    106    107     1   0.10969 276646.080000
    106    108     1   0.10969 276646.080000
    109    110     1   0.10969 276646.080000
    109    111     1   0.10969 276646.080000
    112    113     1   0.10969 276646.080000
    112    114     1   0.10969 276646.080000
    117    118     1   0.10969 276646.080000
    117    119     1   0.10969 276646.080000
    120    121     1   0.10969 276646.080000
    120    122     1   0.10969 276646.080000
    123    124     1   0.10969 276646.080000
    123    125     1   0.10969 276646.080000
    126    127     1   0.10969 276646.080000
    126    128     1   0.10969 276646.080000
    129    130     1   0.10969 276646.080000
    129    131     1   0.10969 276646.080000
    132    133     1   0.10969 276646.080000
    132    134     1   0.10969 276646.080000
    135    136     1   0.10969 276646.080000
    135    137     1   0.10969 276646.080000
    138    139     1   0.10969 276646.080000
    138    140     1   0.10969 276646.080000
    141    142     1   0.10969 276646.080000
    141    143     1   0.10969 276646.080000
    146    147     1   0.10969 276646.080000
    146    148     1   0.10969 276646.080000
    149    150     1   0.10969 276646.080000
    149    151     1   0.10969 276646.080000
    152    153     1   0.10969 276646.080000
    152    154     1   0.10969 276646.080000
    155    156     1   0.10969 276646.080000
    155    157     1   0.10969 276646.080000
    158    159     1   0.10969 276646.080000
    158    160     1   0.10969 276646.080000
    161    162     1   0.10969 276646.080000
    161    163     1   0.10969 276646.080000
    164    165     1   0.10969 276646.080000
    164    166     1   0.10969 276646.080000
    167    168     1   0.10969 276646.080000
    167    169     1   0.10969 276646.080000
    170    171     1   0.10969 276646.080000
    170    172     1   0.10969 276646.080000
    175    176     1   0.10969 276646.080000
    175    177     1   0.10969 276646.080000
    178    179     1   0.10969 276646.080000
    178    180     1   0.10969 276646.080000
    181    182     1   0.10969 276646.080000
    181    183     1   0.10969 276646.080000
    184    185     1   0.10969 276646.080000
    184    186     1   0.10969 276646.080000
    187    188     1   0.10969 276646.080000
    187    189     1   0.10969 276646.080000
    190    191     1   0.10969 276646.080000
    190    192     1   0.10969 276646.080000
    193    194     1   0.10969 276646.080000
    193    195     1   0.10969 276646.080000
    196    197     1   0.10969 276646.080000
    196    198     1   0.10969 276646.080000
    199    200     1   0.10969 276646.080000
    199    201     1   0.10969 276646.080000
    204    205     1   0.10969 276646.080000
    204    206     1   0.10969 276646.080000
    207    208     1   0.10969 276646.080000
    207    209     1   0.10969 276646.080000
    210    211     1   0.10969 276646.080000
    210    212     1   0.10969 276646.080000
    213    214     1   0.10969 276646.080000
    213    215     1   0.10969 276646.080000
    216    217     1   0.10969 276646.080000
    216    218     1   0.10969 276646.080000
    219    220     1   0.10969 276646.080000
    219    221     1   0.10969 276646.080000
    222    223     1   0.10969 276646.080000
    222    224     1   0.10969 276646.080000
    225    226     1   0.10969 276646.080000
    225    227     1   0.10969 276646.080000
    228    229     1   0.10969 276646.080000
    228    230     1   0.10969 276646.080000
    233    234     1   0.10969 276646.080000
    233    235     1   0.10969 276646.080000
    236    237     1   0.10969 276646.080000
    236    238     1   0.10969 276646.080000
    239    240     1   0.10969 276646.080000
    239    241     1   0.10969 276646.080000
    242    243     1   0.10969 276646.080000
    242    244     1   0.10969 276646.080000
    245    246     1   0.10969 276646.080000
    245    247     1   0.10969 276646.080000
    248    249     1   0.10969 276646.080000
    248    250     1   0.10969 276646.080000
    251    252     1   0.10969 276646.080000
    251    253     1   0.10969 276646.080000
    254    255     1   0.10969 276646.080000
    254    256     1   0.10969 276646.080000
    257    258     1   0.10969 276646.080000
    257    259     1   0.10969 276646.080000
    262    263     1   0.10969 276646.080000
    262    264     1   0.10969 276646.080000
    265    266     1   0.10969 276646.080000
    265    267     1   0.10969 276646.080000
    268    269     1   0.10969 276646.080000
    268    270     1   0.10969 276646.080000
    271    272     1   0.10969 276646.080000
    271    273     1   0.10969 276646.080000
    274    275     1   0.10969 276646.080000
    274    276     1   0.10969 276646.080000
    277    278     1   0.10969 276646.080000
    277    279     1   0.10969 276646.080000
    280    281     1   0.10969 276646.080000
    280    282     1   0.10969 276646.080000
    283    284     1   0.10969 276646.080000
    283    285     1   0.10969 276646.080000
    286    287     1   0.10969 276646.080000
    286    288     1   0.10969 276646.080000
    291    292     1   0.10969 276646.080000
    291    293     1   0.10969 276646.080000
    294    295     1   0.10969 276646.080000
    294    296     1   0.10969 276646.080000
    297    298     1   0.10969 276646.080000
    297    299     1   0.10969 276646.080000
    300    301     1   0.10969 276646.080000
    300    302     1   0.10969 276646.080000
    303    304     1   0.10969 276646.080000
    303    305     1   0.10969 276646.080000
    306    307     1   0.10969 276646.080000
    306    308     1   0.10969 276646.080000
    309    310     1   0.10969 276646.080000
    309    311     1   0.10969 276646.080000
    312    313     1   0.10969 276646.080000
    312    314     1   0.10969 276646.080000
    315    316     1   0.10969 276646.080000
    315    317     1   0.10969 276646.080000
    320    321     1   0.10969 276646.080000
    320    322     1   0.10969 276646.080000
    323    324     1   0.10969 276646.080000
    323    325     1   0.10969 276646.080000
    326    327     1   0.10969 276646.080000
    326    328     1   0.10969 276646.080000
    329    330     1   0.10969 276646.080000
    329    331     1   0.10969 276646.080000
    332    333     1   0.10969 276646.080000
    332    334     1   0.10969 276646.080000
    335    336     1   0.10969 276646.080000
    335    337     1   0.10969 276646.080000
    338    339     1   0.10969 276646.080000
    338    340     1   0.10969 276646.080000
    341    342     1   0.10969 276646.080000
    341    343     1   0.10969 276646.080000
    344    345     1   0.10969 276646.080000
    344    346     1   0.10969 276646.080000
    349    350     1   0.10969 276646.080000
    349    351     1   0.10969 276646.080000
    352    353     1   0.10969 276646.080000
    352    354     1   0.10969 276646.080000
    355    356     1   0.10969 276646.080000
    355    357     1   0.10969 276646.080000
    358    359     1   0.10969 276646.080000
    358    360     1   0.10969 276646.080000
    361    362     1   0.10969 276646.080000
    361    363     1   0.10969 276646.080000
    364    365     1   0.10969 276646.080000
    364    366     1   0.10969 276646.080000
    367    368     1   0.10969 276646.080000
    367    369     1   0.10969 276646.080000
    370    371     1   0.10969 276646.080000
    370    372     1   0.10969 276646.080000
    373    374     1   0.10969 276646.080000
    373    375     1   0.10969 276646.080000
    378    379     1   0.10969 276646.080000
    378    380     1   0.10969 276646.080000
    381    382     1   0.10969 276646.080000
    381    383     1   0.10969 276646.080000
    384    385     1   0.10969 276646.080000
    384    386     1   0.10969 276646.080000
    387    388     1   0.10969 276646.080000
    387    389     1   0.10969 276646.080000
    390    391     1   0.10969 276646.080000
    390    392     1   0.10969 276646.080000
    393    394     1   0.10969 276646.080000
    393    395     1   0.10969 276646.080000
    396    397     1   0.10969 276646.080000
    396    398     1   0.10969 276646.080000
    399    400     1   0.10969 276646.080000
    399    401     1   0.10969 276646.080000
    402    403     1   0.10969 276646.080000
    402    404     1   0.10969 276646.080000
    407    408     1   0.10969 276646.080000
    407    409     1   0.10969 276646.080000
    410    411     1   0.10969 276646.080000
    410    412     1   0.10969 276646.080000
    413    414     1   0.10969 276646.080000
    413    415     1   0.10969 276646.080000
    416    417     1   0.10969 276646.080000
    416    418     1   0.10969 276646.080000
    419    420     1   0.10969 276646.080000
    419    421     1   0.10969 276646.080000
    422    423     1   0.10969 276646.080000
    422    424     1   0.10969 276646.080000
    425    426     1   0.10969 276646.080000
    425    427     1   0.10969 276646.080000
    428    429     1   0.10969 276646.080000
    428    430     1   0.10969 276646.080000
    431    432     1   0.10969 276646.080000
    431    433     1   0.10969 276646.080000
    436    437     1   0.10969 276646.080000
    436    438     1   0.10969 276646.080000
    439    440     1   0.10969 276646.080000
    439    441     1   0.10969 276646.080000
    442    443     1   0.10969 276646.080000
    442    444     1   0.10969 276646.080000
    445    446     1   0.10969 276646.080000
    445    447     1   0.10969 276646.080000
    448    449     1   0.10969 276646.080000
    448    450     1   0.10969 276646.080000
    451    452     1   0.10969 276646.080000
    451    453     1   0.10969 276646.080000
    454    455     1   0.10969 276646.080000
    454    456     1   0.10969 276646.080000
    457    458     1   0.10969 276646.080000
    457    459     1   0.10969 276646.080000
    460    461     1   0.10969 276646.080000
    460    462     1   0.10969 276646.080000
    465    466     1   0.10969 276646.080000
    465    467     1   0.10969 276646.080000
    468    469     1   0.10969 276646.080000
    468    470     1   0.10969 276646.080000
    471    472     1   0.10969 276646.080000
    471    473     1   0.10969 276646.080000
    474    475     1   0.10969 276646.080000
    474    476     1   0.10969 276646.080000
    477    478     1   0.10969 276646.080000
    477    479     1   0.10969 276646.080000
    480    481     1   0.10969 276646.080000
    480    482     1   0.10969 276646.080000
    483    484     1   0.10969 276646.080000
    483    485     1   0.10969 276646.080000
    486    487     1   0.10969 276646.080000
    486    488     1   0.10969 276646.080000
    489    490     1   0.10969 276646.080000
    489    491     1   0.10969 276646.080000
    494    495     1   0.10969 276646.080000
    494    496     1   0.10969 276646.080000
    497    498     1   0.10969 276646.080000
    497    499     1   0.10969 276646.080000
    500    501     1   0.10969 276646.080000
    500    502     1   0.10969 276646.080000
    503    504     1   0.10969 276646.080000
    503    505     1   0.10969 276646.080000
    506    507     1   0.10969 276646.080000
    506    508     1   0.10969 276646.080000
    509    510     1   0.10969 276646.080000
    509    511     1   0.10969 276646.080000
    512    513     1   0.10969 276646.080000
    512    514     1   0.10969 276646.080000
    515    516     1   0.10969 276646.080000
    515    517     1   0.10969 276646.080000
    518    519     1   0.10969 276646.080000
    518    520     1   0.10969 276646.080000
    523    524     1   0.10969 276646.080000
    523    525     1   0.10969 276646.080000
    526    527     1   0.10969 276646.080000
    526    528     1   0.10969 276646.080000
    529    530     1   0.10969 276646.080000
    529    531     1   0.10969 276646.080000
    532    533     1   0.10969 276646.080000
    532    534     1   0.10969 276646.080000
    535    536     1   0.10969 276646.080000
    535    537     1   0.10969 276646.080000
    538    539     1   0.10969 276646.080000
    538    540     1   0.10969 276646.080000
    541    542     1   0.10969 276646.080000
    541    543     1   0.10969 276646.080000
    544    545     1   0.10969 276646.080000
    544    546     1   0.10969 276646.080000
    547    548     1   0.10969 276646.080000
    547    549     1   0.10969 276646.080000
    552    553     1   0.10969 276646.080000
    552    554     1   0.10969 276646.080000
    555    556     1   0.10969 276646.080000
    555    557     1   0.10969 276646.080000
    558    559     1   0.10969 276646.080000
    558    560     1   0.10969 276646.080000
    561    562     1   0.10969 276646.080000
    561    563     1   0.10969 276646.080000
    564    565     1   0.10969 276646.080000
    564    566     1   0.10969 276646.080000
    567    568     1   0.10969 276646.080000
    567    569     1   0.10969 276646.080000
    570    571     1   0.10969 276646.080000
    570    572     1   0.10969 276646.080000
    573    574     1   0.10969 276646.080000
    573    575     1   0.10969 276646.080000
    576    577     1   0.10969 276646.080000
    576    578     1   0.10969 276646.080000
    581    582     1   0.10969 276646.080000
    581    583     1   0.10969 276646.080000
    584    585     1   0.10969 276646.080000
    584    586     1   0.10969 276646.080000
    587    588     1   0.10969 276646.080000
    587    589     1   0.10969 276646.080000
    590    591     1   0.10969 276646.080000
    590    592     1   0.10969 276646.080000
    593    594     1   0.10969 276646.080000
    593    595     1   0.10969 276646.080000
    596    597     1   0.10969 276646.080000
    596    598     1   0.10969 276646.080000
    599    600     1   0.10969 276646.080000
    599    601     1   0.10969 276646.080000
    602    603     1   0.10969 276646.080000
    602    604     1   0.10969 276646.080000
    605    606     1   0.10969 276646.080000
    605    607     1   0.10969 276646.080000
    610    611     1   0.10969 276646.080000
    610    612     1   0.10969 276646.080000
    613    614     1   0.10969 276646.080000
    613    615     1   0.10969 276646.080000
    616    617     1   0.10969 276646.080000
    616    618     1   0.10969 276646.080000
    619    620     1   0.10969 276646.080000
    619    621     1   0.10969 276646.080000
    622    623     1   0.10969 276646.080000
    622    624     1   0.10969 276646.080000
    625    626     1   0.10969 276646.080000
    625    627     1   0.10969 276646.080000
    628    629     1   0.10969 276646.080000
    628    630     1   0.10969 276646.080000
    631    632     1   0.10969 276646.080000
    631    633     1   0.10969 276646.080000
    634    635     1   0.10969 276646.080000
    634    636     1   0.10969 276646.080000
    639    640     1   0.10969 276646.080000
    639    641     1   0.10969 276646.080000
    642    643     1   0.10969 276646.080000
    642    644     1   0.10969 276646.080000
    645    646     1   0.10969 276646.080000
    645    647     1   0.10969 276646.080000
    648    649     1   0.10969 276646.080000
    648    650     1   0.10969 276646.080000
    651    652     1   0.10969 276646.080000
    651    653     1   0.10969 276646.080000
    654    655     1   0.10969 276646.080000
    654    656     1   0.10969 276646.080000
    657    658     1   0.10969 276646.080000
    657    659     1   0.10969 276646.080000
    660    661     1   0.10969 276646.080000
    660    662     1   0.10969 276646.080000
    663    664     1   0.10969 276646.080000
    663    665     1   0.10969 276646.080000
    668    669     1   0.10969 276646.080000
    668    670     1   0.10969 276646.080000
    671    672     1   0.10969 276646.080000
    671    673     1   0.10969 276646.080000
    674    675     1   0.10969 276646.080000
    674    676     1   0.10969 276646.080000
    677    678     1   0.10969 276646.080000
    677    679     1   0.10969 276646.080000
    680    681     1   0.10969 276646.080000
    680    682     1   0.10969 276646.080000
    683    684     1   0.10969 276646.080000
    683    685     1   0.10969 276646.080000
    686    687     1   0.10969 276646.080000
    686    688     1   0.10969 276646.080000
    689    690     1   0.10969 276646.080000
    689    691     1   0.10969 276646.080000
    692    693     1   0.10969 276646.080000
    692    694     1   0.10969 276646.080000
    697    698     1   0.10969 276646.080000
    697    699     1   0.10969 276646.080000
    700    701     1   0.10969 276646.080000
    700    702     1   0.10969 276646.080000
    703    704     1   0.10969 276646.080000
    703    705     1   0.10969 276646.080000
    706    707     1   0.10969 276646.080000
    706    708     1   0.10969 276646.080000
    709    710     1   0.10969 276646.080000
    709    711     1   0.10969 276646.080000
    712    713     1   0.10969 276646.080000
    712    714     1   0.10969 276646.080000
    715    716     1   0.10969 276646.080000
    715    717     1   0.10969 276646.080000
    718    719     1   0.10969 276646.080000
    718    720     1   0.10969 276646.080000
    721    722     1   0.10969 276646.080000
    721    723     1   0.10969 276646.080000
    726    727     1   0.10969 276646.080000
    726    728     1   0.10969 276646.080000
    729    730     1   0.10969 276646.080000
    729    731     1   0.10969 276646.080000
    732    733     1   0.10969 276646.080000
    732    734     1   0.10969 276646.080000
    735    736     1   0.10969 276646.080000
    735    737     1   0.10969 276646.080000
    738    739     1   0.10969 276646.080000
    738    740     1   0.10969 276646.080000
    741    742     1   0.10969 276646.080000
    741    743     1   0.10969 276646.080000
    744    745     1   0.10969 276646.080000
    744    746     1   0.10969 276646.080000
    747    748     1   0.10969 276646.080000
    747    749     1   0.10969 276646.080000
    750    751     1   0.10969 276646.080000
    750    752     1   0.10969 276646.080000
    755    756     1   0.10969 276646.080000
    755    757     1   0.10969 276646.080000
    758    759     1   0.10969 276646.080000
    758    760     1   0.10969 276646.080000
    761    762     1   0.10969 276646.080000
    761    763     1   0.10969 276646.080000
    764    765     1   0.10969 276646.080000
    764    766     1   0.10969 276646.080000
    767    768     1   0.10969 276646.080000
    767    769     1   0.10969 276646.080000
    770    771     1   0.10969 276646.080000
    770    772     1   0.10969 276646.080000
    773    774     1   0.10969 276646.080000
    773    775     1   0.10969 276646.080000
    776    777     1   0.10969 276646.080000
    776    778     1   0.10969 276646.080000
    779    780     1   0.10969 276646.080000
    779    781     1   0.10969 276646.080000
    784    785     1   0.10969 276646.080000
    784    786     1   0.10969 276646.080000
    787    788     1   0.10969 276646.080000
    787    789     1   0.10969 276646.080000
    790    791     1   0.10969 276646.080000
    790    792     1   0.10969 276646.080000
    793    794     1   0.10969 276646.080000
    793    795     1   0.10969 276646.080000
    796    797     1   0.10969 276646.080000
    796    798     1   0.10969 276646.080000
    799    800     1   0.10969 276646.080000
    799    801     1   0.10969 276646.080000
    802    803     1   0.10969 276646.080000
    802    804     1   0.10969 276646.080000
    805    806     1   0.10969 276646.080000
    805    807     1   0.10969 276646.080000
    808    809     1   0.10969 276646.080000
    808    810     1   0.10969 276646.080000
    813    814     1   0.10969 276646.080000
    813    815     1   0.10969 276646.080000
    816    817     1   0.10969 276646.080000
    816    818     1   0.10969 276646.080000
    819    820     1   0.10969 276646.080000
    819    821     1   0.10969 276646.080000
    822    823     1   0.10969 276646.080000
    822    824     1   0.10969 276646.080000
    825    826     1   0.10969 276646.080000
    825    827     1   0.10969 276646.080000
    828    829     1   0.10969 276646.080000
    828    830     1   0.10969 276646.080000
    831    832     1   0.10969 276646.080000
    831    833     1   0.10969 276646.080000
    834    835     1   0.10969 276646.080000
    834    836     1   0.10969 276646.080000
    837    838     1   0.10969 276646.080000
    837    839     1   0.10969 276646.080000
    842    843     1   0.10969 276646.080000
    842    844     1   0.10969 276646.080000
    845    846     1   0.10969 276646.080000
    845    847     1   0.10969 276646.080000
    848    849     1   0.10969 276646.080000
    848    850     1   0.10969 276646.080000
    851    852     1   0.10969 276646.080000
    851    853     1   0.10969 276646.080000
    854    855     1   0.10969 276646.080000
    854    856     1   0.10969 276646.080000
    857    858     1   0.10969 276646.080000
    857    859     1   0.10969 276646.080000
    860    861     1   0.10969 276646.080000
    860    862     1   0.10969 276646.080000
    863    864     1   0.10969 276646.080000
    863    865     1   0.10969 276646.080000
    866    867     1   0.10969 276646.080000
    866    868     1   0.10969 276646.080000
    871    872     1   0.10969 276646.080000
    871    873     1   0.10969 276646.080000
    874    875     1   0.10969 276646.080000
    874    876     1   0.10969 276646.080000
    877    878     1   0.10969 276646.080000
    877    879     1   0.10969 276646.080000
    880    881     1   0.10969 276646.080000
    880    882     1   0.10969 276646.080000
    883    884     1   0.10969 276646.080000
    883    885     1   0.10969 276646.080000
    886    887     1   0.10969 276646.080000
    886    888     1   0.10969 276646.080000
    889    890     1   0.10969 276646.080000
    889    891     1   0.10969 276646.080000
    892    893     1   0.10969 276646.080000
    892    894     1   0.10969 276646.080000
    895    896     1   0.10969 276646.080000
    895    897     1   0.10969 276646.080000
    900    901     1   0.10969 276646.080000
    900    902     1   0.10969 276646.080000
    903    904     1   0.10969 276646.080000
    903    905     1   0.10969 276646.080000
    906    907     1   0.10969 276646.080000
    906    908     1   0.10969 276646.080000
    909    910     1   0.10969 276646.080000
    909    911     1   0.10969 276646.080000
    912    913     1   0.10969 276646.080000
    912    914     1   0.10969 276646.080000
    915    916     1   0.10969 276646.080000
    915    917     1   0.10969 276646.080000
    918    919     1   0.10969 276646.080000
    918    920     1   0.10969 276646.080000
    921    922     1   0.10969 276646.080000
    921    923     1   0.10969 276646.080000
    924    925     1   0.10969 276646.080000
    924    926     1   0.10969 276646.080000
    929    930     1   0.10969 276646.080000
    929    931     1   0.10969 276646.080000
    932    933     1   0.10969 276646.080000
    932    934     1   0.10969 276646.080000
    935    936     1   0.10969 276646.080000
    935    937     1   0.10969 276646.080000
    938    939     1   0.10969 276646.080000
    938    940     1   0.10969 276646.080000
    941    942     1   0.10969 276646.080000
    941    943     1   0.10969 276646.080000
    944    945     1   0.10969 276646.080000
    944    946     1   0.10969 276646.080000
    947    948     1   0.10969 276646.080000
    947    949     1   0.10969 276646.080000
    950    951     1   0.10969 276646.080000
    950    952     1   0.10969 276646.080000
    953    954     1   0.10969 276646.080000
    953    955     1   0.10969 276646.080000
    958    959     1   0.10969 276646.080000
    958    960     1   0.10969 276646.080000
    961    962     1   0.10969 276646.080000
    961    963     1   0.10969 276646.080000
    964    965     1   0.10969 276646.080000
    964    966     1   0.10969 276646.080000
    967    968     1   0.10969 276646.080000
    967    969     1   0.10969 276646.080000
    970    971     1   0.10969 276646.080000
    970    972     1   0.10969 276646.080000
    973    974     1   0.10969 276646.080000
    973    975     1   0.10969 276646.080000
    976    977     1   0.10969 276646.080000
    976    978     1   0.10969 276646.080000
    979    980     1   0.10969 276646.080000
    979    981     1   0.10969 276646.080000
    982    983     1   0.10969 276646.080000
    982    984     1   0.10969 276646.080000
    987    988     1   0.10969 276646.080000
    987    989     1   0.10969 276646.080000
    990    991     1   0.10969 276646.080000
    990    992     1   0.10969 276646.080000
    993    994     1   0.10969 276646.080000
    993    995     1   0.10969 276646.080000
    996    997     1   0.10969 276646.080000
    996    998     1   0.10969 276646.080000
    999   1000     1   0.10969 276646.080000
    999   1001     1   0.10969 276646.080000
   1002   1003     1   0.10969 276646.080000
   1002   1004     1   0.10969 276646.080000
   1005   1006     1   0.10969 276646.080000
   1005   1007     1   0.10969 276646.080000
   1008   1009     1   0.10969 276646.080000
   1008   1010     1   0.10969 276646.080000
   1011   1012     1   0.10969 276646.080000
   1011   1013     1   0.10969 276646.080000
   1016   1017     1   0.10969 276646.080000
   1016   1018     1   0.10969 276646.080000
   1019   1020     1   0.10969 276646.080000
   1019   1021     1   0.10969 276646.080000
   1022   1023     1   0.10969 276646.080000
   1022   1024     1   0.10969 276646.080000
   1025   1026     1   0.10969 276646.080000
   1025   1027     1   0.10969 276646.080000
   1028   1029     1   0.10969 276646.080000
   1028   1030     1   0.10969 276646.080000
   1031   1032     1   0.10969 276646.080000
   1031   1033     1   0.10969 276646.080000
   1034   1035     1   0.10969 276646.080000
   1034   1036     1   0.10969 276646.080000
   1037   1038     1   0.10969 276646.080000
   1037   1039     1   0.10969 276646.080000
   1040   1041     1   0.10969 276646.080000
   1040   1042     1   0.10969 276646.080000
   1045   1046     1   0.10969 276646.080000
   1045   1047     1   0.10969 276646.080000
   1048   1049     1   0.10969 276646.080000
   1048   1050     1   0.10969 276646.080000
   1051   1052     1   0.10969 276646.080000
   1051   1053     1   0.10969 276646.080000
   1054   1055     1   0.10969 276646.080000
   1054   1056     1   0.10969 276646.080000
   1057   1058     1   0.10969 276646.080000
   1057   1059     1   0.10969 276646.080000
   1060   1061     1   0.10969 276646.080000
   1060   1062     1   0.10969 276646.080000
   1063   1064     1   0.10969 276646.080000
   1063   1065     1   0.10969 276646.080000
   1066   1067     1   0.10969 276646.080000
   1066   1068     1   0.10969 276646.080000
   1069   1070     1   0.10969 276646.080000
   1069   1071     1   0.10969 276646.080000
   1074   1075     1   0.10969 276646.080000
   1074   1076     1   0.10969 276646.080000
   1077   1078     1   0.10969 276646.080000
   1077   1079     1   0.10969 276646.080000
   1080   1081     1   0.10969 276646.080000
   1080   1082     1   0.10969 276646.080000
   1083   1084     1   0.10969 276646.080000
   1083   1085     1   0.10969 276646.080000
   1086   1087     1   0.10969 276646.080000
   1086   1088     1   0.10969 276646.080000
   1089   1090     1   0.10969 276646.080000
   1089   1091     1   0.10969 276646.080000
   1092   1093     1   0.10969 276646.080000
   1092   1094     1   0.10969 276646.080000
   1095   1096     1   0.10969 276646.080000
   1095   1097     1   0.10969 276646.080000
   1098   1099     1   0.10969 276646.080000
   1098   1100     1   0.10969 276646.080000
   1103   1104     1   0.10969 276646.080000
   1103   1105     1   0.10969 276646.080000
   1106   1107     1   0.10969 276646.080000
   1106   1108     1   0.10969 276646.080000
   1109   1110     1   0.10969 276646.080000
   1109   1111     1   0.10969 276646.080000
   1112   1113     1   0.10969 276646.080000
   1112   1114     1   0.10969 276646.080000
   1115   1116     1   0.10969 276646.080000
   1115   1117     1   0.10969 276646.080000
   1118   1119     1   0.10969 276646.080000
   1118   1120     1   0.10969 276646.080000
   1121   1122     1   0.10969 276646.080000
   1121   1123     1   0.10969 276646.080000
   1124   1125     1   0.10969 276646.080000
   1124   1126     1   0.10969 276646.080000
   1127   1128     1   0.10969 276646.080000
   1127   1129     1   0.10969 276646.080000
   1132   1133     1   0.10969 276646.080000
   1132   1134     1   0.10969 276646.080000
   1135   1136     1   0.10969 276646.080000
   1135   1137     1   0.10969 276646.080000
   1138   1139     1   0.10969 276646.080000
   1138   1140     1   0.10969 276646.080000
   1141   1142     1   0.10969 276646.080000
   1141   1143     1   0.10969 276646.080000
   1144   1145     1   0.10969 276646.080000
   1144   1146     1   0.10969 276646.080000
   1147   1148     1   0.10969 276646.080000
   1147   1149     1   0.10969 276646.080000
   1150   1151     1   0.10969 276646.080000
   1150   1152     1   0.10969 276646.080000
   1153   1154     1   0.10969 276646.080000
   1153   1155     1   0.10969 276646.080000
   1156   1157     1   0.10969 276646.080000
   1156   1158     1   0.10969 276646.080000
   1161   1162     1   0.10969 276646.080000
   1161   1163     1   0.10969 276646.080000
   1164   1165     1   0.10969 276646.080000
   1164   1166     1   0.10969 276646.080000
   1167   1168     1   0.10969 276646.080000
   1167   1169     1   0.10969 276646.080000
   1170   1171     1   0.10969 276646.080000
   1170   1172     1   0.10969 276646.080000
   1173   1174     1   0.10969 276646.080000
   1173   1175     1   0.10969 276646.080000
   1176   1177     1   0.10969 276646.080000
   1176   1178     1   0.10969 276646.080000
   1179   1180     1   0.10969 276646.080000
   1179   1181     1   0.10969 276646.080000
   1182   1183     1   0.10969 276646.080000
   1182   1184     1   0.10969 276646.080000
   1185   1186     1   0.10969 276646.080000
   1185   1187     1   0.10969 276646.080000
   1190   1191     1   0.10969 276646.080000
   1190   1192     1   0.10969 276646.080000
   1193   1194     1   0.10969 276646.080000
   1193   1195     1   0.10969 276646.080000
   1196   1197     1   0.10969 276646.080000
   1196   1198     1   0.10969 276646.080000
   1199   1200     1   0.10969 276646.080000
   1199   1201     1   0.10969 276646.080000
   1202   1203     1   0.10969 276646.080000
   1202   1204     1   0.10969 276646.080000
   1205   1206     1   0.10969 276646.080000
   1205   1207     1   0.10969 276646.080000
   1208   1209     1   0.10969 276646.080000
   1208   1210     1   0.10969 276646.080000
   1211   1212     1   0.10969 276646.080000
   1211   1213     1   0.10969 276646.080000
   1214   1215     1   0.10969 276646.080000
   1214   1216     1   0.10969 276646.080000
   1219   1220     1   0.10969 276646.080000
   1219   1221     1   0.10969 276646.080000
   1222   1223     1   0.10969 276646.080000
   1222   1224     1   0.10969 276646.080000
   1225   1226     1   0.10969 276646.080000
   1225   1227     1   0.10969 276646.080000
   1228   1229     1   0.10969 276646.080000
   1228   1230     1   0.10969 276646.080000
   1231   1232     1   0.10969 276646.080000
   1231   1233     1   0.10969 276646.080000
   1234   1235     1   0.10969 276646.080000
   1234   1236     1   0.10969 276646.080000
   1237   1238     1   0.10969 276646.080000
   1237   1239     1   0.10969 276646.080000
   1240   1241     1   0.10969 276646.080000
   1240   1242     1   0.10969 276646.080000
   1243   1244     1   0.10969 276646.080000
   1243   1245     1   0.10969 276646.080000
   1248   1249     1   0.10969 276646.080000
   1248   1250     1   0.10969 276646.080000
   1251   1252     1   0.10969 276646.080000
   1251   1253     1   0.10969 276646.080000
   1254   1255     1   0.10969 276646.080000
   1254   1256     1   0.10969 276646.080000
   1257   1258     1   0.10969 276646.080000
   1257   1259     1   0.10969 276646.080000
   1260   1261     1   0.10969 276646.080000
   1260   1262     1   0.10969 276646.080000
   1263   1264     1   0.10969 276646.080000
   1263   1265     1   0.10969 276646.080000
   1266   1267     1   0.10969 276646.080000
   1266   1268     1   0.10969 276646.080000
   1269   1270     1   0.10969 276646.080000
   1269   1271     1   0.10969 276646.080000
   1272   1273     1   0.10969 276646.080000
   1272   1274     1   0.10969 276646.080000
   1277   1278     1   0.10969 276646.080000
   1277   1279     1   0.10969 276646.080000
   1280   1281     1   0.10969 276646.080000
   1280   1282     1   0.10969 276646.080000
   1283   1284     1   0.10969 276646.080000
   1283   1285     1   0.10969 276646.080000
   1286   1287     1   0.10969 276646.080000
   1286   1288     1   0.10969 276646.080000
   1289   1290     1   0.10969 276646.080000
   1289   1291     1   0.10969 276646.080000
   1292   1293     1   0.10969 276646.080000
   1292   1294     1   0.10969 276646.080000
   1295   1296     1   0.10969 276646.080000
   1295   1297     1   0.10969 276646.080000
   1298   1299     1   0.10969 276646.080000
   1298   1300     1   0.10969 276646.080000
   1301   1302     1   0.10969 276646.080000
   1301   1303     1   0.10969 276646.080000
   1306   1307     1   0.10969 276646.080000
   1306   1308     1   0.10969 276646.080000
   1309   1310     1   0.10969 276646.080000
   1309   1311     1   0.10969 276646.080000
   1312   1313     1   0.10969 276646.080000
   1312   1314     1   0.10969 276646.080000
   1315   1316     1   0.10969 276646.080000
   1315   1317     1   0.10969 276646.080000
   1318   1319     1   0.10969 276646.080000
   1318   1320     1   0.10969 276646.080000
   1321   1322     1   0.10969 276646.080000
   1321   1323     1   0.10969 276646.080000
   1324   1325     1   0.10969 276646.080000
   1324   1326     1   0.10969 276646.080000
   1327   1328     1   0.10969 276646.080000
   1327   1329     1   0.10969 276646.080000
   1330   1331     1   0.10969 276646.080000
   1330   1332     1   0.10969 276646.080000
   1334   1335     1   0.10969 276646.080000
   1334   1336     1   0.10969 276646.080000
   1337   1338     1   0.10969 276646.080000
   1337   1339     1   0.10969 276646.080000
   1340   1341     1   0.10969 276646.080000
   1340   1342     1   0.10969 276646.080000
   1344   1345     1   0.10969 276646.080000
   1344   1346     1   0.10969 276646.080000
   1347   1348     1   0.10969 276646.080000
   1347   1349     1   0.10969 276646.080000
   1352   1353     1   0.09730 310787.520000
   1354   1355     1   0.10969 276646.080000
   1354   1356     1   0.10969 276646.080000
   1357   1358     1   0.10969 276646.080000
   1357   1359     1   0.10969 276646.080000
   1362   1363     1   0.09730 310787.520000
   1365   1366     1   0.10969 276646.080000
   1365   1367     1   0.10969 276646.080000
   1368   1369     1   0.10969 276646.080000
   1368   1370     1   0.10969 276646.080000
   1371   1372     1   0.10969 276646.080000
   1371   1373     1   0.10969 276646.080000
   1375   1376     1   0.10969 276646.080000
   1375   1377     1   0.10969 276646.080000
   1378   1379     1   0.10969 276646.080000
   1378   1380     1   0.10969 276646.080000
   1383   1384     1   0.09730 310787.520000
   1385   1386     1   0.10969 276646.080000
   1385   1387     1   0.10969 276646.080000
   1388   1389     1   0.10969 276646.080000
   1388   1390     1   0.10969 276646.080000
   1393   1394     1   0.09730 310787.520000
   1396   1397     1   0.10969 276646.080000
   1396   1398     1   0.10969 276646.080000
   1399   1400     1   0.10969 276646.080000
   1399   1401     1   0.10969 276646.080000
   1402   1403     1   0.10969 276646.080000
   1402   1404     1   0.10969 276646.080000
   1406   1407     1   0.10969 276646.080000
   1406   1408     1   0.10969 276646.080000
   1409   1410     1   0.10969 276646.080000
   1409   1411     1   0.10969 276646.080000
   1414   1415     1   0.09730 310787.520000
   1416   1417     1   0.10969 276646.080000
   1416   1418     1   0.10969 276646.080000
   1419   1420     1   0.10969 276646.080000
   1419   1421     1   0.10969 276646.080000
   1424   1425     1   0.09730 310787.520000
   1427   1428     1   0.10969 276646.080000
   1427   1429     1   0.10969 276646.080000
   1430   1431     1   0.10969 276646.080000
   1430   1432     1   0.10969 276646.080000
   1433   1434     1   0.10969 276646.080000
   1433   1435     1   0.10969 276646.080000
   1437   1438     1   0.10969 276646.080000
   1437   1439     1   0.10969 276646.080000
   1440   1441     1   0.10969 276646.080000
   1440   1442     1   0.10969 276646.080000
   1445   1446     1   0.09730 310787.520000
   1447   1448     1   0.10969 276646.080000
   1447   1449     1   0.10969 276646.080000
   1450   1451     1   0.10969 276646.080000
   1450   1452     1   0.10969 276646.080000
   1455   1456     1   0.09730 310787.520000
   1458   1459     1   0.10969 276646.080000
   1458   1460     1   0.10969 276646.080000
   1461   1462     1   0.10969 276646.080000
   1461   1463     1   0.10969 276646.080000
   1464   1465     1   0.10969 276646.080000
   1464   1466     1   0.10969 276646.080000
   1468   1469     1   0.10969 276646.080000
   1468   1470     1   0.10969 276646.080000
   1471   1472     1   0.10969 276646.080000
   1471   1473     1   0.10969 276646.080000
   1476   1477     1   0.09730 310787.520000
   1478   1479     1   0.10969 276646.080000
   1478   1480     1   0.10969 276646.080000
   1481   1482     1   0.10969 276646.080000
   1481   1483     1   0.10969 276646.080000
   1486   1487     1   0.09730 310787.520000
   1489   1490     1   0.10969 276646.080000
   1489   1491     1   0.10969 276646.080000
   1492   1493     1   0.10969 276646.080000
   1492   1494     1   0.10969 276646.080000
   1495   1496     1   0.10969 276646.080000
   1495   1497     1   0.10969 276646.080000
   1499   1500     1   0.10969 276646.080000
   1499   1501     1   0.10969 276646.080000
   1502   1503     1   0.10969 276646.080000
   1502   1504     1   0.10969 276646.080000
   1507   1508     1   0.09730 310787.520000
   1509   1510     1   0.10969 276646.080000
   1509   1511     1   0.10969 276646.080000
   1512   1513     1   0.10969 276646.080000
   1512   1514     1   0.10969 276646.080000
   1517   1518     1   0.09730 310787.520000
   1520   1521     1   0.10969 276646.080000
   1520   1522     1   0.10969 276646.080000
   1523   1524     1   0.10969 276646.080000
   1523   1525     1   0.10969 276646.080000
   1526   1527     1   0.10969 276646.080000
   1526   1528     1   0.10969 276646.080000
   1530   1531     1   0.10969 276646.080000
   1530   1532     1   0.10969 276646.080000
   1533   1534     1   0.10969 276646.080000
   1533   1535     1   0.10969 276646.080000
   1538   1539     1   0.09730 310787.520000
   1540   1541     1   0.10969 276646.080000
   1540   1542     1   0.10969 276646.080000
   1543   1544     1   0.10969 276646.080000
   1543   1545     1   0.10969 276646.080000
   1548   1549     1   0.09730 310787.520000
   1551   1552     1   0.10969 276646.080000
   1551   1553     1   0.10969 276646.080000
   1554   1555     1   0.10969 276646.080000
   1554   1556     1   0.10969 276646.080000
   1557   1558     1   0.10969 276646.080000
   1557   1559     1   0.10969 276646.080000
   1561   1562     1   0.10969 276646.080000
   1561   1563     1   0.10969 276646.080000
   1564   1565     1   0.10969 276646.080000
   1564   1566     1   0.10969 276646.080000
   1569   1570     1   0.09730 310787.520000
   1571   1572     1   0.10969 276646.080000
   1571   1573     1   0.10969 276646.080000
   1574   1575     1   0.10969 276646.080000
   1574   1576     1   0.10969 276646.080000
   1579   1580     1   0.09730 310787.520000
   1582   1583     1   0.10969 276646.080000
   1582   1584     1   0.10969 276646.080000
   1585   1586     1   0.10969 276646.080000
   1585   1587     1   0.10969 276646.080000
   1588   1589     1   0.10969 276646.080000
   1588   1590     1   0.10969 276646.080000
   1592   1593     1   0.10969 276646.080000
   1592   1594     1   0.10969 276646.080000
   1595   1596     1   0.10969 276646.080000
   1595   1597     1   0.10969 276646.080000
   1600   1601     1   0.09730 310787.520000
   1602   1603     1   0.10969 276646.080000
   1602   1604     1   0.10969 276646.080000
   1605   1606     1   0.10969 276646.080000
   1605   1607     1   0.10969 276646.080000
   1610   1611     1   0.09730 310787.520000
   1613   1614     1   0.10969 276646.080000
   1613   1615     1   0.10969 276646.080000
   1616   1617     1   0.10969 276646.080000
   1616   1618     1   0.10969 276646.080000
   1619   1620     1   0.10969 276646.080000
   1619   1621     1   0.10969 276646.080000
   1623   1624     1   0.10969 276646.080000
   1623   1625     1   0.10969 276646.080000
   1626   1627     1   0.10969 276646.080000
   1626   1628     1   0.10969 276646.080000
   1631   1632     1   0.09730 310787.520000
   1633   1634     1   0.10969 276646.080000
   1633   1635     1   0.10969 276646.080000
   1636   1637     1   0.10969 276646.080000
   1636   1638     1   0.10969 276646.080000
   1641   1642     1   0.09730 310787.520000
   1644   1645     1   0.10969 276646.080000
   1644   1646     1   0.10969 276646.080000
   1647   1648     1   0.10969 276646.080000
   1647   1649     1   0.10969 276646.080000
   1650   1651     1   0.10969 276646.080000
   1650   1652     1   0.10969 276646.080000
   1654   1655     1   0.10969 276646.080000
   1654   1656     1   0.10969 276646.080000
   1657   1658     1   0.10969 276646.080000
   1657   1659     1   0.10969 276646.080000
   1662   1663     1   0.09730 310787.520000
   1664   1665     1   0.10969 276646.080000
   1664   1666     1   0.10969 276646.080000
   1667   1668     1   0.10969 276646.080000
   1667   1669     1   0.10969 276646.080000
   1672   1673     1   0.09730 310787.520000
   1675   1676     1   0.10969 276646.080000
   1675   1677     1   0.10969 276646.080000
   1678   1679     1   0.10969 276646.080000
   1678   1680     1   0.10969 276646.080000
   1681   1682     1   0.10969 276646.080000
   1681   1683     1   0.10969 276646.080000
   1685   1686     1   0.10969 276646.080000
   1685   1687     1   0.10969 276646.080000
   1688   1689     1   0.10969 276646.080000
   1688   1690     1   0.10969 276646.080000
   1693   1694     1   0.09730 310787.520000
   1695   1696     1   0.10969 276646.080000
   1695   1697     1   0.10969 276646.080000
   1698   1699     1   0.10969 276646.080000
   1698   1700     1   0.10969 276646.080000
   1703   1704     1   0.09730 310787.520000
   1706   1707     1   0.10969 276646.080000
   1706   1708     1   0.10969 276646.080000
   1709   1710     1   0.10969 276646.080000
   1709   1711     1   0.10969 276646.080000
   1712   1713     1   0.10969 276646.080000
   1712   1714     1   0.10969 276646.080000
   1716   1717     1   0.10969 276646.080000
   1716   1718     1   0.10969 276646.080000
   1719   1720     1   0.10969 276646.080000
   1719   1721     1   0.10969 276646.080000
   1724   1725     1   0.09730 310787.520000
   1726   1727     1   0.10969 276646.080000
   1726   1728     1   0.10969 276646.080000
   1729   1730     1   0.10969 276646.080000
   1729   1731     1   0.10969 276646.080000
   1734   1735     1   0.09730 310787.520000
   1737   1738     1   0.10969 276646.080000
   1737   1739     1   0.10969 276646.080000
   1740   1741     1   0.10969 276646.080000
   1740   1742     1   0.10969 276646.080000
   1743   1744     1   0.10969 276646.080000
   1743   1745     1   0.10969 276646.080000
   1747   1748     1   0.10969 276646.080000
   1747   1749     1   0.10969 276646.080000
   1750   1751     1   0.10969 276646.080000
   1750   1752     1   0.10969 276646.080000
   1755   1756     1   0.09730 310787.520000
   1757   1758     1   0.10969 276646.080000
   1757   1759     1   0.10969 276646.080000
   1760   1761     1   0.10969 276646.080000
   1760   1762     1   0.10969 276646.080000
   1765   1766     1   0.09730 310787.520000
   1768   1769     1   0.10969 276646.080000
   1768   1770     1   0.10969 276646.080000
   1771   1772     1   0.10969 276646.080000
   1771   1773     1   0.10969 276646.080000
   1774   1775     1   0.10969 276646.080000
   1774   1776     1   0.10969 276646.080000
   1778   1779     1   0.10969 276646.080000
   1778   1780     1   0.10969 276646.080000
   1781   1782     1   0.10969 276646.080000
   1781   1783     1   0.10969 276646.080000
   1786   1787     1   0.09730 310787.520000
   1788   1789     1   0.10969 276646.080000
   1788   1790     1   0.10969 276646.080000
   1791   1792     1   0.10969 276646.080000
   1791   1793     1   0.10969 276646.080000
   1796   1797     1   0.09730 310787.520000
   1799   1800     1   0.10969 276646.080000
   1799   1801     1   0.10969 276646.080000
   1802   1803     1   0.10969 276646.080000
   1802   1804     1   0.10969 276646.080000
   1805   1806     1   0.10969 276646.080000
   1805   1807     1   0.10969 276646.080000
   1809   1810     1   0.10969 276646.080000
   1809   1811     1   0.10969 276646.080000
   1812   1813     1   0.10969 276646.080000
   1812   1814     1   0.10969 276646.080000
   1817   1818     1   0.09730 310787.520000
   1819   1820     1   0.10969 276646.080000
   1819   1821     1   0.10969 276646.080000
   1822   1823     1   0.10969 276646.080000
   1822   1824     1   0.10969 276646.080000
   1827   1828     1   0.09730 310787.520000
   1830   1831     1   0.10969 276646.080000
   1830   1832     1   0.10969 276646.080000
   1833   1834     1   0.10969 276646.080000
   1833   1835     1   0.10969 276646.080000
   1836   1837     1   0.10969 276646.080000
   1836   1838     1   0.10969 276646.080000
   1840   1841     1   0.10969 276646.080000
   1840   1842     1   0.10969 276646.080000
   1843   1844     1   0.10969 276646.080000
   1843   1845     1   0.10969 276646.080000
   1848   1849     1   0.09730 310787.520000
   1850   1851     1   0.10969 276646.080000
   1850   1852     1   0.10969 276646.080000
   1853   1854     1   0.10969 276646.080000
   1853   1855     1   0.10969 276646.080000
   1858   1859     1   0.09730 310787.520000
   1861   1862     1   0.10969 276646.080000
   1861   1863     1   0.10969 276646.080000
   1864   1865     1   0.10969 276646.080000
   1864   1866     1   0.10969 276646.080000
   1867   1868     1   0.10969 276646.080000
   1867   1869     1   0.10969 276646.080000
   1871   1872     1   0.10969 276646.080000
   1871   1873     1   0.10969 276646.080000
   1874   1875     1   0.10969 276646.080000
   1874   1876     1   0.10969 276646.080000
   1879   1880     1   0.09730 310787.520000
   1881   1882     1   0.10969 276646.080000
   1881   1883     1   0.10969 276646.080000
   1884   1885     1   0.10969 276646.080000
   1884   1886     1   0.10969 276646.080000
   1889   1890     1   0.09730 310787.520000
   1892   1893     1   0.10969 276646.080000
   1892   1894     1   0.10969 276646.080000
   1895   1896     1   0.10969 276646.080000
   1895   1897     1   0.10969 276646.080000
   1898   1899     1   0.10969 276646.080000
   1898   1900     1   0.10969 276646.080000
   1902   1903     1   0.10969 276646.080000
   1902   1904     1   0.10969 276646.080000
   1905   1906     1   0.10969 276646.080000
   1905   1907     1   0.10969 276646.080000
   1910   1911     1   0.09730 310787.520000
   1912   1913     1   0.10969 276646.080000
   1912   1914     1   0.10969 276646.080000
   1915   1916     1   0.10969 276646.080000
   1915   1917     1   0.10969 276646.080000
   1920   1921     1   0.09730 310787.520000
   1923   1924     1   0.10969 276646.080000
   1923   1925     1   0.10969 276646.080000
   1926   1927     1   0.10969 276646.080000
   1926   1928     1   0.10969 276646.080000
   1929   1930     1   0.10969 276646.080000
   1929   1931     1   0.10969 276646.080000
   1933   1934     1   0.10969 276646.080000
   1933   1935     1   0.10969 276646.080000
   1936   1937     1   0.10969 276646.080000
   1936   1938     1   0.10969 276646.080000
   1941   1942     1   0.09730 310787.520000
   1943   1944     1   0.10969 276646.080000
   1943   1945     1   0.10969 276646.080000
   1946   1947     1   0.10969 276646.080000
   1946   1948     1   0.10969 276646.080000
   1951   1952     1   0.09730 310787.520000
   1954   1955     1   0.10969 276646.080000
   1954   1956     1   0.10969 276646.080000
   1957   1958     1   0.10969 276646.080000
   1957   1959     1   0.10969 276646.080000
   1960   1961     1   0.10969 276646.080000
   1960   1962     1   0.10969 276646.080000
   1964   1965     1   0.10969 276646.080000
   1964   1966     1   0.10969 276646.080000
   1967   1968     1   0.10969 276646.080000
   1967   1969     1   0.10969 276646.080000
   1972   1973     1   0.09730 310787.520000
   1974   1975     1   0.10969 276646.080000
   1974   1976     1   0.10969 276646.080000
   1977   1978     1   0.10969 276646.080000
   1977   1979     1   0.10969 276646.080000
   1982   1983     1   0.09730 310787.520000
   1985   1986     1   0.10969 276646.080000
   1985   1987     1   0.10969 276646.080000
   1988   1989     1   0.10969 276646.080000
   1988   1990     1   0.10969 276646.080000
   1991   1992     1   0.10969 276646.080000
   1991   1993     1   0.10969 276646.080000
   1995   1996     1   0.10969 276646.080000
   1995   1997     1   0.10969 276646.080000
   1998   1999     1   0.10969 276646.080000
   1998   2000     1   0.10969 276646.080000
   2003   2004     1   0.09730 310787.520000
   2005   2006     1   0.10969 276646.080000
   2005   2007     1   0.10969 276646.080000
   2008   2009     1   0.10969 276646.080000
   2008   2010     1   0.10969 276646.080000
   2013   2014     1   0.09730 310787.520000
   2016   2017     1   0.10969 276646.080000
   2016   2018     1   0.10969 276646.080000
   2019   2020     1   0.10969 276646.080000
   2019   2021     1   0.10969 276646.080000
   2022   2023     1   0.10969 276646.080000
   2022   2024     1   0.10969 276646.080000
   2026   2027     1   0.10969 276646.080000
   2026   2028     1   0.10969 276646.080000
   2029   2030     1   0.10969 276646.080000
   2029   2031     1   0.10969 276646.080000
   2034   2035     1   0.09730 310787.520000
   2036   2037     1   0.10969 276646.080000
   2036   2038     1   0.10969 276646.080000
   2039   2040     1   0.10969 276646.080000
   2039   2041     1   0.10969 276646.080000
   2044   2045     1   0.09730 310787.520000
   2047   2048     1   0.10969 276646.080000
   2047   2049     1   0.10969 276646.080000
   2050   2051     1   0.10969 276646.080000
   2050   2052     1   0.10969 276646.080000
   2053   2054     1   0.10969 276646.080000
   2053   2055     1   0.10969 276646.080000
   2057   2058     1   0.10969 276646.080000
   2057   2059     1   0.10969 276646.080000
   2060   2061     1   0.10969 276646.080000
   2060   2062     1   0.10969 276646.080000
   2065   2066     1   0.09730 310787.520000
   2067   2068     1   0.10969 276646.080000
   2067   2069     1   0.10969 276646.080000
   2070   2071     1   0.10969 276646.080000
   2070   2072     1   0.10969 276646.080000
   2075   2076     1   0.09730 310787.520000
   2078   2079     1   0.10969 276646.080000
   2078   2080     1   0.10969 276646.080000
   2081   2082     1   0.10969 276646.080000
   2081   2083     1   0.10969 276646.080000
   2084   2085     1   0.10969 276646.080000
   2084   2086     1   0.10969 276646.080000
   2088   2089     1   0.10969 276646.080000
   2088   2090     1   0.10969 276646.080000
   2091   2092     1   0.10969 276646.080000
   2091   2093     1   0.10969 276646.080000
   2096   2097     1   0.09730 310787.520000
   2098   2099     1   0.10969 276646.080000
   2098   2100     1   0.10969 276646.080000
   2101   2102     1   0.10969 276646.080000
   2101   2103     1   0.10969 276646.080000
   2106   2107     1   0.09730 310787.520000
   2109   2110     1   0.10969 276646.080000
   2109   2111     1   0.10969 276646.080000
   2112   2113     1   0.10969 276646.080000
   2112   2114     1   0.10969 276646.080000
   2115   2116     1   0.10969 276646.080000
   2115   2117     1   0.10969 276646.080000
   2119   2120     1   0.10969 276646.080000
   2119   2121     1   0.10969 276646.080000
   2122   2123     1   0.10969 276646.080000
   2122   2124     1   0.10969 276646.080000
   2127   2128     1   0.09730 310787.520000
   2129   2130     1   0.10969 276646.080000
   2129   2131     1   0.10969 276646.080000
   2132   2133     1   0.10969 276646.080000
   2132   2134     1   0.10969 276646.080000
   2137   2138     1   0.09730 310787.520000
   2140   2141     1   0.10969 276646.080000
   2140   2142     1   0.10969 276646.080000
   2143   2144     1   0.10969 276646.080000
   2143   2145     1   0.10969 276646.080000
   2146   2147     1   0.10969 276646.080000
   2146   2148     1   0.10969 276646.080000
   2150   2151     1   0.10969 276646.080000
   2150   2152     1   0.10969 276646.080000
   2153   2154     1   0.10969 276646.080000
   2153   2155     1   0.10969 276646.080000
   2158   2159     1   0.09730 310787.520000
   2160   2161     1   0.10969 276646.080000
   2160   2162     1   0.10969 276646.080000
   2163   2164     1   0.10969 276646.080000
   2163   2165     1   0.10969 276646.080000
   2168   2169     1   0.09730 310787.520000
   2171   2172     1   0.10969 276646.080000
   2171   2173     1   0.10969 276646.080000
   2174   2175     1   0.10969 276646.080000
   2174   2176     1   0.10969 276646.080000
   2177   2178     1   0.10969 276646.080000
   2177   2179     1   0.10969 276646.080000
   2181   2182     1   0.10969 276646.080000
   2181   2183     1   0.10969 276646.080000
   2184   2185     1   0.10969 276646.080000
   2184   2186     1   0.10969 276646.080000
   2189   2190     1   0.09730 310787.520000
   2191   2192     1   0.10969 276646.080000
   2191   2193     1   0.10969 276646.080000
   2194   2195     1   0.10969 276646.080000
   2194   2196     1   0.10969 276646.080000
   2199   2200     1   0.09730 310787.520000
   2202   2203     1   0.10969 276646.080000
   2202   2204     1   0.10969 276646.080000
   2205   2206     1   0.10969 276646.080000
   2205   2207     1   0.10969 276646.080000
   2208   2209     1   0.10969 276646.080000
   2208   2210     1   0.10969 276646.080000
   2212   2213     1   0.10969 276646.080000
   2212   2214     1   0.10969 276646.080000
   2215   2216     1   0.10969 276646.080000
   2215   2217     1   0.10969 276646.080000
   2220   2221     1   0.09730 310787.520000
   2222   2223     1   0.10969 276646.080000
   2222   2224     1   0.10969 276646.080000
   2225   2226     1   0.10969 276646.080000
   2225   2227     1   0.10969 276646.080000
   2230   2231     1   0.09730 310787.520000
   2233   2234     1   0.10969 276646.080000
   2233   2235     1   0.10969 276646.080000
   2236   2237     1   0.10969 276646.080000
   2236   2238     1   0.10969 276646.080000
   2239   2240     1   0.10969 276646.080000
   2239   2241     1   0.10969 276646.080000
   2243   2244     1   0.10969 276646.080000
   2243   2245     1   0.10969 276646.080000
   2246   2247     1   0.10969 276646.080000
   2246   2248     1   0.10969 276646.080000
   2251   2252     1   0.09730 310787.520000
   2253   2254     1   0.10969 276646.080000
   2253   2255     1   0.10969 276646.080000
   2256   2257     1   0.10969 276646.080000
   2256   2258     1   0.10969 276646.080000
   2261   2262     1   0.09730 310787.520000
   2264   2265     1   0.10969 276646.080000
   2264   2266     1   0.10969 276646.080000
   2267   2268     1   0.10969 276646.080000
   2267   2269     1   0.10969 276646.080000
   2270   2271     1   0.10969 276646.080000
   2270   2272     1   0.10969 276646.080000
   2274   2275     1   0.10969 276646.080000
   2274   2276     1   0.10969 276646.080000
   2277   2278     1   0.10969 276646.080000
   2277   2279     1   0.10969 276646.080000
   2282   2283     1   0.09730 310787.520000
   2284   2285     1   0.10969 276646.080000
   2284   2286     1   0.10969 276646.080000
   2287   2288     1   0.10969 276646.080000
   2287   2289     1   0.10969 276646.080000
   2292   2293     1   0.09730 310787.520000
   2295   2296     1   0.10969 276646.080000
   2295   2297     1   0.10969 276646.080000
   2298   2299     1   0.10969 276646.080000
   2298   2300     1   0.10969 276646.080000
   2301   2302     1   0.10969 276646.080000
   2301   2303     1   0.10969 276646.080000
   2305   2306     1   0.10969 276646.080000
   2305   2307     1   0.10969 276646.080000
   2308   2309     1   0.10969 276646.080000
   2308   2310     1   0.10969 276646.080000
   2313   2314     1   0.09730 310787.520000
   2315   2316     1   0.10969 276646.080000
   2315   2317     1   0.10969 276646.080000
   2318   2319     1   0.10969 276646.080000
   2318   2320     1   0.10969 276646.080000
   2323   2324     1   0.09730 310787.520000
   2326   2327     1   0.10969 276646.080000
   2326   2328     1   0.10969 276646.080000
   2329   2330     1   0.10969 276646.080000
   2329   2331     1   0.10969 276646.080000
   2332   2333     1   0.10969 276646.080000
   2332   2334     1   0.10969 276646.080000
   2336   2337     1   0.10969 276646.080000
   2336   2338     1   0.10969 276646.080000
   2339   2340     1   0.10969 276646.080000
   2339   2341     1   0.10969 276646.080000
   2344   2345     1   0.09730 310787.520000
   2346   2347     1   0.10969 276646.080000
   2346   2348     1   0.10969 276646.080000
   2349   2350     1   0.10969 276646.080000
   2349   2351     1   0.10969 276646.080000
   2354   2355     1   0.09730 310787.520000
   2357   2358     1   0.10969 276646.080000
   2357   2359     1   0.10969 276646.080000
   2360   2361     1   0.10969 276646.080000
   2360   2362     1   0.10969 276646.080000
   2363   2364     1   0.10969 276646.080000
   2363   2365     1   0.10969 276646.080000
   2367   2368     1   0.10969 276646.080000
   2367   2369     1   0.10969 276646.080000
   2370   2371     1   0.10969 276646.080000
   2370   2372     1   0.10969 276646.080000
   2375   2376     1   0.09730 310787.520000
   2377   2378     1   0.10969 276646.080000
   2377   2379     1   0.10969 276646.080000
   2380   2381     1   0.10969 276646.080000
   2380   2382     1   0.10969 276646.080000
   2385   2386     1   0.09730 310787.520000
   2388   2389     1   0.10969 276646.080000
   2388   2390     1   0.10969 276646.080000
   2391   2392     1   0.10969 276646.080000
   2391   2393     1   0.10969 276646.080000
   2394   2395     1   0.10969 276646.080000
   2394   2396     1   0.10969 276646.080000
   2398   2399     1   0.10969 276646.080000
   2398   2400     1   0.10969 276646.080000
   2401   2402     1   0.10969 276646.080000
   2401   2403     1   0.10969 276646.080000
   2406   2407     1   0.09730 310787.520000
   2408   2409     1   0.10969 276646.080000
   2408   2410     1   0.10969 276646.080000
   2411   2412     1   0.10969 276646.080000
   2411   2413     1   0.10969 276646.080000
   2416   2417     1   0.09730 310787.520000
   2419   2420     1   0.10969 276646.080000
   2419   2421     1   0.10969 276646.080000
   2422   2423     1   0.10969 276646.080000
   2422   2424     1   0.10969 276646.080000
   2425   2426     1   0.10969 276646.080000
   2425   2427     1   0.10969 276646.080000
   2429   2430     1   0.10969 276646.080000
   2429   2431     1   0.10969 276646.080000
   2432   2433     1   0.10969 276646.080000
   2432   2434     1   0.10969 276646.080000
   2437   2438     1   0.09730 310787.520000
   2439   2440     1   0.10969 276646.080000
   2439   2441     1   0.10969 276646.080000
   2442   2443     1   0.10969 276646.080000
   2442   2444     1   0.10969 276646.080000
   2447   2448     1   0.09730 310787.520000
   2450   2451     1   0.10969 276646.080000
   2450   2452     1   0.10969 276646.080000
   2453   2454     1   0.10969 276646.080000
   2453   2455     1   0.10969 276646.080000
   2456   2457     1   0.10969 276646.080000
   2456   2458     1   0.10969 276646.080000
   2460   2461     1   0.10969 276646.080000
   2460   2462     1   0.10969 276646.080000
   2463   2464     1   0.10969 276646.080000
   2463   2465     1   0.10969 276646.080000
   2468   2469     1   0.09730 310787.520000
   2470   2471     1   0.10969 276646.080000
   2470   2472     1   0.10969 276646.080000
   2473   2474     1   0.10969 276646.080000
   2473   2475     1   0.10969 276646.080000
   2478   2479     1   0.09730 310787.520000
   2481   2482     1   0.10969 276646.080000
   2481   2483     1   0.10969 276646.080000
   2484   2485     1   0.10969 276646.080000
   2484   2486     1   0.10969 276646.080000
   2487   2488     1   0.10969 276646.080000
   2487   2489     1   0.10969 276646.080000
   2491   2492     1   0.10969 276646.080000
   2491   2493     1   0.10969 276646.080000
   2494   2495     1   0.10969 276646.080000
   2494   2496     1   0.10969 276646.080000
   2499   2500     1   0.09730 310787.520000
   2501   2502     1   0.10969 276646.080000
   2501   2503     1   0.10969 276646.080000
   2504   2505     1   0.10969 276646.080000
   2504   2506     1   0.10969 276646.080000
   2509   2510     1   0.09730 310787.520000
   2512   2513     1   0.10969 276646.080000
   2512   2514     1   0.10969 276646.080000
   2515   2516     1   0.10969 276646.080000
   2515   2517     1   0.10969 276646.080000
   2518   2519     1   0.10969 276646.080000
   2518   2520     1   0.10969 276646.080000
   2522   2523     1   0.10969 276646.080000
   2522   2524     1   0.10969 276646.080000
   2525   2526     1   0.10969 276646.080000
   2525   2527     1   0.10969 276646.080000
   2530   2531     1   0.09730 310787.520000
   2532   2533     1   0.10969 276646.080000
   2532   2534     1   0.10969 276646.080000
   2535   2536     1   0.10969 276646.080000
   2535   2537     1   0.10969 276646.080000
   2540   2541     1   0.09730 310787.520000
   2543   2544     1   0.10969 276646.080000
   2543   2545     1   0.10969 276646.080000
   2546   2547     1   0.10969 276646.080000
   2546   2548     1   0.10969 276646.080000
   2549   2550     1   0.10969 276646.080000
   2549   2551     1   0.10969 276646.080000
   2553   2554     1   0.10969 276646.080000
   2553   2555     1   0.10969 276646.080000
   2556   2557     1   0.10969 276646.080000
   2556   2558     1   0.10969 276646.080000
   2561   2562     1   0.09730 310787.520000
   2563   2564     1   0.10969 276646.080000
   2563   2565     1   0.10969 276646.080000
   2566   2567     1   0.10969 276646.080000
   2566   2568     1   0.10969 276646.080000
   2571   2572     1   0.09730 310787.520000
   2574   2575     1   0.10969 276646.080000
   2574   2576     1   0.10969 276646.080000
   2577   2578     1   0.10969 276646.080000
   2577   2579     1   0.10969 276646.080000
   2580   2581     1   0.10969 276646.080000
   2580   2582     1   0.10969 276646.080000
   2584   2585     1   0.10969 276646.080000
   2584   2586     1   0.10969 276646.080000
   2587   2588     1   0.10969 276646.080000
   2587   2589     1   0.10969 276646.080000
   2592   2593     1   0.09730 310787.520000
   2594   2595     1   0.10969 276646.080000
   2594   2596     1   0.10969 276646.080000
   2597   2598     1   0.10969 276646.080000
   2597   2599     1   0.10969 276646.080000
   2602   2603     1   0.09730 310787.520000
   2605   2606     1   0.10969 276646.080000
   2605   2607     1   0.10969 276646.080000
   2608   2609     1   0.10969 276646.080000
   2608   2610     1   0.10969 276646.080000
   2611   2612     1   0.10969 276646.080000
   2611   2613     1   0.10969 276646.080000
   2615   2616     1   0.10969 276646.080000
   2615   2617     1   0.10969 276646.080000
   2618   2619     1   0.10969 276646.080000
   2618   2620     1   0.10969 276646.080000
   2623   2624     1   0.09730 310787.520000
   2625   2626     1   0.10969 276646.080000
   2625   2627     1   0.10969 276646.080000
   2628   2629     1   0.10969 276646.080000
   2628   2630     1   0.10969 276646.080000
   2633   2634     1   0.09730 310787.520000
   2636   2637     1   0.10969 276646.080000
   2636   2638     1   0.10969 276646.080000
   2639   2640     1   0.10969 276646.080000
   2639   2641     1   0.10969 276646.080000
   2642   2643     1   0.10969 276646.080000
   2642   2644     1   0.10969 276646.080000
   2646   2647     1   0.10969 276646.080000
   2646   2648     1   0.10969 276646.080000
   2649   2650     1   0.10969 276646.080000
   2649   2651     1   0.10969 276646.080000
   2654   2655     1   0.09730 310787.520000
   2656   2657     1   0.10969 276646.080000
   2656   2658     1   0.10969 276646.080000
   2659   2660     1   0.10969 276646.080000
   2659   2661     1   0.10969 276646.080000
   2664   2665     1   0.09730 310787.520000
   2667   2668     1   0.10969 276646.080000
   2667   2669     1   0.10969 276646.080000
   2670   2671     1   0.10969 276646.080000
   2670   2672     1   0.10969 276646.080000
   2673   2674     1   0.10969 276646.080000
   2673   2675     1   0.10969 276646.080000
   2677   2678     1   0.10969 276646.080000
   2677   2679     1   0.10969 276646.080000
   2680   2681     1   0.10969 276646.080000
   2680   2682     1   0.10969 276646.080000
   2685   2686     1   0.09730 310787.520000
   2687   2688     1   0.10969 276646.080000
   2687   2689     1   0.10969 276646.080000
   2690   2691     1   0.10969 276646.080000
   2690   2692     1   0.10969 276646.080000
   2695   2696     1   0.09730 310787.520000
   2698   2699     1   0.10969 276646.080000
   2698   2700     1   0.10969 276646.080000
   2701   2702     1   0.10969 276646.080000
   2701   2703     1   0.10969 276646.080000
   2704   2705     1   0.10969 276646.080000
   2704   2706     1   0.10969 276646.080000
   2708   2709     1   0.10969 276646.080000
   2708   2710     1   0.10969 276646.080000
   2711   2712     1   0.10969 276646.080000
   2711   2713     1   0.10969 276646.080000
   2716   2717     1   0.09730 310787.520000
   2718   2719     1   0.10969 276646.080000
   2718   2720     1   0.10969 276646.080000
   2721   2722     1   0.10969 276646.080000
   2721   2723     1   0.10969 276646.080000
   2726   2727     1   0.09730 310787.520000
   2729   2730     1   0.10969 276646.080000
   2729   2731     1   0.10969 276646.080000
   2732   2733     1   0.10969 276646.080000
   2732   2734     1   0.10969 276646.080000
   2735   2736     1   0.10969 276646.080000
   2735   2737     1   0.10969 276646.080000
   2739   2740     1   0.10969 276646.080000
   2739   2741     1   0.10969 276646.080000
   2742   2743     1   0.10969 276646.080000
   2742   2744     1   0.10969 276646.080000
   2747   2748     1   0.09730 310787.520000
   2749   2750     1   0.10969 276646.080000
   2749   2751     1   0.10969 276646.080000
   2752   2753     1   0.10969 276646.080000
   2752   2754     1   0.10969 276646.080000
   2757   2758     1   0.09730 310787.520000
   2760   2761     1   0.10969 276646.080000
   2760   2762     1   0.10969 276646.080000
   2763   2764     1   0.10969 276646.080000
   2763   2765     1   0.10969 276646.080000
   2766   2767     1   0.10969 276646.080000
   2766   2768     1   0.10969 276646.080000
   2770   2771     1   0.10969 276646.080000
   2770   2772     1   0.10969 276646.080000
   2773   2774     1   0.10969 276646.080000
   2773   2775     1   0.10969 276646.080000
   2778   2779     1   0.09730 310787.520000
   2780   2781     1   0.10969 276646.080000
   2780   2782     1   0.10969 276646.080000
   2783   2784     1   0.10969 276646.080000
   2783   2785     1   0.10969 276646.080000
   2788   2789     1   0.09730 310787.520000
   2791   2792     1   0.10969 276646.080000
   2791   2793     1   0.10969 276646.080000
   2794   2795     1   0.10969 276646.080000
   2794   2796     1   0.10969 276646.080000
   2797   2798     1   0.10969 276646.080000
   2797   2799     1   0.10969 276646.080000
   2801   2802     1   0.10969 276646.080000
   2801   2803     1   0.10969 276646.080000
   2804   2805     1   0.10969 276646.080000
   2804   2806     1   0.10969 276646.080000
   2809   2810     1   0.09730 310787.520000
   2811   2812     1   0.10969 276646.080000
   2811   2813     1   0.10969 276646.080000
   2814   2815     1   0.10969 276646.080000
   2814   2816     1   0.10969 276646.080000
   2819   2820     1   0.09730 310787.520000

[ pairs ]
;    ai     aj funct         c0         c1         c2         c3
      1     26     1
      1     20     1
      1     23     1
      2     17     1
      2     11     1
      2    115     1
      5     14     1
      5     11     1
      5     57     1
      8     14     1
      8     17     1
      8     86     1
     11     77     1
     14    106     1
     17     48     1
     20     39     1
     23     68     1
     26     97     1
     29     54     1
     29     51     1
     29     48     1
     30     45     1
     30     39     1
     30    173     1
     33     42     1
     33     39     1
     33    144     1
     36     42     1
     36     45     1
     36     57     1
     42    164     1
     45    135     1
     51    126     1
     54    155     1
     58     83     1
     58     80     1
     58     77     1
     59     74     1
     59     68     1
     59    231     1
     62     71     1
     62     68     1
     62    202     1
     65     71     1
     65     74     1
     65     86     1
     71    222     1
     74    193     1
     80    184     1
     83    213     1
     87    112     1
     87    109     1
     87    106     1
     88    103     1
     88     97     1
     88    289     1
     91    100     1
     91     97     1
     91    260     1
     94    100     1
     94    103     1
     94    115     1
    100    280     1
    103    251     1
    109    242     1
    112    271     1
    116    141     1
    116    138     1
    116    135     1
    117    132     1
    117    126     1
    117    347     1
    120    129     1
    120    126     1
    120    318     1
    123    129     1
    123    132     1
    123    144     1
    129    338     1
    132    309     1
    138    300     1
    141    329     1
    145    170     1
    145    167     1
    145    164     1
    146    161     1
    146    155     1
    146    405     1
    149    158     1
    149    155     1
    149    376     1
    152    158     1
    152    161     1
    152    173     1
    158    396     1
    161    367     1
    167    358     1
    170    387     1
    174    199     1
    174    196     1
    174    193     1
    175    190     1
    175    184     1
    175    463     1
    178    187     1
    178    184     1
    178    434     1
    181    187     1
    181    190     1
    181    202     1
    187    454     1
    190    425     1
    196    416     1
    199    445     1
    203    228     1
    203    225     1
    203    222     1
    204    219     1
    204    213     1
    204    521     1
    207    216     1
    207    213     1
    207    492     1
    210    216     1
    210    219     1
    210    231     1
    216    512     1
    219    483     1
    225    474     1
    228    503     1
    232    257     1
    232    254     1
    232    251     1
    233    248     1
    233    242     1
    233    579     1
    236    245     1
    236    242     1
    236    550     1
    239    245     1
    239    248     1
    239    260     1
    245    570     1
    248    541     1
    254    532     1
    257    561     1
    261    286     1
    261    283     1
    261    280     1
    262    277     1
    262    271     1
    262    637     1
    265    274     1
    265    271     1
    265    608     1
    268    274     1
    268    277     1
    268    289     1
    274    628     1
    277    599     1
    283    590     1
    286    619     1
    290    315     1
    290    312     1
    290    309     1
    291    306     1
    291    300     1
    291    695     1
    294    303     1
    294    300     1
    294    666     1
    297    303     1
    297    306     1
    297    318     1
    303    686     1
    306    657     1
    312    648     1
    315    677     1
    319    344     1
    319    341     1
    319    338     1
    320    335     1
    320    329     1
    320    753     1
    323    332     1
    323    329     1
    323    724     1
    326    332     1
    326    335     1
    326    347     1
    332    744     1
    335    715     1
    341    706     1
    344    735     1
    348    373     1
    348    370     1
    348    367     1
    349    364     1
    349    358     1
    349    811     1
    352    361     1
    352    358     1
    352    782     1
    355    361     1
    355    364     1
    355    376     1
    361    802     1
    364    773     1
    370    764     1
    373    793     1
    377    402     1
    377    399     1
    377    396     1
    378    393     1
    378    387     1
    378    869     1
    381    390     1
    381    387     1
    381    840     1
    384    390     1
    384    393     1
    384    405     1
    390    860     1
    393    831     1
    399    822     1
    402    851     1
    406    431     1
    406    428     1
    406    425     1
    407    422     1
    407    416     1
    407    927     1
    410    419     1
    410    416     1
    410    898     1
    413    419     1
    413    422     1
    413    434     1
    419    918     1
    422    889     1
    428    880     1
    431    909     1
    435    460     1
    435    457     1
    435    454     1
    436    451     1
    436    445     1
    436    985     1
    439    448     1
    439    445     1
    439    956     1
    442    448     1
    442    451     1
    442    463     1
    448    976     1
    451    947     1
    457    938     1
    460    967     1
    464    489     1
    464    486     1
    464    483     1
    465    480     1
    465    474     1
    465   1043     1
    468    477     1
    468    474     1
    468   1014     1
    471    477     1
    471    480     1
    471    492     1
    477   1034     1
    480   1005     1
    486    996     1
    489   1025     1
    493    518     1
    493    515     1
    493    512     1
    494    509     1
    494    503     1
    494   1101     1
    497    506     1
    497    503     1
    497   1072     1
    500    506     1
    500    509     1
    500    521     1
    506   1092     1
    509   1063     1
    515   1054     1
    518   1083     1
    522    547     1
    522    544     1
    522    541     1
    523    538     1
    523    532     1
    523   1159     1
    526    535     1
    526    532     1
    526   1130     1
    529    535     1
    529    538     1
    529    550     1
    535   1150     1
    538   1121     1
    544   1112     1
    547   1141     1
    551    576     1
    551    573     1
    551    570     1
    552    567     1
    552    561     1
    552   1217     1
    555    564     1
    555    561     1
    555   1188     1
    558    564     1
    558    567     1
    558    579     1
    564   1208     1
    567   1179     1
    573   1170     1
    576   1199     1
    580    605     1
    580    602     1
    580    599     1
    581    596     1
    581    590     1
    581   1275     1
    584    593     1
    584    590     1
    584   1246     1
    587    593     1
    587    596     1
    587    608     1
    593   1266     1
    596   1237     1
    602   1228     1
    605   1257     1
    609    634     1
    609    631     1
    609    628     1
    610    625     1
    610    619     1
    610   1333     1
    613    622     1
    613    619     1
    613   1304     1
    616    622     1
    616    625     1
    616    637     1
    622   1324     1
    625   1295     1
    631   1286     1
    634   1315     1
    638    663     1
    638    660     1
    638    657     1
    639    654     1
    639    648     1
    639   1395     1
    642    651     1
    642    648     1
    642   1364     1
    645    651     1
    645    654     1
    645    666     1
    651   1365     1
    654   1334     1
    660   1337     1
    663   1368     1
    667    692     1
    667    689     1
    667    686     1
    668    683     1
    668    677     1
    668   1457     1
    671    680     1
    671    677     1
    671   1426     1
    674    680     1
    674    683     1
    674    695     1
    680   1427     1
    683   1396     1
    689   1399     1
    692   1430     1
    696    721     1
    696    718     1
    696    715     1
    697    712     1
    697    706     1
    697   1519     1
    700    709     1
    700    706     1
    700   1488     1
    703    709     1
    703    712     1
    703    724     1
    709   1489     1
    712   1458     1
    718   1461     1
    721   1492     1
    725    750     1
    725    747     1
    725    744     1
    726    741     1
    726    735     1
    726   1581     1
    729    738     1
    729    735     1
    729   1550     1
    732    738     1
    732    741     1
    732    753     1
    738   1551     1
    741   1520     1
    747   1523     1
    750   1554     1
    754    779     1
    754    776     1
    754    773     1
    755    770     1
    755    764     1
    755   1643     1
    758    767     1
    758    764     1
    758   1612     1
    761    767     1
    761    770     1
    761    782     1
    767   1613     1
    770   1582     1
    776   1585     1
    779   1616     1
    783    808     1
    783    805     1
    783    802     1
    784    799     1
    784    793     1
    784   1705     1
    787    796     1
    787    793     1
    787   1674     1
    790    796     1
    790    799     1
    790    811     1
    796   1675     1
    799   1644     1
    805   1647     1
    808   1678     1
    812    837     1
    812    834     1
    812    831     1
    813    828     1
    813    822     1
    813   1767     1
    816    825     1
    816    822     1
    816   1736     1
    819    825     1
    819    828     1
    819    840     1
    825   1737     1
    828   1706     1
    834   1709     1
    837   1740     1
    841    866     1
    841    863     1
    841    860     1
    842    857     1
    842    851     1
    842   1829     1
    845    854     1
    845    851     1
    845   1798     1
    848    854     1
    848    857     1
    848    869     1
    854   1799     1
    857   1768     1
    863   1771     1
    866   1802     1
    870    895     1
    870    892     1
    870    889     1
    871    886     1
    871    880     1
    871   1891     1
    874    883     1
    874    880     1
    874   1860     1
    877    883     1
    877    886     1
    877    898     1
    883   1861     1
    886   1830     1
    892   1833     1
    895   1864     1
    899    924     1
    899    921     1
    899    918     1
    900    915     1
    900    909     1
    900   1953     1
    903    912     1
    903    909     1
    903   1922     1
    906    912     1
    906    915     1
    906    927     1
    912   1923     1
    915   1892     1
    921   1895     1
    924   1926     1
    928    953     1
    928    950     1
    928    947     1
    929    944     1
    929    938     1
    929   2015     1
    932    941     1
    932    938     1
    932   1984     1
    935    941     1
    935    944     1
    935    956     1
    941   1985     1
    944   1954     1
    950   1957     1
    953   1988     1
    957    982     1
    957    979     1
    957    976     1
    958    973     1
    958    967     1
    958   2077     1
    961    970     1
    961    967     1
    961   2046     1
    964    970     1
    964    973     1
    964    985     1
    970   2047     1
    973   2016     1
    979   2019     1
    982   2050     1
    986   1011     1
    986   1008     1
    986   1005     1
    987   1002     1
    987    996     1
    987   2139     1
    990    999     1
    990    996     1
    990   2108     1
    993    999     1
    993   1002     1
    993   1014     1
    999   2109     1
   1002   2078     1
   1008   2081     1
   1011   2112     1
   1015   1040     1
   1015   1037     1
   1015   1034     1
   1016   1031     1
   1016   1025     1
   1016   2201     1
   1019   1028     1
   1019   1025     1
   1019   2170     1
   1022   1028     1
   1022   1031     1
   1022   1043     1
   1028   2171     1
   1031   2140     1
   1037   2143     1
   1040   2174     1
   1044   1069     1
   1044   1066     1
   1044   1063     1
   1045   1060     1
   1045   1054     1
   1045   2263     1
   1048   1057     1
   1048   1054     1
   1048   2232     1
   1051   1057     1
   1051   1060     1
   1051   1072     1
   1057   2233     1
   1060   2202     1
   1066   2205     1
   1069   2236     1
   1073   1098     1
   1073   1095     1
   1073   1092     1
   1074   1089     1
   1074   1083     1
   1074   2325     1
   1077   1086     1
   1077   1083     1
   1077   2294     1
   1080   1086     1
   1080   1089     1
   1080   1101     1
   1086   2295     1
   1089   2264     1
   1095   2267     1
   1098   2298     1
   1102   1127     1
   1102   1124     1
   1102   1121     1
   1103   1118     1
   1103   1112     1
   1103   2387     1
   1106   1115     1
   1106   1112     1
   1106   2356     1
   1109   1115     1
   1109   1118     1
   1109   1130     1
   1115   2357     1
   1118   2326     1
   1124   2329     1
   1127   2360     1
   1131   1156     1
   1131   1153     1
   1131   1150     1
   1132   1147     1
   1132   1141     1
   1132   2449     1
   1135   1144     1
   1135   1141     1
   1135   2418     1
   1138   1144     1
   1138   1147     1
   1138   1159     1
   1144   2419     1
   1147   2388     1
   1153   2391     1
   1156   2422     1
   1160   1185     1
   1160   1182     1
   1160   1179     1
   1161   1176     1
   1161   1170     1
   1161   2511     1
   1164   1173     1
   1164   1170     1
   1164   2480     1
   1167   1173     1
   1167   1176     1
   1167   1188     1
   1173   2481     1
   1176   2450     1
   1182   2453     1
   1185   2484     1
   1189   1214     1
   1189   1211     1
   1189   1208     1
   1190   1205     1
   1190   1199     1
   1190   2573     1
   1193   1202     1
   1193   1199     1
   1193   2542     1
   1196   1202     1
   1196   1205     1
   1196   1217     1
   1202   2543     1
   1205   2512     1
   1211   2515     1
   1214   2546     1
   1218   1243     1
   1218   1240     1
   1218   1237     1
   1219   1234     1
   1219   1228     1
   1219   2635     1
   1222   1231     1
   1222   1228     1
   1222   2604     1
   1225   1231     1
   1225   1234     1
   1225   1246     1
   1231   2605     1
   1234   2574     1
   1240   2577     1
   1243   2608     1
   1247   1272     1
   1247   1269     1
   1247   1266     1
   1248   1263     1
   1248   1257     1
   1248   2697     1
   1251   1260     1
   1251   1257     1
   1251   2666     1
   1254   1260     1
   1254   1263     1
   1254   1275     1
   1260   2667     1
   1263   2636     1
   1269   2639     1
   1272   2670     1
   1276   1301     1
   1276   1298     1
   1276   1295     1
   1277   1292     1
   1277   1286     1
   1277   2759     1
   1280   1289     1
   1280   1286     1
   1280   2728     1
   1283   1289     1
   1283   1292     1
   1283   1304     1
   1289   2729     1
   1292   2698     1
   1298   2701     1
   1301   2732     1
   1305   1330     1
   1305   1327     1
   1305   1324     1
   1306   1321     1
   1306   1315     1
   1306   2821     1
   1309   1318     1
   1309   1315     1
   1309   2790     1
   1312   1318     1
   1312   1321     1
   1312   1333     1
   1318   2791     1
   1321   2760     1
   1327   2763     1
   1330   2794     1
   1334   1343     1
   1337   1344     1
   1337   1354     1
   1340   1364     1
   1340   1347     1
   1340   1357     1
   1343   1350     1
   1343   1360     1
   1344   1357     1
   1344   1351     1
   1344   1352     1
   1347   1354     1
   1354   1361     1
   1354   1362     1
   1365   1374     1
   1368   1375     1
   1368   1385     1
   1371   1378     1
   1371   1388     1
   1371   1395     1
   1374   1381     1
   1374   1391     1
   1375   1382     1
   1375   1383     1
   1375   1388     1
   1378   1385     1
   1385   1392     1
   1385   1393     1
   1396   1405     1
   1399   1406     1
   1399   1416     1
   1402   1426     1
   1402   1409     1
   1402   1419     1
   1405   1412     1
   1405   1422     1
   1406   1419     1
   1406   1413     1
   1406   1414     1
   1409   1416     1
   1416   1423     1
   1416   1424     1
   1427   1436     1
   1430   1437     1
   1430   1447     1
   1433   1440     1
   1433   1450     1
   1433   1457     1
   1436   1443     1
   1436   1453     1
   1437   1444     1
   1437   1445     1
   1437   1450     1
   1440   1447     1
   1447   1454     1
   1447   1455     1
   1458   1467     1
   1461   1468     1
   1461   1478     1
   1464   1488     1
   1464   1471     1
   1464   1481     1
   1467   1474     1
   1467   1484     1
   1468   1481     1
   1468   1475     1
   1468   1476     1
   1471   1478     1
   1478   1485     1
   1478   1486     1
   1489   1498     1
   1492   1499     1
   1492   1509     1
   1495   1502     1
   1495   1512     1
   1495   1519     1
   1498   1505     1
   1498   1515     1
   1499   1506     1
   1499   1507     1
   1499   1512     1
   1502   1509     1
   1509   1516     1
   1509   1517     1
   1520   1529     1
   1523   1530     1
   1523   1540     1
   1526   1550     1
   1526   1533     1
   1526   1543     1
   1529   1536     1
   1529   1546     1
   1530   1543     1
   1530   1537     1
   1530   1538     1
   1533   1540     1
   1540   1547     1
   1540   1548     1
   1551   1560     1
   1554   1561     1
   1554   1571     1
   1557   1564     1
   1557   1574     1
   1557   1581     1
   1560   1567     1
   1560   1577     1
   1561   1568     1
   1561   1569     1
   1561   1574     1
   1564   1571     1
   1571   1578     1
   1571   1579     1
   1582   1591     1
   1585   1592     1
   1585   1602     1
   1588   1612     1
   1588   1595     1
   1588   1605     1
   1591   1598     1
   1591   1608     1
   1592   1605     1
   1592   1599     1
   1592   1600     1
   1595   1602     1
   1602   1609     1
   1602   1610     1
   1613   1622     1
   1616   1623     1
   1616   1633     1
   1619   1626     1
   1619   1636     1
   1619   1643     1
   1622   1629     1
   1622   1639     1
   1623   1630     1
   1623   1631     1
   1623   1636     1
   1626   1633     1
   1633   1640     1
   1633   1641     1
   1644   1653     1
   1647   1654     1
   1647   1664     1
   1650   1674     1
   1650   1657     1
   1650   1667     1
   1653   1660     1
   1653   1670     1
   1654   1667     1
   1654   1661     1
   1654   1662     1
   1657   1664     1
   1664   1671     1
   1664   1672     1
   1675   1684     1
   1678   1685     1
   1678   1695     1
   1681   1688     1
   1681   1698     1
   1681   1705     1
   1684   1691     1
   1684   1701     1
   1685   1692     1
   1685   1693     1
   1685   1698     1
   1688   1695     1
   1695   1702     1
   1695   1703     1
   1706   1715     1
   1709   1716     1
   1709   1726     1
   1712   1736     1
   1712   1719     1
   1712   1729     1
   1715   1722     1
   1715   1732     1
   1716   1729     1
   1716   1723     1
   1716   1724     1
   1719   1726     1
   1726   1733     1
   1726   1734     1
   1737   1746     1
   1740   1747     1
   1740   1757     1
   1743   1750     1
   1743   1760     1
   1743   1767     1
   1746   1753     1
   1746   1763     1
   1747   1754     1
   1747   1755     1
   1747   1760     1
   1750   1757     1
   1757   1764     1
   1757   1765     1
   1768   1777     1
   1771   1778     1
   1771   1788     1
   1774   1798     1
   1774   1781     1
   1774   1791     1
   1777   1784     1
   1777   1794     1
   1778   1791     1
   1778   1785     1
   1778   1786     1
   1781   1788     1
   1788   1795     1
   1788   1796     1
   1799   1808     1
   1802   1809     1
   1802   1819     1
   1805   1812     1
   1805   1822     1
   1805   1829     1
   1808   1815     1
   1808   1825     1
   1809   1816     1
   1809   1817     1
   1809   1822     1
   1812   1819     1
   1819   1826     1
   1819   1827     1
   1830   1839     1
   1833   1840     1
   1833   1850     1
   1836   1860     1
   1836   1843     1
   1836   1853     1
   1839   1846     1
   1839   1856     1
   1840   1853     1
   1840   1847     1
   1840   1848     1
   1843   1850     1
   1850   1857     1
   1850   1858     1
   1861   1870     1
   1864   1871     1
   1864   1881     1
   1867   1874     1
   1867   1884     1
   1867   1891     1
   1870   1877     1
   1870   1887     1
   1871   1878     1
   1871   1879     1
   1871   1884     1
   1874   1881     1
   1881   1888     1
   1881   1889     1
   1892   1901     1
   1895   1902     1
   1895   1912     1
   1898   1922     1
   1898   1905     1
   1898   1915     1
   1901   1908     1
   1901   1918     1
   1902   1915     1
   1902   1909     1
   1902   1910     1
   1905   1912     1
   1912   1919     1
   1912   1920     1
   1923   1932     1
   1926   1933     1
   1926   1943     1
   1929   1936     1
   1929   1946     1
   1929   1953     1
   1932   1939     1
   1932   1949     1
   1933   1940     1
   1933   1941     1
   1933   1946     1
   1936   1943     1
   1943   1950     1
   1943   1951     1
   1954   1963     1
   1957   1964     1
   1957   1974     1
   1960   1984     1
   1960   1967     1
   1960   1977     1
   1963   1970     1
   1963   1980     1
   1964   1977     1
   1964   1971     1
   1964   1972     1
   1967   1974     1
   1974   1981     1
   1974   1982     1
   1985   1994     1
   1988   1995     1
   1988   2005     1
   1991   1998     1
   1991   2008     1
   1991   2015     1
   1994   2001     1
   1994   2011     1
   1995   2002     1
   1995   2003     1
   1995   2008     1
   1998   2005     1
   2005   2012     1
   2005   2013     1
   2016   2025     1
   2019   2026     1
   2019   2036     1
   2022   2046     1
   2022   2029     1
   2022   2039     1
   2025   2032     1
   2025   2042     1
   2026   2039     1
   2026   2033     1
   2026   2034     1
   2029   2036     1
   2036   2043     1
   2036   2044     1
   2047   2056     1
   2050   2057     1
   2050   2067     1
   2053   2060     1
   2053   2070     1
   2053   2077     1
   2056   2063     1
   2056   2073     1
   2057   2064     1
   2057   2065     1
   2057   2070     1
   2060   2067     1
   2067   2074     1
   2067   2075     1
   2078   2087     1
   2081   2088     1
   2081   2098     1
   2084   2108     1
   2084   2091     1
   2084   2101     1
   2087   2094     1
   2087   2104     1
   2088   2101     1
   2088   2095     1
   2088   2096     1
   2091   2098     1
   2098   2105     1
   2098   2106     1
   2109   2118     1
   2112   2119     1
   2112   2129     1
   2115   2122     1
   2115   2132     1
   2115   2139     1
   2118   2125     1
   2118   2135     1
   2119   2126     1
   2119   2127     1
   2119   2132     1
   2122   2129     1
   2129   2136     1
   2129   2137     1
   2140   2149     1
   2143   2150     1
   2143   2160     1
   2146   2170     1
   2146   2153     1
   2146   2163     1
   2149   2156     1
   2149   2166     1
   2150   2163     1
   2150   2157     1
   2150   2158     1
   2153   2160     1
   2160   2167     1
   2160   2168     1
   2171   2180     1
   2174   2181     1
   2174   2191     1
   2177   2184     1
   2177   2194     1
   2177   2201     1
   2180   2187     1
   2180   2197     1
   2181   2188     1
   2181   2189     1
   2181   2194     1
   2184   2191     1
   2191   2198     1
   2191   2199     1
   2202   2211     1
   2205   2212     1
   2205   2222     1
   2208   2232     1
   2208   2215     1
   2208   2225     1
   2211   2218     1
   2211   2228     1
   2212   2225     1
   2212   2219     1
   2212   2220     1
   2215   2222     1
   2222   2229     1
   2222   2230     1
   2233   2242     1
   2236   2243     1
   2236   2253     1
   2239   2246     1
   2239   2256     1
   2239   2263     1
   2242   2249     1
   2242   2259     1
   2243   2250     1
   2243   2251     1
   2243   2256     1
   2246   2253     1
   2253   2260     1
   2253   2261     1
   2264   2273     1
   2267   2274     1
   2267   2284     1
   2270   2294     1
   2270   2277     1
   2270   2287     1
   2273   2280     1
   2273   2290     1
   2274   2287     1
   2274   2281     1
   2274   2282     1
   2277   2284     1
   2284   2291     1
   2284   2292     1
   2295   2304     1
   2298   2305     1
   2298   2315     1
   2301   2308     1
   2301   2318     1
   2301   2325     1
   2304   2311     1
   2304   2321     1
   2305   2312     1
   2305   2313     1
   2305   2318     1
   2308   2315     1
   2315   2322     1
   2315   2323     1
   2326   2335     1
   2329   2336     1
   2329   2346     1
   2332   2356     1
   2332   2339     1
   2332   2349     1
   2335   2342     1
   2335   2352     1
   2336   2349     1
   2336   2343     1
   2336   2344     1
   2339   2346     1
   2346   2353     1
   2346   2354     1
   2357   2366     1
   2360   2367     1
   2360   2377     1
   2363   2370     1
   2363   2380     1
   2363   2387     1
   2366   2373     1
   2366   2383     1
   2367   2374     1
   2367   2375     1
   2367   2380     1
   2370   2377     1
   2377   2384     1
   2377   2385     1
   2388   2397     1
   2391   2398     1
   2391   2408     1
   2394   2418     1
   2394   2401     1
   2394   2411     1
   2397   2404     1
   2397   2414     1
   2398   2411     1
   2398   2405     1
   2398   2406     1
   2401   2408     1
   2408   2415     1
   2408   2416     1
   2419   2428     1
   2422   2429     1
   2422   2439     1
   2425   2432     1
   2425   2442     1
   2425   2449     1
   2428   2435     1
   2428   2445     1
   2429   2436     1
   2429   2437     1
   2429   2442     1
   2432   2439     1
   2439   2446     1
   2439   2447     1
   2450   2459     1
   2453   2460     1
   2453   2470     1
   2456   2480     1
   2456   2463     1
   2456   2473     1
   2459   2466     1
   2459   2476     1
   2460   2473     1
   2460   2467     1
   2460   2468     1
   2463   2470     1
   2470   2477     1
   2470   2478     1
   2481   2490     1
   2484   2491     1
   2484   2501     1
   2487   2494     1
   2487   2504     1
   2487   2511     1
   2490   2497     1
   2490   2507     1
   2491   2498     1
   2491   2499     1
   2491   2504     1
   2494   2501     1
   2501   2508     1
   2501   2509     1
   2512   2521     1
   2515   2522     1
   2515   2532     1
   2518   2542     1
   2518   2525     1
   2518   2535     1
   2521   2528     1
   2521   2538     1
   2522   2535     1
   2522   2529     1
   2522   2530     1
   2525   2532     1
   2532   2539     1
   2532   2540     1
   2543   2552     1
   2546   2553     1
   2546   2563     1
   2549   2556     1
   2549   2566     1
   2549   2573     1
   2552   2559     1
   2552   2569     1
   2553   2560     1
   2553   2561     1
   2553   2566     1
   2556   2563     1
   2563   2570     1
   2563   2571     1
   2574   2583     1
   2577   2584     1
   2577   2594     1
   2580   2604     1
   2580   2587     1
   2580   2597     1
   2583   2590     1
   2583   2600     1
   2584   2597     1
   2584   2591     1
   2584   2592     1
   2587   2594     1
   2594   2601     1
   2594   2602     1
   2605   2614     1
   2608   2615     1
   2608   2625     1
   2611   2618     1
   2611   2628     1
   2611   2635     1
   2614   2621     1
   2614   2631     1
   2615   2622     1
   2615   2623     1
   2615   2628     1
   2618   2625     1
   2625   2632     1
   2625   2633     1
   2636   2645     1
   2639   2646     1
   2639   2656     1
   2642   2666     1
   2642   2649     1
   2642   2659     1
   2645   2652     1
   2645   2662     1
   2646   2659     1
   2646   2653     1
   2646   2654     1
   2649   2656     1
   2656   2663     1
   2656   2664     1
   2667   2676     1
   2670   2677     1
   2670   2687     1
   2673   2680     1
   2673   2690     1
   2673   2697     1
   2676   2683     1
   2676   2693     1
   2677   2684     1
   2677   2685     1
   2677   2690     1
   2680   2687     1
   2687   2694     1
   2687   2695     1
   2698   2707     1
   2701   2708     1
   2701   2718     1
   2704   2728     1
   2704   2711     1
   2704   2721     1
   2707   2714     1
   2707   2724     1
   2708   2721     1
   2708   2715     1
   2708   2716     1
   2711   2718     1
   2718   2725     1
   2718   2726     1
   2729   2738     1
   2732   2739     1
   2732   2749     1
   2735   2742     1
   2735   2752     1
   2735   2759     1
   2738   2745     1
   2738   2755     1
   2739   2746     1
   2739   2747     1
   2739   2752     1
   2742   2749     1
   2749   2756     1
   2749   2757     1
   2760   2769     1
   2763   2770     1
   2763   2780     1
   2766   2790     1
   2766   2773     1
   2766   2783     1
   2769   2776     1
   2769   2786     1
   2770   2783     1
   2770   2777     1
   2770   2778     1
   2773   2780     1
   2780   2787     1
   2780   2788     1
   2791   2800     1
   2794   2801     1
   2794   2811     1
   2797   2804     1
   2797   2814     1
   2797   2821     1
   2800   2807     1
   2800   2817     1
   2801   2808     1
   2801   2809     1
   2801   2814     1
   2804   2811     1
   2811   2818     1
   2811   2819     1
      1     15     1
      1     16     1
      1     18     1
      1     19     1
      1     12     1
      1     13     1
      2      6     1
      2      7     1
      2      9     1
      2     10     1
      2     27     1
      2     28     1
      5      3     1
      8      3     1
      3     26     1
      3     15     1
      3     16     1
      5      4     1
      8      4     1
      4     26     1
      4     15     1
      4     16     1
      5      9     1
      5     10     1
      5     21     1
      5     22     1
      8      6     1
      6     20     1
      6     18     1
      6     19     1
      8      7     1
      7     20     1
      7     18     1
      7     19     1
      8     24     1
      8     25     1
      9     23     1
      9     12     1
      9     13     1
     10     23     1
     10     12     1
     10     13     1
     12     86     1
     12     24     1
     12     25     1
     13     86     1
     13     24     1
     13     25     1
     15    115     1
     15     27     1
     15     28     1
     16    115     1
     16     27     1
     16     28     1
     18     57     1
     18     21     1
     18     22     1
     19     57     1
     19     21     1
     19     22     1
     20     49     1
     20     50     1
     21     48     1
     22     48     1
     23     78     1
     23     79     1
     24     77     1
     25     77     1
     26    107     1
     26    108     1
     27    106     1
     28    106     1
     29     43     1
     29     44     1
     29     46     1
     29     47     1
     29     40     1
     29     41     1
     30     34     1
     30     35     1
     30     37     1
     30     38     1
     30     55     1
     30     56     1
     31     33     1
     31     36     1
     31     54     1
     31     43     1
     31     44     1
     32     33     1
     32     36     1
     32     54     1
     32     43     1
     32     44     1
     33     37     1
     33     38     1
     33     52     1
     33     53     1
     34     36     1
     34     51     1
     34     46     1
     34     47     1
     35     36     1
     35     51     1
     35     46     1
     35     47     1
     36     49     1
     36     50     1
     37     48     1
     37     40     1
     37     41     1
     38     48     1
     38     40     1
     38     41     1
     40     57     1
     40     49     1
     40     50     1
     41     57     1
     41     49     1
     41     50     1
     43    173     1
     43     55     1
     43     56     1
     44    173     1
     44     55     1
     44     56     1
     46    144     1
     46     52     1
     46     53     1
     47    144     1
     47     52     1
     47     53     1
     51    136     1
     51    137     1
     52    135     1
     53    135     1
     54    165     1
     54    166     1
     55    164     1
     56    164     1
     58     72     1
     58     73     1
     58     75     1
     58     76     1
     58     69     1
     58     70     1
     59     63     1
     59     64     1
     59     66     1
     59     67     1
     59     84     1
     59     85     1
     60     62     1
     60     65     1
     60     83     1
     60     72     1
     60     73     1
     61     62     1
     61     65     1
     61     83     1
     61     72     1
     61     73     1
     62     66     1
     62     67     1
     62     81     1
     62     82     1
     63     65     1
     63     80     1
     63     75     1
     63     76     1
     64     65     1
     64     80     1
     64     75     1
     64     76     1
     65     78     1
     65     79     1
     66     77     1
     66     69     1
     66     70     1
     67     77     1
     67     69     1
     67     70     1
     69     86     1
     69     78     1
     69     79     1
     70     86     1
     70     78     1
     70     79     1
     72    231     1
     72     84     1
     72     85     1
     73    231     1
     73     84     1
     73     85     1
     75    202     1
     75     81     1
     75     82     1
     76    202     1
     76     81     1
     76     82     1
     80    194     1
     80    195     1
     81    193     1
     82    193     1
     83    223     1
     83    224     1
     84    222     1
     85    222     1
     87    101     1
     87    102     1
     87    104     1
     87    105     1
     87     98     1
     87     99     1
     88     92     1
     88     93     1
     88     95     1
     88     96     1
     88    113     1
     88    114     1
     89     91     1
     89     94     1
     89    112     1
     89    101     1
     89    102     1
     90     91     1
     90     94     1
     90    112     1
     90    101     1
     90    102     1
     91     95     1
     91     96     1
     91    110     1
     91    111     1
     92     94     1
     92    109     1
     92    104     1
     92    105     1
     93     94     1
     93    109     1
     93    104     1
     93    105     1
     94    107     1
     94    108     1
     95    106     1
     95     98     1
     95     99     1
     96    106     1
     96     98     1
     96     99     1
     98    115     1
     98    107     1
     98    108     1
     99    115     1
     99    107     1
     99    108     1
    101    289     1
    101    113     1
    101    114     1
    102    289     1
    102    113     1
    102    114     1
    104    260     1
    104    110     1
    104    111     1
    105    260     1
    105    110     1
    105    111     1
    109    252     1
    109    253     1
    110    251     1
    111    251     1
    112    281     1
    112    282     1
    113    280     1
    114    280     1
    116    130     1
    116    131     1
    116    133     1
    116    134     1
    116    127     1
    116    128     1
    117    121     1
    117    122     1
    117    124     1
    117    125     1
    117    142     1
    117    143     1
    118    120     1
    118    123     1
    118    141     1
    118    130     1
    118    131     1
    119    120     1
    119    123     1
    119    141     1
    119    130     1
    119    131     1
    120    124     1
    120    125     1
    120    139     1
    120    140     1
    121    123     1
    121    138     1
    121    133     1
    121    134     1
    122    123     1
    122    138     1
    122    133     1
    122    134     1
    123    136     1
    123    137     1
    124    135     1
    124    127     1
    124    128     1
    125    135     1
    125    127     1
    125    128     1
    127    144     1
    127    136     1
    127    137     1
    128    144     1
    128    136     1
    128    137     1
    130    347     1
    130    142     1
    130    143     1
    131    347     1
    131    142     1
    131    143     1
    133    318     1
    133    139     1
    133    140     1
    134    318     1
    134    139     1
    134    140     1
    138    310     1
    138    311     1
    139    309     1
    140    309     1
    141    339     1
    141    340     1
    142    338     1
    143    338     1
    145    159     1
    145    160     1
    145    162     1
    145    163     1
    145    156     1
    145    157     1
    146    150     1
    146    151     1
    146    153     1
    146    154     1
    146    171     1
    146    172     1
    147    149     1
    147    152     1
    147    170     1
    147    159     1
    147    160     1
    148    149     1
    148    152     1
    148    170     1
    148    159     1
    148    160     1
    149    153     1
    149    154     1
    149    168     1
    149    169     1
    150    152     1
    150    167     1
    150    162     1
    150    163     1
    151    152     1
    151    167     1
    151    162     1
    151    163     1
    152    165     1
    152    166     1
    153    164     1
    153    156     1
    153    157     1
    154    164     1
    154    156     1
    154    157     1
    156    173     1
    156    165     1
    156    166     1
    157    173     1
    157    165     1
    157    166     1
    159    405     1
    159    171     1
    159    172     1
    160    405     1
    160    171     1
    160    172     1
    162    376     1
    162    168     1
    162    169     1
    163    376     1
    163    168     1
    163    169     1
    167    368     1
    167    369     1
    168    367     1
    169    367     1
    170    397     1
    170    398     1
    171    396     1
    172    396     1
    174    188     1
    174    189     1
    174    191     1
    174    192     1
    174    185     1
    174    186     1
    175    179     1
    175    180     1
    175    182     1
    175    183     1
    175    200     1
    175    201     1
    176    178     1
    176    181     1
    176    199     1
    176    188     1
    176    189     1
    177    178     1
    177    181     1
    177    199     1
    177    188     1
    177    189     1
    178    182     1
    178    183     1
    178    197     1
    178    198     1
    179    181     1
    179    196     1
    179    191     1
    179    192     1
    180    181     1
    180    196     1
    180    191     1
    180    192     1
    181    194     1
    181    195     1
    182    193     1
    182    185     1
    182    186     1
    183    193     1
    183    185     1
    183    186     1
    185    202     1
    185    194     1
    185    195     1
    186    202     1
    186    194     1
    186    195     1
    188    463     1
    188    200     1
    188    201     1
    189    463     1
    189    200     1
    189    201     1
    191    434     1
    191    197     1
    191    198     1
    192    434     1
    192    197     1
    192    198     1
    196    426     1
    196    427     1
    197    425     1
    198    425     1
    199    455     1
    199    456     1
    200    454     1
    201    454     1
    203    217     1
    203    218     1
    203    220     1
    203    221     1
    203    214     1
    203    215     1
    204    208     1
    204    209     1
    204    211     1
    204    212     1
    204    229     1
    204    230     1
    205    207     1
    205    210     1
    205    228     1
    205    217     1
    205    218     1
    206    207     1
    206    210     1
    206    228     1
    206    217     1
    206    218     1
    207    211     1
    207    212     1
    207    226     1
    207    227     1
    208    210     1
    208    225     1
    208    220     1
    208    221     1
    209    210     1
    209    225     1
    209    220     1
    209    221     1
    210    223     1
    210    224     1
    211    222     1
    211    214     1
    211    215     1
    212    222     1
    212    214     1
    212    215     1
    214    231     1
    214    223     1
    214    224     1
    215    231     1
    215    223     1
    215    224     1
    217    521     1
    217    229     1
    217    230     1
    218    521     1
    218    229     1
    218    230     1
    220    492     1
    220    226     1
    220    227     1
    221    492     1
    221    226     1
    221    227     1
    225    484     1
    225    485     1
    226    483     1
    227    483     1
    228    513     1
    228    514     1
    229    512     1
    230    512     1
    232    246     1
    232    247     1
    232    249     1
    232    250     1
    232    243     1
    232    244     1
    233    237     1
    233    238     1
    233    240     1
    233    241     1
    233    258     1
    233    259     1
    234    236     1
    234    239     1
    234    257     1
    234    246     1
    234    247     1
    235    236     1
    235    239     1
    235    257     1
    235    246     1
    235    247     1
    236    240     1
    236    241     1
    236    255     1
    236    256     1
    237    239     1
    237    254     1
    237    249     1
    237    250     1
    238    239     1
    238    254     1
    238    249     1
    238    250     1
    239    252     1
    239    253     1
    240    251     1
    240    243     1
    240    244     1
    241    251     1
    241    243     1
    241    244     1
    243    260     1
    243    252     1
    243    253     1
    244    260     1
    244    252     1
    244    253     1
    246    579     1
    246    258     1
    246    259     1
    247    579     1
    247    258     1
    247    259     1
    249    550     1
    249    255     1
    249    256     1
    250    550     1
    250    255     1
    250    256     1
    254    542     1
    254    543     1
    255    541     1
    256    541     1
    257    571     1
    257    572     1
    258    570     1
    259    570     1
    261    275     1
    261    276     1
    261    278     1
    261    279     1
    261    272     1
    261    273     1
    262    266     1
    262    267     1
    262    269     1
    262    270     1
    262    287     1
    262    288     1
    263    265     1
    263    268     1
    263    286     1
    263    275     1
    263    276     1
    264    265     1
    264    268     1
    264    286     1
    264    275     1
    264    276     1
    265    269     1
    265    270     1
    265    284     1
    265    285     1
    266    268     1
    266    283     1
    266    278     1
    266    279     1
    267    268     1
    267    283     1
    267    278     1
    267    279     1
    268    281     1
    268    282     1
    269    280     1
    269    272     1
    269    273     1
    270    280     1
    270    272     1
    270    273     1
    272    289     1
    272    281     1
    272    282     1
    273    289     1
    273    281     1
    273    282     1
    275    637     1
    275    287     1
    275    288     1
    276    637     1
    276    287     1
    276    288     1
    278    608     1
    278    284     1
    278    285     1
    279    608     1
    279    284     1
    279    285     1
    283    600     1
    283    601     1
    284    599     1
    285    599     1
    286    629     1
    286    630     1
    287    628     1
    288    628     1
    290    304     1
    290    305     1
    290    307     1
    290    308     1
    290    301     1
    290    302     1
    291    295     1
    291    296     1
    291    298     1
    291    299     1
    291    316     1
    291    317     1
    292    294     1
    292    297     1
    292    315     1
    292    304     1
    292    305     1
    293    294     1
    293    297     1
    293    315     1
    293    304     1
    293    305     1
    294    298     1
    294    299     1
    294    313     1
    294    314     1
    295    297     1
    295    312     1
    295    307     1
    295    308     1
    296    297     1
    296    312     1
    296    307     1
    296    308     1
    297    310     1
    297    311     1
    298    309     1
    298    301     1
    298    302     1
    299    309     1
    299    301     1
    299    302     1
    301    318     1
    301    310     1
    301    311     1
    302    318     1
    302    310     1
    302    311     1
    304    695     1
    304    316     1
    304    317     1
    305    695     1
    305    316     1
    305    317     1
    307    666     1
    307    313     1
    307    314     1
    308    666     1
    308    313     1
    308    314     1
    312    658     1
    312    659     1
    313    657     1
    314    657     1
    315    687     1
    315    688     1
    316    686     1
    317    686     1
    319    333     1
    319    334     1
    319    336     1
    319    337     1
    319    330     1
    319    331     1
    320    324     1
    320    325     1
    320    327     1
    320    328     1
    320    345     1
    320    346     1
    321    323     1
    321    326     1
    321    344     1
    321    333     1
    321    334     1
    322    323     1
    322    326     1
    322    344     1
    322    333     1
    322    334     1
    323    327     1
    323    328     1
    323    342     1
    323    343     1
    324    326     1
    324    341     1
    324    336     1
    324    337     1
    325    326     1
    325    341     1
    325    336     1
    325    337     1
    326    339     1
    326    340     1
    327    338     1
    327    330     1
    327    331     1
    328    338     1
    328    330     1
    328    331     1
    330    347     1
    330    339     1
    330    340     1
    331    347     1
    331    339     1
    331    340     1
    333    753     1
    333    345     1
    333    346     1
    334    753     1
    334    345     1
    334    346     1
    336    724     1
    336    342     1
    336    343     1
    337    724     1
    337    342     1
    337    343     1
    341    716     1
    341    717     1
    342    715     1
    343    715     1
    344    745     1
    344    746     1
    345    744     1
    346    744     1
    348    362     1
    348    363     1
    348    365     1
    348    366     1
    348    359     1
    348    360     1
    349    353     1
    349    354     1
    349    356     1
    349    357     1
    349    374     1
    349    375     1
    350    352     1
    350    355     1
    350    373     1
    350    362     1
    350    363     1
    351    352     1
    351    355     1
    351    373     1
    351    362     1
    351    363     1
    352    356     1
    352    357     1
    352    371     1
    352    372     1
    353    355     1
    353    370     1
    353    365     1
    353    366     1
    354    355     1
    354    370     1
    354    365     1
    354    366     1
    355    368     1
    355    369     1
    356    367     1
    356    359     1
    356    360     1
    357    367     1
    357    359     1
    357    360     1
    359    376     1
    359    368     1
    359    369     1
    360    376     1
    360    368     1
    360    369     1
    362    811     1
    362    374     1
    362    375     1
    363    811     1
    363    374     1
    363    375     1
    365    782     1
    365    371     1
    365    372     1
    366    782     1
    366    371     1
    366    372     1
    370    774     1
    370    775     1
    371    773     1
    372    773     1
    373    803     1
    373    804     1
    374    802     1
    375    802     1
    377    391     1
    377    392     1
    377    394     1
    377    395     1
    377    388     1
    377    389     1
    378    382     1
    378    383     1
    378    385     1
    378    386     1
    378    403     1
    378    404     1
    379    381     1
    379    384     1
    379    402     1
    379    391     1
    379    392     1
    380    381     1
    380    384     1
    380    402     1
    380    391     1
    380    392     1
    381    385     1
    381    386     1
    381    400     1
    381    401     1
    382    384     1
    382    399     1
    382    394     1
    382    395     1
    383    384     1
    383    399     1
    383    394     1
    383    395     1
    384    397     1
    384    398     1
    385    396     1
    385    388     1
    385    389     1
    386    396     1
    386    388     1
    386    389     1
    388    405     1
    388    397     1
    388    398     1
    389    405     1
    389    397     1
    389    398     1
    391    869     1
    391    403     1
    391    404     1
    392    869     1
    392    403     1
    392    404     1
    394    840     1
    394    400     1
    394    401     1
    395    840     1
    395    400     1
    395    401     1
    399    832     1
    399    833     1
    400    831     1
    401    831     1
    402    861     1
    402    862     1
    403    860     1
    404    860     1
    406    420     1
    406    421     1
    406    423     1
    406    424     1
    406    417     1
    406    418     1
    407    411     1
    407    412     1
    407    414     1
    407    415     1
    407    432     1
    407    433     1
    408    410     1
    408    413     1
    408    431     1
    408    420     1
    408    421     1
    409    410     1
    409    413     1
    409    431     1
    409    420     1
    409    421     1
    410    414     1
    410    415     1
    410    429     1
    410    430     1
    411    413     1
    411    428     1
    411    423     1
    411    424     1
    412    413     1
    412    428     1
    412    423     1
    412    424     1
    413    426     1
    413    427     1
    414    425     1
    414    417     1
    414    418     1
    415    425     1
    415    417     1
    415    418     1
    417    434     1
    417    426     1
    417    427     1
    418    434     1
    418    426     1
    418    427     1
    420    927     1
    420    432     1
    420    433     1
    421    927     1
    421    432     1
    421    433     1
    423    898     1
    423    429     1
    423    430     1
    424    898     1
    424    429     1
    424    430     1
    428    890     1
    428    891     1
    429    889     1
    430    889     1
    431    919     1
    431    920     1
    432    918     1
    433    918     1
    435    449     1
    435    450     1
    435    452     1
    435    453     1
    435    446     1
    435    447     1
    436    440     1
    436    441     1
    436    443     1
    436    444     1
    436    461     1
    436    462     1
    437    439     1
    437    442     1
    437    460     1
    437    449     1
    437    450     1
    438    439     1
    438    442     1
    438    460     1
    438    449     1
    438    450     1
    439    443     1
    439    444     1
    439    458     1
    439    459     1
    440    442     1
    440    457     1
    440    452     1
    440    453     1
    441    442     1
    441    457     1
    441    452     1
    441    453     1
    442    455     1
    442    456     1
    443    454     1
    443    446     1
    443    447     1
    444    454     1
    444    446     1
    444    447     1
    446    463     1
    446    455     1
    446    456     1
    447    463     1
    447    455     1
    447    456     1
    449    985     1
    449    461     1
    449    462     1
    450    985     1
    450    461     1
    450    462     1
    452    956     1
    452    458     1
    452    459     1
    453    956     1
    453    458     1
    453    459     1
    457    948     1
    457    949     1
    458    947     1
    459    947     1
    460    977     1
    460    978     1
    461    976     1
    462    976     1
    464    478     1
    464    479     1
    464    481     1
    464    482     1
    464    475     1
    464    476     1
    465    469     1
    465    470     1
    465    472     1
    465    473     1
    465    490     1
    465    491     1
    466    468     1
    466    471     1
    466    489     1
    466    478     1
    466    479     1
    467    468     1
    467    471     1
    467    489     1
    467    478     1
    467    479     1
    468    472     1
    468    473     1
    468    487     1
    468    488     1
    469    471     1
    469    486     1
    469    481     1
    469    482     1
    470    471     1
    470    486     1
    470    481     1
    470    482     1
    471    484     1
    471    485     1
    472    483     1
    472    475     1
    472    476     1
    473    483     1
    473    475     1
    473    476     1
    475    492     1
    475    484     1
    475    485     1
    476    492     1
    476    484     1
    476    485     1
    478   1043     1
    478    490     1
    478    491     1
    479   1043     1
    479    490     1
    479    491     1
    481   1014     1
    481    487     1
    481    488     1
    482   1014     1
    482    487     1
    482    488     1
    486   1006     1
    486   1007     1
    487   1005     1
    488   1005     1
    489   1035     1
    489   1036     1
    490   1034     1
    491   1034     1
    493    507     1
    493    508     1
    493    510     1
    493    511     1
    493    504     1
    493    505     1
    494    498     1
    494    499     1
    494    501     1
    494    502     1
    494    519     1
    494    520     1
    495    497     1
    495    500     1
    495    518     1
    495    507     1
    495    508     1
    496    497     1
    496    500     1
    496    518     1
    496    507     1
    496    508     1
    497    501     1
    497    502     1
    497    516     1
    497    517     1
    498    500     1
    498    515     1
    498    510     1
    498    511     1
    499    500     1
    499    515     1
    499    510     1
    499    511     1
    500    513     1
    500    514     1
    501    512     1
    501    504     1
    501    505     1
    502    512     1
    502    504     1
    502    505     1
    504    521     1
    504    513     1
    504    514     1
    505    521     1
    505    513     1
    505    514     1
    507   1101     1
    507    519     1
    507    520     1
    508   1101     1
    508    519     1
    508    520     1
    510   1072     1
    510    516     1
    510    517     1
    511   1072     1
    511    516     1
    511    517     1
    515   1064     1
    515   1065     1
    516   1063     1
    517   1063     1
    518   1093     1
    518   1094     1
    519   1092     1
    520   1092     1
    522    536     1
    522    537     1
    522    539     1
    522    540     1
    522    533     1
    522    534     1
    523    527     1
    523    528     1
    523    530     1
    523    531     1
    523    548     1
    523    549     1
    524    526     1
    524    529     1
    524    547     1
    524    536     1
    524    537     1
    525    526     1
    525    529     1
    525    547     1
    525    536     1
    525    537     1
    526    530     1
    526    531     1
    526    545     1
    526    546     1
    527    529     1
    527    544     1
    527    539     1
    527    540     1
    528    529     1
    528    544     1
    528    539     1
    528    540     1
    529    542     1
    529    543     1
    530    541     1
    530    533     1
    530    534     1
    531    541     1
    531    533     1
    531    534     1
    533    550     1
    533    542     1
    533    543     1
    534    550     1
    534    542     1
    534    543     1
    536   1159     1
    536    548     1
    536    549     1
    537   1159     1
    537    548     1
    537    549     1
    539   1130     1
    539    545     1
    539    546     1
    540   1130     1
    540    545     1
    540    546     1
    544   1122     1
    544   1123     1
    545   1121     1
    546   1121     1
    547   1151     1
    547   1152     1
    548   1150     1
    549   1150     1
    551    565     1
    551    566     1
    551    568     1
    551    569     1
    551    562     1
    551    563     1
    552    556     1
    552    557     1
    552    559     1
    552    560     1
    552    577     1
    552    578     1
    553    555     1
    553    558     1
    553    576     1
    553    565     1
    553    566     1
    554    555     1
    554    558     1
    554    576     1
    554    565     1
    554    566     1
    555    559     1
    555    560     1
    555    574     1
    555    575     1
    556    558     1
    556    573     1
    556    568     1
    556    569     1
    557    558     1
    557    573     1
    557    568     1
    557    569     1
    558    571     1
    558    572     1
    559    570     1
    559    562     1
    559    563     1
    560    570     1
    560    562     1
    560    563     1
    562    579     1
    562    571     1
    562    572     1
    563    579     1
    563    571     1
    563    572     1
    565   1217     1
    565    577     1
    565    578     1
    566   1217     1
    566    577     1
    566    578     1
    568   1188     1
    568    574     1
    568    575     1
    569   1188     1
    569    574     1
    569    575     1
    573   1180     1
    573   1181     1
    574   1179     1
    575   1179     1
    576   1209     1
    576   1210     1
    577   1208     1
    578   1208     1
    580    594     1
    580    595     1
    580    597     1
    580    598     1
    580    591     1
    580    592     1
    581    585     1
    581    586     1
    581    588     1
    581    589     1
    581    606     1
    581    607     1
    582    584     1
    582    587     1
    582    605     1
    582    594     1
    582    595     1
    583    584     1
    583    587     1
    583    605     1
    583    594     1
    583    595     1
    584    588     1
    584    589     1
    584    603     1
    584    604     1
    585    587     1
    585    602     1
    585    597     1
    585    598     1
    586    587     1
    586    602     1
    586    597     1
    586    598     1
    587    600     1
    587    601     1
    588    599     1
    588    591     1
    588    592     1
    589    599     1
    589    591     1
    589    592     1
    591    608     1
    591    600     1
    591    601     1
    592    608     1
    592    600     1
    592    601     1
    594   1275     1
    594    606     1
    594    607     1
    595   1275     1
    595    606     1
    595    607     1
    597   1246     1
    597    603     1
    597    604     1
    598   1246     1
    598    603     1
    598    604     1
    602   1238     1
    602   1239     1
    603   1237     1
    604   1237     1
    605   1267     1
    605   1268     1
    606   1266     1
    607   1266     1
    609    623     1
    609    624     1
    609    626     1
    609    627     1
    609    620     1
    609    621     1
    610    614     1
    610    615     1
    610    617     1
    610    618     1
    610    635     1
    610    636     1
    611    613     1
    611    616     1
    611    634     1
    611    623     1
    611    624     1
    612    613     1
    612    616     1
    612    634     1
    612    623     1
    612    624     1
    613    617     1
    613    618     1
    613    632     1
    613    633     1
    614    616     1
    614    631     1
    614    626     1
    614    627     1
    615    616     1
    615    631     1
    615    626     1
    615    627     1
    616    629     1
    616    630     1
    617    628     1
    617    620     1
    617    621     1
    618    628     1
    618    620     1
    618    621     1
    620    637     1
    620    629     1
    620    630     1
    621    637     1
    621    629     1
    621    630     1
    623   1333     1
    623    635     1
    623    636     1
    624   1333     1
    624    635     1
    624    636     1
    626   1304     1
    626    632     1
    626    633     1
    627   1304     1
    627    632     1
    627    633     1
    631   1296     1
    631   1297     1
    632   1295     1
    633   1295     1
    634   1325     1
    634   1326     1
    635   1324     1
    636   1324     1
    638    652     1
    638    653     1
    638    655     1
    638    656     1
    638    649     1
    638    650     1
    639    643     1
    639    644     1
    639    646     1
    639    647     1
    639    664     1
    639    665     1
    640    642     1
    640    645     1
    640    663     1
    640    652     1
    640    653     1
    641    642     1
    641    645     1
    641    663     1
    641    652     1
    641    653     1
    642    646     1
    642    647     1
    642    661     1
    642    662     1
    643    645     1
    643    660     1
    643    655     1
    643    656     1
    644    645     1
    644    660     1
    644    655     1
    644    656     1
    645    658     1
    645    659     1
    646    657     1
    646    649     1
    646    650     1
    647    657     1
    647    649     1
    647    650     1
    649    666     1
    649    658     1
    649    659     1
    650    666     1
    650    658     1
    650    659     1
    652   1395     1
    652    664     1
    652    665     1
    653   1395     1
    653    664     1
    653    665     1
    655   1364     1
    655    661     1
    655    662     1
    656   1364     1
    656    661     1
    656    662     1
    660   1335     1
    660   1336     1
    661   1334     1
    662   1334     1
    663   1366     1
    663   1367     1
    664   1365     1
    665   1365     1
    667    681     1
    667    682     1
    667    684     1
    667    685     1
    667    678     1
    667    679     1
    668    672     1
    668    673     1
    668    675     1
    668    676     1
    668    693     1
    668    694     1
    669    671     1
    669    674     1
    669    692     1
    669    681     1
    669    682     1
    670    671     1
    670    674     1
    670    692     1
    670    681     1
    670    682     1
    671    675     1
    671    676     1
    671    690     1
    671    691     1
    672    674     1
    672    689     1
    672    684     1
    672    685     1
    673    674     1
    673    689     1
    673    684     1
    673    685     1
    674    687     1
    674    688     1
    675    686     1
    675    678     1
    675    679     1
    676    686     1
    676    678     1
    676    679     1
    678    695     1
    678    687     1
    678    688     1
    679    695     1
    679    687     1
    679    688     1
    681   1457     1
    681    693     1
    681    694     1
    682   1457     1
    682    693     1
    682    694     1
    684   1426     1
    684    690     1
    684    691     1
    685   1426     1
    685    690     1
    685    691     1
    689   1397     1
    689   1398     1
    690   1396     1
    691   1396     1
    692   1428     1
    692   1429     1
    693   1427     1
    694   1427     1
    696    710     1
    696    711     1
    696    713     1
    696    714     1
    696    707     1
    696    708     1
    697    701     1
    697    702     1
    697    704     1
    697    705     1
    697    722     1
    697    723     1
    698    700     1
    698    703     1
    698    721     1
    698    710     1
    698    711     1
    699    700     1
    699    703     1
    699    721     1
    699    710     1
    699    711     1
    700    704     1
    700    705     1
    700    719     1
    700    720     1
    701    703     1
    701    718     1
    701    713     1
    701    714     1
    702    703     1
    702    718     1
    702    713     1
    702    714     1
    703    716     1
    703    717     1
    704    715     1
    704    707     1
    704    708     1
    705    715     1
    705    707     1
    705    708     1
    707    724     1
    707    716     1
    707    717     1
    708    724     1
    708    716     1
    708    717     1
    710   1519     1
    710    722     1
    710    723     1
    711   1519     1
    711    722     1
    711    723     1
    713   1488     1
    713    719     1
    713    720     1
    714   1488     1
    714    719     1
    714    720     1
    718   1459     1
    718   1460     1
    719   1458     1
    720   1458     1
    721   1490     1
    721   1491     1
    722   1489     1
    723   1489     1
    725    739     1
    725    740     1
    725    742     1
    725    743     1
    725    736     1
    725    737     1
    726    730     1
    726    731     1
    726    733     1
    726    734     1
    726    751     1
    726    752     1
    727    729     1
    727    732     1
    727    750     1
    727    739     1
    727    740     1
    728    729     1
    728    732     1
    728    750     1
    728    739     1
    728    740     1
    729    733     1
    729    734     1
    729    748     1
    729    749     1
    730    732     1
    730    747     1
    730    742     1
    730    743     1
    731    732     1
    731    747     1
    731    742     1
    731    743     1
    732    745     1
    732    746     1
    733    744     1
    733    736     1
    733    737     1
    734    744     1
    734    736     1
    734    737     1
    736    753     1
    736    745     1
    736    746     1
    737    753     1
    737    745     1
    737    746     1
    739   1581     1
    739    751     1
    739    752     1
    740   1581     1
    740    751     1
    740    752     1
    742   1550     1
    742    748     1
    742    749     1
    743   1550     1
    743    748     1
    743    749     1
    747   1521     1
    747   1522     1
    748   1520     1
    749   1520     1
    750   1552     1
    750   1553     1
    751   1551     1
    752   1551     1
    754    768     1
    754    769     1
    754    771     1
    754    772     1
    754    765     1
    754    766     1
    755    759     1
    755    760     1
    755    762     1
    755    763     1
    755    780     1
    755    781     1
    756    758     1
    756    761     1
    756    779     1
    756    768     1
    756    769     1
    757    758     1
    757    761     1
    757    779     1
    757    768     1
    757    769     1
    758    762     1
    758    763     1
    758    777     1
    758    778     1
    759    761     1
    759    776     1
    759    771     1
    759    772     1
    760    761     1
    760    776     1
    760    771     1
    760    772     1
    761    774     1
    761    775     1
    762    773     1
    762    765     1
    762    766     1
    763    773     1
    763    765     1
    763    766     1
    765    782     1
    765    774     1
    765    775     1
    766    782     1
    766    774     1
    766    775     1
    768   1643     1
    768    780     1
    768    781     1
    769   1643     1
    769    780     1
    769    781     1
    771   1612     1
    771    777     1
    771    778     1
    772   1612     1
    772    777     1
    772    778     1
    776   1583     1
    776   1584     1
    777   1582     1
    778   1582     1
    779   1614     1
    779   1615     1
    780   1613     1
    781   1613     1
    783    797     1
    783    798     1
    783    800     1
    783    801     1
    783    794     1
    783    795     1
    784    788     1
    784    789     1
    784    791     1
    784    792     1
    784    809     1
    784    810     1
    785    787     1
    785    790     1
    785    808     1
    785    797     1
    785    798     1
    786    787     1
    786    790     1
    786    808     1
    786    797     1
    786    798     1
    787    791     1
    787    792     1
    787    806     1
    787    807     1
    788    790     1
    788    805     1
    788    800     1
    788    801     1
    789    790     1
    789    805     1
    789    800     1
    789    801     1
    790    803     1
    790    804     1
    791    802     1
    791    794     1
    791    795     1
    792    802     1
    792    794     1
    792    795     1
    794    811     1
    794    803     1
    794    804     1
    795    811     1
    795    803     1
    795    804     1
    797   1705     1
    797    809     1
    797    810     1
    798   1705     1
    798    809     1
    798    810     1
    800   1674     1
    800    806     1
    800    807     1
    801   1674     1
    801    806     1
    801    807     1
    805   1645     1
    805   1646     1
    806   1644     1
    807   1644     1
    808   1676     1
    808   1677     1
    809   1675     1
    810   1675     1
    812    826     1
    812    827     1
    812    829     1
    812    830     1
    812    823     1
    812    824     1
    813    817     1
    813    818     1
    813    820     1
    813    821     1
    813    838     1
    813    839     1
    814    816     1
    814    819     1
    814    837     1
    814    826     1
    814    827     1
    815    816     1
    815    819     1
    815    837     1
    815    826     1
    815    827     1
    816    820     1
    816    821     1
    816    835     1
    816    836     1
    817    819     1
    817    834     1
    817    829     1
    817    830     1
    818    819     1
    818    834     1
    818    829     1
    818    830     1
    819    832     1
    819    833     1
    820    831     1
    820    823     1
    820    824     1
    821    831     1
    821    823     1
    821    824     1
    823    840     1
    823    832     1
    823    833     1
    824    840     1
    824    832     1
    824    833     1
    826   1767     1
    826    838     1
    826    839     1
    827   1767     1
    827    838     1
    827    839     1
    829   1736     1
    829    835     1
    829    836     1
    830   1736     1
    830    835     1
    830    836     1
    834   1707     1
    834   1708     1
    835   1706     1
    836   1706     1
    837   1738     1
    837   1739     1
    838   1737     1
    839   1737     1
    841    855     1
    841    856     1
    841    858     1
    841    859     1
    841    852     1
    841    853     1
    842    846     1
    842    847     1
    842    849     1
    842    850     1
    842    867     1
    842    868     1
    843    845     1
    843    848     1
    843    866     1
    843    855     1
    843    856     1
    844    845     1
    844    848     1
    844    866     1
    844    855     1
    844    856     1
    845    849     1
    845    850     1
    845    864     1
    845    865     1
    846    848     1
    846    863     1
    846    858     1
    846    859     1
    847    848     1
    847    863     1
    847    858     1
    847    859     1
    848    861     1
    848    862     1
    849    860     1
    849    852     1
    849    853     1
    850    860     1
    850    852     1
    850    853     1
    852    869     1
    852    861     1
    852    862     1
    853    869     1
    853    861     1
    853    862     1
    855   1829     1
    855    867     1
    855    868     1
    856   1829     1
    856    867     1
    856    868     1
    858   1798     1
    858    864     1
    858    865     1
    859   1798     1
    859    864     1
    859    865     1
    863   1769     1
    863   1770     1
    864   1768     1
    865   1768     1
    866   1800     1
    866   1801     1
    867   1799     1
    868   1799     1
    870    884     1
    870    885     1
    870    887     1
    870    888     1
    870    881     1
    870    882     1
    871    875     1
    871    876     1
    871    878     1
    871    879     1
    871    896     1
    871    897     1
    872    874     1
    872    877     1
    872    895     1
    872    884     1
    872    885     1
    873    874     1
    873    877     1
    873    895     1
    873    884     1
    873    885     1
    874    878     1
    874    879     1
    874    893     1
    874    894     1
    875    877     1
    875    892     1
    875    887     1
    875    888     1
    876    877     1
    876    892     1
    876    887     1
    876    888     1
    877    890     1
    877    891     1
    878    889     1
    878    881     1
    878    882     1
    879    889     1
    879    881     1
    879    882     1
    881    898     1
    881    890     1
    881    891     1
    882    898     1
    882    890     1
    882    891     1
    884   1891     1
    884    896     1
    884    897     1
    885   1891     1
    885    896     1
    885    897     1
    887   1860     1
    887    893     1
    887    894     1
    888   1860     1
    888    893     1
    888    894     1
    892   1831     1
    892   1832     1
    893   1830     1
    894   1830     1
    895   1862     1
    895   1863     1
    896   1861     1
    897   1861     1
    899    913     1
    899    914     1
    899    916     1
    899    917     1
    899    910     1
    899    911     1
    900    904     1
    900    905     1
    900    907     1
    900    908     1
    900    925     1
    900    926     1
    901    903     1
    901    906     1
    901    924     1
    901    913     1
    901    914     1
    902    903     1
    902    906     1
    902    924     1
    902    913     1
    902    914     1
    903    907     1
    903    908     1
    903    922     1
    903    923     1
    904    906     1
    904    921     1
    904    916     1
    904    917     1
    905    906     1
    905    921     1
    905    916     1
    905    917     1
    906    919     1
    906    920     1
    907    918     1
    907    910     1
    907    911     1
    908    918     1
    908    910     1
    908    911     1
    910    927     1
    910    919     1
    910    920     1
    911    927     1
    911    919     1
    911    920     1
    913   1953     1
    913    925     1
    913    926     1
    914   1953     1
    914    925     1
    914    926     1
    916   1922     1
    916    922     1
    916    923     1
    917   1922     1
    917    922     1
    917    923     1
    921   1893     1
    921   1894     1
    922   1892     1
    923   1892     1
    924   1924     1
    924   1925     1
    925   1923     1
    926   1923     1
    928    942     1
    928    943     1
    928    945     1
    928    946     1
    928    939     1
    928    940     1
    929    933     1
    929    934     1
    929    936     1
    929    937     1
    929    954     1
    929    955     1
    930    932     1
    930    935     1
    930    953     1
    930    942     1
    930    943     1
    931    932     1
    931    935     1
    931    953     1
    931    942     1
    931    943     1
    932    936     1
    932    937     1
    932    951     1
    932    952     1
    933    935     1
    933    950     1
    933    945     1
    933    946     1
    934    935     1
    934    950     1
    934    945     1
    934    946     1
    935    948     1
    935    949     1
    936    947     1
    936    939     1
    936    940     1
    937    947     1
    937    939     1
    937    940     1
    939    956     1
    939    948     1
    939    949     1
    940    956     1
    940    948     1
    940    949     1
    942   2015     1
    942    954     1
    942    955     1
    943   2015     1
    943    954     1
    943    955     1
    945   1984     1
    945    951     1
    945    952     1
    946   1984     1
    946    951     1
    946    952     1
    950   1955     1
    950   1956     1
    951   1954     1
    952   1954     1
    953   1986     1
    953   1987     1
    954   1985     1
    955   1985     1
    957    971     1
    957    972     1
    957    974     1
    957    975     1
    957    968     1
    957    969     1
    958    962     1
    958    963     1
    958    965     1
    958    966     1
    958    983     1
    958    984     1
    959    961     1
    959    964     1
    959    982     1
    959    971     1
    959    972     1
    960    961     1
    960    964     1
    960    982     1
    960    971     1
    960    972     1
    961    965     1
    961    966     1
    961    980     1
    961    981     1
    962    964     1
    962    979     1
    962    974     1
    962    975     1
    963    964     1
    963    979     1
    963    974     1
    963    975     1
    964    977     1
    964    978     1
    965    976     1
    965    968     1
    965    969     1
    966    976     1
    966    968     1
    966    969     1
    968    985     1
    968    977     1
    968    978     1
    969    985     1
    969    977     1
    969    978     1
    971   2077     1
    971    983     1
    971    984     1
    972   2077     1
    972    983     1
    972    984     1
    974   2046     1
    974    980     1
    974    981     1
    975   2046     1
    975    980     1
    975    981     1
    979   2017     1
    979   2018     1
    980   2016     1
    981   2016     1
    982   2048     1
    982   2049     1
    983   2047     1
    984   2047     1
    986   1000     1
    986   1001     1
    986   1003     1
    986   1004     1
    986    997     1
    986    998     1
    987    991     1
    987    992     1
    987    994     1
    987    995     1
    987   1012     1
    987   1013     1
    988    990     1
    988    993     1
    988   1011     1
    988   1000     1
    988   1001     1
    989    990     1
    989    993     1
    989   1011     1
    989   1000     1
    989   1001     1
    990    994     1
    990    995     1
    990   1009     1
    990   1010     1
    991    993     1
    991   1008     1
    991   1003     1
    991   1004     1
    992    993     1
    992   1008     1
    992   1003     1
    992   1004     1
    993   1006     1
    993   1007     1
    994   1005     1
    994    997     1
    994    998     1
    995   1005     1
    995    997     1
    995    998     1
    997   1014     1
    997   1006     1
    997   1007     1
    998   1014     1
    998   1006     1
    998   1007     1
   1000   2139     1
   1000   1012     1
   1000   1013     1
   1001   2139     1
   1001   1012     1
   1001   1013     1
   1003   2108     1
   1003   1009     1
   1003   1010     1
   1004   2108     1
   1004   1009     1
   1004   1010     1
   1008   2079     1
   1008   2080     1
   1009   2078     1
   1010   2078     1
   1011   2110     1
   1011   2111     1
   1012   2109     1
   1013   2109     1
   1015   1029     1
   1015   1030     1
   1015   1032     1
   1015   1033     1
   1015   1026     1
   1015   1027     1
   1016   1020     1
   1016   1021     1
   1016   1023     1
   1016   1024     1
   1016   1041     1
   1016   1042     1
   1017   1019     1
   1017   1022     1
   1017   1040     1
   1017   1029     1
   1017   1030     1
   1018   1019     1
   1018   1022     1
   1018   1040     1
   1018   1029     1
   1018   1030     1
   1019   1023     1
   1019   1024     1
   1019   1038     1
   1019   1039     1
   1020   1022     1
   1020   1037     1
   1020   1032     1
   1020   1033     1
   1021   1022     1
   1021   1037     1
   1021   1032     1
   1021   1033     1
   1022   1035     1
   1022   1036     1
   1023   1034     1
   1023   1026     1
   1023   1027     1
   1024   1034     1
   1024   1026     1
   1024   1027     1
   1026   1043     1
   1026   1035     1
   1026   1036     1
   1027   1043     1
   1027   1035     1
   1027   1036     1
   1029   2201     1
   1029   1041     1
   1029   1042     1
   1030   2201     1
   1030   1041     1
   1030   1042     1
   1032   2170     1
   1032   1038     1
   1032   1039     1
   1033   2170     1
   1033   1038     1
   1033   1039     1
   1037   2141     1
   1037   2142     1
   1038   2140     1
   1039   2140     1
   1040   2172     1
   1040   2173     1
   1041   2171     1
   1042   2171     1
   1044   1058     1
   1044   1059     1
   1044   1061     1
   1044   1062     1
   1044   1055     1
   1044   1056     1
   1045   1049     1
   1045   1050     1
   1045   1052     1
   1045   1053     1
   1045   1070     1
   1045   1071     1
   1046   1048     1
   1046   1051     1
   1046   1069     1
   1046   1058     1
   1046   1059     1
   1047   1048     1
   1047   1051     1
   1047   1069     1
   1047   1058     1
   1047   1059     1
   1048   1052     1
   1048   1053     1
   1048   1067     1
   1048   1068     1
   1049   1051     1
   1049   1066     1
   1049   1061     1
   1049   1062     1
   1050   1051     1
   1050   1066     1
   1050   1061     1
   1050   1062     1
   1051   1064     1
   1051   1065     1
   1052   1063     1
   1052   1055     1
   1052   1056     1
   1053   1063     1
   1053   1055     1
   1053   1056     1
   1055   1072     1
   1055   1064     1
   1055   1065     1
   1056   1072     1
   1056   1064     1
   1056   1065     1
   1058   2263     1
   1058   1070     1
   1058   1071     1
   1059   2263     1
   1059   1070     1
   1059   1071     1
   1061   2232     1
   1061   1067     1
   1061   1068     1
   1062   2232     1
   1062   1067     1
   1062   1068     1
   1066   2203     1
   1066   2204     1
   1067   2202     1
   1068   2202     1
   1069   2234     1
   1069   2235     1
   1070   2233     1
   1071   2233     1
   1073   1087     1
   1073   1088     1
   1073   1090     1
   1073   1091     1
   1073   1084     1
   1073   1085     1
   1074   1078     1
   1074   1079     1
   1074   1081     1
   1074   1082     1
   1074   1099     1
   1074   1100     1
   1075   1077     1
   1075   1080     1
   1075   1098     1
   1075   1087     1
   1075   1088     1
   1076   1077     1
   1076   1080     1
   1076   1098     1
   1076   1087     1
   1076   1088     1
   1077   1081     1
   1077   1082     1
   1077   1096     1
   1077   1097     1
   1078   1080     1
   1078   1095     1
   1078   1090     1
   1078   1091     1
   1079   1080     1
   1079   1095     1
   1079   1090     1
   1079   1091     1
   1080   1093     1
   1080   1094     1
   1081   1092     1
   1081   1084     1
   1081   1085     1
   1082   1092     1
   1082   1084     1
   1082   1085     1
   1084   1101     1
   1084   1093     1
   1084   1094     1
   1085   1101     1
   1085   1093     1
   1085   1094     1
   1087   2325     1
   1087   1099     1
   1087   1100     1
   1088   2325     1
   1088   1099     1
   1088   1100     1
   1090   2294     1
   1090   1096     1
   1090   1097     1
   1091   2294     1
   1091   1096     1
   1091   1097     1
   1095   2265     1
   1095   2266     1
   1096   2264     1
   1097   2264     1
   1098   2296     1
   1098   2297     1
   1099   2295     1
   1100   2295     1
   1102   1116     1
   1102   1117     1
   1102   1119     1
   1102   1120     1
   1102   1113     1
   1102   1114     1
   1103   1107     1
   1103   1108     1
   1103   1110     1
   1103   1111     1
   1103   1128     1
   1103   1129     1
   1104   1106     1
   1104   1109     1
   1104   1127     1
   1104   1116     1
   1104   1117     1
   1105   1106     1
   1105   1109     1
   1105   1127     1
   1105   1116     1
   1105   1117     1
   1106   1110     1
   1106   1111     1
   1106   1125     1
   1106   1126     1
   1107   1109     1
   1107   1124     1
   1107   1119     1
   1107   1120     1
   1108   1109     1
   1108   1124     1
   1108   1119     1
   1108   1120     1
   1109   1122     1
   1109   1123     1
   1110   1121     1
   1110   1113     1
   1110   1114     1
   1111   1121     1
   1111   1113     1
   1111   1114     1
   1113   1130     1
   1113   1122     1
   1113   1123     1
   1114   1130     1
   1114   1122     1
   1114   1123     1
   1116   2387     1
   1116   1128     1
   1116   1129     1
   1117   2387     1
   1117   1128     1
   1117   1129     1
   1119   2356     1
   1119   1125     1
   1119   1126     1
   1120   2356     1
   1120   1125     1
   1120   1126     1
   1124   2327     1
   1124   2328     1
   1125   2326     1
   1126   2326     1
   1127   2358     1
   1127   2359     1
   1128   2357     1
   1129   2357     1
   1131   1145     1
   1131   1146     1
   1131   1148     1
   1131   1149     1
   1131   1142     1
   1131   1143     1
   1132   1136     1
   1132   1137     1
   1132   1139     1
   1132   1140     1
   1132   1157     1
   1132   1158     1
   1133   1135     1
   1133   1138     1
   1133   1156     1
   1133   1145     1
   1133   1146     1
   1134   1135     1
   1134   1138     1
   1134   1156     1
   1134   1145     1
   1134   1146     1
   1135   1139     1
   1135   1140     1
   1135   1154     1
   1135   1155     1
   1136   1138     1
   1136   1153     1
   1136   1148     1
   1136   1149     1
   1137   1138     1
   1137   1153     1
   1137   1148     1
   1137   1149     1
   1138   1151     1
   1138   1152     1
   1139   1150     1
   1139   1142     1
   1139   1143     1
   1140   1150     1
   1140   1142     1
   1140   1143     1
   1142   1159     1
   1142   1151     1
   1142   1152     1
   1143   1159     1
   1143   1151     1
   1143   1152     1
   1145   2449     1
   1145   1157     1
   1145   1158     1
   1146   2449     1
   1146   1157     1
   1146   1158     1
   1148   2418     1
   1148   1154     1
   1148   1155     1
   1149   2418     1
   1149   1154     1
   1149   1155     1
   1153   2389     1
   1153   2390     1
   1154   2388     1
   1155   2388     1
   1156   2420     1
   1156   2421     1
   1157   2419     1
   1158   2419     1
   1160   1174     1
   1160   1175     1
   1160   1177     1
   1160   1178     1
   1160   1171     1
   1160   1172     1
   1161   1165     1
   1161   1166     1
   1161   1168     1
   1161   1169     1
   1161   1186     1
   1161   1187     1
   1162   1164     1
   1162   1167     1
   1162   1185     1
   1162   1174     1
   1162   1175     1
   1163   1164     1
   1163   1167     1
   1163   1185     1
   1163   1174     1
   1163   1175     1
   1164   1168     1
   1164   1169     1
   1164   1183     1
   1164   1184     1
   1165   1167     1
   1165   1182     1
   1165   1177     1
   1165   1178     1
   1166   1167     1
   1166   1182     1
   1166   1177     1
   1166   1178     1
   1167   1180     1
   1167   1181     1
   1168   1179     1
   1168   1171     1
   1168   1172     1
   1169   1179     1
   1169   1171     1
   1169   1172     1
   1171   1188     1
   1171   1180     1
   1171   1181     1
   1172   1188     1
   1172   1180     1
   1172   1181     1
   1174   2511     1
   1174   1186     1
   1174   1187     1
   1175   2511     1
   1175   1186     1
   1175   1187     1
   1177   2480     1
   1177   1183     1
   1177   1184     1
   1178   2480     1
   1178   1183     1
   1178   1184     1
   1182   2451     1
   1182   2452     1
   1183   2450     1
   1184   2450     1
   1185   2482     1
   1185   2483     1
   1186   2481     1
   1187   2481     1
   1189   1203     1
   1189   1204     1
   1189   1206     1
   1189   1207     1
   1189   1200     1
   1189   1201     1
   1190   1194     1
   1190   1195     1
   1190   1197     1
   1190   1198     1
   1190   1215     1
   1190   1216     1
   1191   1193     1
   1191   1196     1
   1191   1214     1
   1191   1203     1
   1191   1204     1
   1192   1193     1
   1192   1196     1
   1192   1214     1
   1192   1203     1
   1192   1204     1
   1193   1197     1
   1193   1198     1
   1193   1212     1
   1193   1213     1
   1194   1196     1
   1194   1211     1
   1194   1206     1
   1194   1207     1
   1195   1196     1
   1195   1211     1
   1195   1206     1
   1195   1207     1
   1196   1209     1
   1196   1210     1
   1197   1208     1
   1197   1200     1
   1197   1201     1
   1198   1208     1
   1198   1200     1
   1198   1201     1
   1200   1217     1
   1200   1209     1
   1200   1210     1
   1201   1217     1
   1201   1209     1
   1201   1210     1
   1203   2573     1
   1203   1215     1
   1203   1216     1
   1204   2573     1
   1204   1215     1
   1204   1216     1
   1206   2542     1
   1206   1212     1
   1206   1213     1
   1207   2542     1
   1207   1212     1
   1207   1213     1
   1211   2513     1
   1211   2514     1
   1212   2512     1
   1213   2512     1
   1214   2544     1
   1214   2545     1
   1215   2543     1
   1216   2543     1
   1218   1232     1
   1218   1233     1
   1218   1235     1
   1218   1236     1
   1218   1229     1
   1218   1230     1
   1219   1223     1
   1219   1224     1
   1219   1226     1
   1219   1227     1
   1219   1244     1
   1219   1245     1
   1220   1222     1
   1220   1225     1
   1220   1243     1
   1220   1232     1
   1220   1233     1
   1221   1222     1
   1221   1225     1
   1221   1243     1
   1221   1232     1
   1221   1233     1
   1222   1226     1
   1222   1227     1
   1222   1241     1
   1222   1242     1
   1223   1225     1
   1223   1240     1
   1223   1235     1
   1223   1236     1
   1224   1225     1
   1224   1240     1
   1224   1235     1
   1224   1236     1
   1225   1238     1
   1225   1239     1
   1226   1237     1
   1226   1229     1
   1226   1230     1
   1227   1237     1
   1227   1229     1
   1227   1230     1
   1229   1246     1
   1229   1238     1
   1229   1239     1
   1230   1246     1
   1230   1238     1
   1230   1239     1
   1232   2635     1
   1232   1244     1
   1232   1245     1
   1233   2635     1
   1233   1244     1
   1233   1245     1
   1235   2604     1
   1235   1241     1
   1235   1242     1
   1236   2604     1
   1236   1241     1
   1236   1242     1
   1240   2575     1
   1240   2576     1
   1241   2574     1
   1242   2574     1
   1243   2606     1
   1243   2607     1
   1244   2605     1
   1245   2605     1
   1247   1261     1
   1247   1262     1
   1247   1264     1
   1247   1265     1
   1247   1258     1
   1247   1259     1
   1248   1252     1
   1248   1253     1
   1248   1255     1
   1248   1256     1
   1248   1273     1
   1248   1274     1
   1249   1251     1
   1249   1254     1
   1249   1272     1
   1249   1261     1
   1249   1262     1
   1250   1251     1
   1250   1254     1
   1250   1272     1
   1250   1261     1
   1250   1262     1
   1251   1255     1
   1251   1256     1
   1251   1270     1
   1251   1271     1
   1252   1254     1
   1252   1269     1
   1252   1264     1
   1252   1265     1
   1253   1254     1
   1253   1269     1
   1253   1264     1
   1253   1265     1
   1254   1267     1
   1254   1268     1
   1255   1266     1
   1255   1258     1
   1255   1259     1
   1256   1266     1
   1256   1258     1
   1256   1259     1
   1258   1275     1
   1258   1267     1
   1258   1268     1
   1259   1275     1
   1259   1267     1
   1259   1268     1
   1261   2697     1
   1261   1273     1
   1261   1274     1
   1262   2697     1
   1262   1273     1
   1262   1274     1
   1264   2666     1
   1264   1270     1
   1264   1271     1
   1265   2666     1
   1265   1270     1
   1265   1271     1
   1269   2637     1
   1269   2638     1
   1270   2636     1
   1271   2636     1
   1272   2668     1
   1272   2669     1
   1273   2667     1
   1274   2667     1
   1276   1290     1
   1276   1291     1
   1276   1293     1
   1276   1294     1
   1276   1287     1
   1276   1288     1
   1277   1281     1
   1277   1282     1
   1277   1284     1
   1277   1285     1
   1277   1302     1
   1277   1303     1
   1278   1280     1
   1278   1283     1
   1278   1301     1
   1278   1290     1
   1278   1291     1
   1279   1280     1
   1279   1283     1
   1279   1301     1
   1279   1290     1
   1279   1291     1
   1280   1284     1
   1280   1285     1
   1280   1299     1
   1280   1300     1
   1281   1283     1
   1281   1298     1
   1281   1293     1
   1281   1294     1
   1282   1283     1
   1282   1298     1
   1282   1293     1
   1282   1294     1
   1283   1296     1
   1283   1297     1
   1284   1295     1
   1284   1287     1
   1284   1288     1
   1285   1295     1
   1285   1287     1
   1285   1288     1
   1287   1304     1
   1287   1296     1
   1287   1297     1
   1288   1304     1
   1288   1296     1
   1288   1297     1
   1290   2759     1
   1290   1302     1
   1290   1303     1
   1291   2759     1
   1291   1302     1
   1291   1303     1
   1293   2728     1
   1293   1299     1
   1293   1300     1
   1294   2728     1
   1294   1299     1
   1294   1300     1
   1298   2699     1
   1298   2700     1
   1299   2698     1
   1300   2698     1
   1301   2730     1
   1301   2731     1
   1302   2729     1
   1303   2729     1
   1305   1319     1
   1305   1320     1
   1305   1322     1
   1305   1323     1
   1305   1316     1
   1305   1317     1
   1306   1310     1
   1306   1311     1
   1306   1313     1
   1306   1314     1
   1306   1331     1
   1306   1332     1
   1307   1309     1
   1307   1312     1
   1307   1330     1
   1307   1319     1
   1307   1320     1
   1308   1309     1
   1308   1312     1
   1308   1330     1
   1308   1319     1
   1308   1320     1
   1309   1313     1
   1309   1314     1
   1309   1328     1
   1309   1329     1
   1310   1312     1
   1310   1327     1
   1310   1322     1
   1310   1323     1
   1311   1312     1
   1311   1327     1
   1311   1322     1
   1311   1323     1
   1312   1325     1
   1312   1326     1
   1313   1324     1
   1313   1316     1
   1313   1317     1
   1314   1324     1
   1314   1316     1
   1314   1317     1
   1316   1333     1
   1316   1325     1
   1316   1326     1
   1317   1333     1
   1317   1325     1
   1317   1326     1
   1319   2821     1
   1319   1331     1
   1319   1332     1
   1320   2821     1
   1320   1331     1
   1320   1332     1
   1322   2790     1
   1322   1328     1
   1322   1329     1
   1323   2790     1
   1323   1328     1
   1323   1329     1
   1327   2761     1
   1327   2762     1
   1328   2760     1
   1329   2760     1
   1330   2792     1
   1330   2793     1
   1331   2791     1
   1332   2791     1
   1334   1341     1
   1334   1342     1
   1335   1340     1
   1335   1338     1
   1335   1339     1
   1336   1340     1
   1336   1338     1
   1336   1339     1
   1338   1364     1
   1338   1343     1
   1338   1341     1
   1338   1342     1
   1339   1364     1
   1339   1343     1
   1339   1341     1
   1339   1342     1
   1340   1345     1
   1340   1346     1
   1340   1355     1
   1340   1356     1
   1341   1344     1
   1341   1354     1
   1342   1344     1
   1342   1354     1
   1343   1348     1
   1343   1349     1
   1343   1358     1
   1343   1359     1
   1344   1355     1
   1344   1356     1
   1345   1354     1
   1345   1350     1
   1345   1348     1
   1345   1349     1
   1346   1354     1
   1346   1350     1
   1346   1348     1
   1346   1349     1
   1347   1353     1
   1348   1351     1
   1348   1352     1
   1349   1351     1
   1349   1352     1
   1351   1353     1
   1355   1360     1
   1355   1358     1
   1355   1359     1
   1356   1360     1
   1356   1358     1
   1356   1359     1
   1357   1363     1
   1358   1361     1
   1358   1362     1
   1359   1361     1
   1359   1362     1
   1361   1363     1
   1365   1372     1
   1365   1373     1
   1366   1371     1
   1366   1369     1
   1366   1370     1
   1367   1371     1
   1367   1369     1
   1367   1370     1
   1369   1374     1
   1369   1372     1
   1369   1373     1
   1369   1395     1
   1370   1374     1
   1370   1372     1
   1370   1373     1
   1370   1395     1
   1371   1376     1
   1371   1377     1
   1371   1386     1
   1371   1387     1
   1372   1375     1
   1372   1385     1
   1373   1375     1
   1373   1385     1
   1374   1379     1
   1374   1380     1
   1374   1389     1
   1374   1390     1
   1375   1386     1
   1375   1387     1
   1376   1381     1
   1376   1379     1
   1376   1380     1
   1376   1385     1
   1377   1381     1
   1377   1379     1
   1377   1380     1
   1377   1385     1
   1378   1384     1
   1379   1382     1
   1379   1383     1
   1380   1382     1
   1380   1383     1
   1382   1384     1
   1386   1391     1
   1386   1389     1
   1386   1390     1
   1387   1391     1
   1387   1389     1
   1387   1390     1
   1388   1394     1
   1389   1392     1
   1389   1393     1
   1390   1392     1
   1390   1393     1
   1392   1394     1
   1396   1403     1
   1396   1404     1
   1397   1402     1
   1397   1400     1
   1397   1401     1
   1398   1402     1
   1398   1400     1
   1398   1401     1
   1400   1426     1
   1400   1405     1
   1400   1403     1
   1400   1404     1
   1401   1426     1
   1401   1405     1
   1401   1403     1
   1401   1404     1
   1402   1407     1
   1402   1408     1
   1402   1417     1
   1402   1418     1
   1403   1406     1
   1403   1416     1
   1404   1406     1
   1404   1416     1
   1405   1410     1
   1405   1411     1
   1405   1420     1
   1405   1421     1
   1406   1417     1
   1406   1418     1
   1407   1416     1
   1407   1412     1
   1407   1410     1
   1407   1411     1
   1408   1416     1
   1408   1412     1
   1408   1410     1
   1408   1411     1
   1409   1415     1
   1410   1413     1
   1410   1414     1
   1411   1413     1
   1411   1414     1
   1413   1415     1
   1417   1422     1
   1417   1420     1
   1417   1421     1
   1418   1422     1
   1418   1420     1
   1418   1421     1
   1419   1425     1
   1420   1423     1
   1420   1424     1
   1421   1423     1
   1421   1424     1
   1423   1425     1
   1427   1434     1
   1427   1435     1
   1428   1433     1
   1428   1431     1
   1428   1432     1
   1429   1433     1
   1429   1431     1
   1429   1432     1
   1431   1436     1
   1431   1434     1
   1431   1435     1
   1431   1457     1
   1432   1436     1
   1432   1434     1
   1432   1435     1
   1432   1457     1
   1433   1438     1
   1433   1439     1
   1433   1448     1
   1433   1449     1
   1434   1437     1
   1434   1447     1
   1435   1437     1
   1435   1447     1
   1436   1441     1
   1436   1442     1
   1436   1451     1
   1436   1452     1
   1437   1448     1
   1437   1449     1
   1438   1443     1
   1438   1441     1
   1438   1442     1
   1438   1447     1
   1439   1443     1
   1439   1441     1
   1439   1442     1
   1439   1447     1
   1440   1446     1
   1441   1444     1
   1441   1445     1
   1442   1444     1
   1442   1445     1
   1444   1446     1
   1448   1453     1
   1448   1451     1
   1448   1452     1
   1449   1453     1
   1449   1451     1
   1449   1452     1
   1450   1456     1
   1451   1454     1
   1451   1455     1
   1452   1454     1
   1452   1455     1
   1454   1456     1
   1458   1465     1
   1458   1466     1
   1459   1464     1
   1459   1462     1
   1459   1463     1
   1460   1464     1
   1460   1462     1
   1460   1463     1
   1462   1488     1
   1462   1467     1
   1462   1465     1
   1462   1466     1
   1463   1488     1
   1463   1467     1
   1463   1465     1
   1463   1466     1
   1464   1469     1
   1464   1470     1
   1464   1479     1
   1464   1480     1
   1465   1468     1
   1465   1478     1
   1466   1468     1
   1466   1478     1
   1467   1472     1
   1467   1473     1
   1467   1482     1
   1467   1483     1
   1468   1479     1
   1468   1480     1
   1469   1478     1
   1469   1474     1
   1469   1472     1
   1469   1473     1
   1470   1478     1
   1470   1474     1
   1470   1472     1
   1470   1473     1
   1471   1477     1
   1472   1475     1
   1472   1476     1
   1473   1475     1
   1473   1476     1
   1475   1477     1
   1479   1484     1
   1479   1482     1
   1479   1483     1
   1480   1484     1
   1480   1482     1
   1480   1483     1
   1481   1487     1
   1482   1485     1
   1482   1486     1
   1483   1485     1
   1483   1486     1
   1485   1487     1
   1489   1496     1
   1489   1497     1
   1490   1495     1
   1490   1493     1
   1490   1494     1
   1491   1495     1
   1491   1493     1
   1491   1494     1
   1493   1498     1
   1493   1496     1
   1493   1497     1
   1493   1519     1
   1494   1498     1
   1494   1496     1
   1494   1497     1
   1494   1519     1
   1495   1500     1
   1495   1501     1
   1495   1510     1
   1495   1511     1
   1496   1499     1
   1496   1509     1
   1497   1499     1
   1497   1509     1
   1498   1503     1
   1498   1504     1
   1498   1513     1
   1498   1514     1
   1499   1510     1
   1499   1511     1
   1500   1505     1
   1500   1503     1
   1500   1504     1
   1500   1509     1
   1501   1505     1
   1501   1503     1
   1501   1504     1
   1501   1509     1
   1502   1508     1
   1503   1506     1
   1503   1507     1
   1504   1506     1
   1504   1507     1
   1506   1508     1
   1510   1515     1
   1510   1513     1
   1510   1514     1
   1511   1515     1
   1511   1513     1
   1511   1514     1
   1512   1518     1
   1513   1516     1
   1513   1517     1
   1514   1516     1
   1514   1517     1
   1516   1518     1
   1520   1527     1
   1520   1528     1
   1521   1526     1
   1521   1524     1
   1521   1525     1
   1522   1526     1
   1522   1524     1
   1522   1525     1
   1524   1550     1
   1524   1529     1
   1524   1527     1
   1524   1528     1
   1525   1550     1
   1525   1529     1
   1525   1527     1
   1525   1528     1
   1526   1531     1
   1526   1532     1
   1526   1541     1
   1526   1542     1
   1527   1530     1
   1527   1540     1
   1528   1530     1
   1528   1540     1
   1529   1534     1
   1529   1535     1
   1529   1544     1
   1529   1545     1
   1530   1541     1
   1530   1542     1
   1531   1540     1
   1531   1536     1
   1531   1534     1
   1531   1535     1
   1532   1540     1
   1532   1536     1
   1532   1534     1
   1532   1535     1
   1533   1539     1
   1534   1537     1
   1534   1538     1
   1535   1537     1
   1535   1538     1
   1537   1539     1
   1541   1546     1
   1541   1544     1
   1541   1545     1
   1542   1546     1
   1542   1544     1
   1542   1545     1
   1543   1549     1
   1544   1547     1
   1544   1548     1
   1545   1547     1
   1545   1548     1
   1547   1549     1
   1551   1558     1
   1551   1559     1
   1552   1557     1
   1552   1555     1
   1552   1556     1
   1553   1557     1
   1553   1555     1
   1553   1556     1
   1555   1560     1
   1555   1558     1
   1555   1559     1
   1555   1581     1
   1556   1560     1
   1556   1558     1
   1556   1559     1
   1556   1581     1
   1557   1562     1
   1557   1563     1
   1557   1572     1
   1557   1573     1
   1558   1561     1
   1558   1571     1
   1559   1561     1
   1559   1571     1
   1560   1565     1
   1560   1566     1
   1560   1575     1
   1560   1576     1
   1561   1572     1
   1561   1573     1
   1562   1567     1
   1562   1565     1
   1562   1566     1
   1562   1571     1
   1563   1567     1
   1563   1565     1
   1563   1566     1
   1563   1571     1
   1564   1570     1
   1565   1568     1
   1565   1569     1
   1566   1568     1
   1566   1569     1
   1568   1570     1
   1572   1577     1
   1572   1575     1
   1572   1576     1
   1573   1577     1
   1573   1575     1
   1573   1576     1
   1574   1580     1
   1575   1578     1
   1575   1579     1
   1576   1578     1
   1576   1579     1
   1578   1580     1
   1582   1589     1
   1582   1590     1
   1583   1588     1
   1583   1586     1
   1583   1587     1
   1584   1588     1
   1584   1586     1
   1584   1587     1
   1586   1612     1
   1586   1591     1
   1586   1589     1
   1586   1590     1
   1587   1612     1
   1587   1591     1
   1587   1589     1
   1587   1590     1
   1588   1593     1
   1588   1594     1
   1588   1603     1
   1588   1604     1
   1589   1592     1
   1589   1602     1
   1590   1592     1
   1590   1602     1
   1591   1596     1
   1591   1597     1
   1591   1606     1
   1591   1607     1
   1592   1603     1
   1592   1604     1
   1593   1602     1
   1593   1598     1
   1593   1596     1
   1593   1597     1
   1594   1602     1
   1594   1598     1
   1594   1596     1
   1594   1597     1
   1595   1601     1
   1596   1599     1
   1596   1600     1
   1597   1599     1
   1597   1600     1
   1599   1601     1
   1603   1608     1
   1603   1606     1
   1603   1607     1
   1604   1608     1
   1604   1606     1
   1604   1607     1
   1605   1611     1
   1606   1609     1
   1606   1610     1
   1607   1609     1
   1607   1610     1
   1609   1611     1
   1613   1620     1
   1613   1621     1
   1614   1619     1
   1614   1617     1
   1614   1618     1
   1615   1619     1
   1615   1617     1
   1615   1618     1
   1617   1622     1
   1617   1620     1
   1617   1621     1
   1617   1643     1
   1618   1622     1
   1618   1620     1
   1618   1621     1
   1618   1643     1
   1619   1624     1
   1619   1625     1
   1619   1634     1
   1619   1635     1
   1620   1623     1
   1620   1633     1
   1621   1623     1
   1621   1633     1
   1622   1627     1
   1622   1628     1
   1622   1637     1
   1622   1638     1
   1623   1634     1
   1623   1635     1
   1624   1629     1
   1624   1627     1
   1624   1628     1
   1624   1633     1
   1625   1629     1
   1625   1627     1
   1625   1628     1
   1625   1633     1
   1626   1632     1
   1627   1630     1
   1627   1631     1
   1628   1630     1
   1628   1631     1
   1630   1632     1
   1634   1639     1
   1634   1637     1
   1634   1638     1
   1635   1639     1
   1635   1637     1
   1635   1638     1
   1636   1642     1
   1637   1640     1
   1637   1641     1
   1638   1640     1
   1638   1641     1
   1640   1642     1
   1644   1651     1
   1644   1652     1
   1645   1650     1
   1645   1648     1
   1645   1649     1
   1646   1650     1
   1646   1648     1
   1646   1649     1
   1648   1674     1
   1648   1653     1
   1648   1651     1
   1648   1652     1
   1649   1674     1
   1649   1653     1
   1649   1651     1
   1649   1652     1
   1650   1655     1
   1650   1656     1
   1650   1665     1
   1650   1666     1
   1651   1654     1
   1651   1664     1
   1652   1654     1
   1652   1664     1
   1653   1658     1
   1653   1659     1
   1653   1668     1
   1653   1669     1
   1654   1665     1
   1654   1666     1
   1655   1664     1
   1655   1660     1
   1655   1658     1
   1655   1659     1
   1656   1664     1
   1656   1660     1
   1656   1658     1
   1656   1659     1
   1657   1663     1
   1658   1661     1
   1658   1662     1
   1659   1661     1
   1659   1662     1
   1661   1663     1
   1665   1670     1
   1665   1668     1
   1665   1669     1
   1666   1670     1
   1666   1668     1
   1666   1669     1
   1667   1673     1
   1668   1671     1
   1668   1672     1
   1669   1671     1
   1669   1672     1
   1671   1673     1
   1675   1682     1
   1675   1683     1
   1676   1681     1
   1676   1679     1
   1676   1680     1
   1677   1681     1
   1677   1679     1
   1677   1680     1
   1679   1684     1
   1679   1682     1
   1679   1683     1
   1679   1705     1
   1680   1684     1
   1680   1682     1
   1680   1683     1
   1680   1705     1
   1681   1686     1
   1681   1687     1
   1681   1696     1
   1681   1697     1
   1682   1685     1
   1682   1695     1
   1683   1685     1
   1683   1695     1
   1684   1689     1
   1684   1690     1
   1684   1699     1
   1684   1700     1
   1685   1696     1
   1685   1697     1
   1686   1691     1
   1686   1689     1
   1686   1690     1
   1686   1695     1
   1687   1691     1
   1687   1689     1
   1687   1690     1
   1687   1695     1
   1688   1694     1
   1689   1692     1
   1689   1693     1
   1690   1692     1
   1690   1693     1
   1692   1694     1
   1696   1701     1
   1696   1699     1
   1696   1700     1
   1697   1701     1
   1697   1699     1
   1697   1700     1
   1698   1704     1
   1699   1702     1
   1699   1703     1
   1700   1702     1
   1700   1703     1
   1702   1704     1
   1706   1713     1
   1706   1714     1
   1707   1712     1
   1707   1710     1
   1707   1711     1
   1708   1712     1
   1708   1710     1
   1708   1711     1
   1710   1736     1
   1710   1715     1
   1710   1713     1
   1710   1714     1
   1711   1736     1
   1711   1715     1
   1711   1713     1
   1711   1714     1
   1712   1717     1
   1712   1718     1
   1712   1727     1
   1712   1728     1
   1713   1716     1
   1713   1726     1
   1714   1716     1
   1714   1726     1
   1715   1720     1
   1715   1721     1
   1715   1730     1
   1715   1731     1
   1716   1727     1
   1716   1728     1
   1717   1726     1
   1717   1722     1
   1717   1720     1
   1717   1721     1
   1718   1726     1
   1718   1722     1
   1718   1720     1
   1718   1721     1
   1719   1725     1
   1720   1723     1
   1720   1724     1
   1721   1723     1
   1721   1724     1
   1723   1725     1
   1727   1732     1
   1727   1730     1
   1727   1731     1
   1728   1732     1
   1728   1730     1
   1728   1731     1
   1729   1735     1
   1730   1733     1
   1730   1734     1
   1731   1733     1
   1731   1734     1
   1733   1735     1
   1737   1744     1
   1737   1745     1
   1738   1743     1
   1738   1741     1
   1738   1742     1
   1739   1743     1
   1739   1741     1
   1739   1742     1
   1741   1746     1
   1741   1744     1
   1741   1745     1
   1741   1767     1
   1742   1746     1
   1742   1744     1
   1742   1745     1
   1742   1767     1
   1743   1748     1
   1743   1749     1
   1743   1758     1
   1743   1759     1
   1744   1747     1
   1744   1757     1
   1745   1747     1
   1745   1757     1
   1746   1751     1
   1746   1752     1
   1746   1761     1
   1746   1762     1
   1747   1758     1
   1747   1759     1
   1748   1753     1
   1748   1751     1
   1748   1752     1
   1748   1757     1
   1749   1753     1
   1749   1751     1
   1749   1752     1
   1749   1757     1
   1750   1756     1
   1751   1754     1
   1751   1755     1
   1752   1754     1
   1752   1755     1
   1754   1756     1
   1758   1763     1
   1758   1761     1
   1758   1762     1
   1759   1763     1
   1759   1761     1
   1759   1762     1
   1760   1766     1
   1761   1764     1
   1761   1765     1
   1762   1764     1
   1762   1765     1
   1764   1766     1
   1768   1775     1
   1768   1776     1
   1769   1774     1
   1769   1772     1
   1769   1773     1
   1770   1774     1
   1770   1772     1
   1770   1773     1
   1772   1798     1
   1772   1777     1
   1772   1775     1
   1772   1776     1
   1773   1798     1
   1773   1777     1
   1773   1775     1
   1773   1776     1
   1774   1779     1
   1774   1780     1
   1774   1789     1
   1774   1790     1
   1775   1778     1
   1775   1788     1
   1776   1778     1
   1776   1788     1
   1777   1782     1
   1777   1783     1
   1777   1792     1
   1777   1793     1
   1778   1789     1
   1778   1790     1
   1779   1788     1
   1779   1784     1
   1779   1782     1
   1779   1783     1
   1780   1788     1
   1780   1784     1
   1780   1782     1
   1780   1783     1
   1781   1787     1
   1782   1785     1
   1782   1786     1
   1783   1785     1
   1783   1786     1
   1785   1787     1
   1789   1794     1
   1789   1792     1
   1789   1793     1
   1790   1794     1
   1790   1792     1
   1790   1793     1
   1791   1797     1
   1792   1795     1
   1792   1796     1
   1793   1795     1
   1793   1796     1
   1795   1797     1
   1799   1806     1
   1799   1807     1
   1800   1805     1
   1800   1803     1
   1800   1804     1
   1801   1805     1
   1801   1803     1
   1801   1804     1
   1803   1808     1
   1803   1806     1
   1803   1807     1
   1803   1829     1
   1804   1808     1
   1804   1806     1
   1804   1807     1
   1804   1829     1
   1805   1810     1
   1805   1811     1
   1805   1820     1
   1805   1821     1
   1806   1809     1
   1806   1819     1
   1807   1809     1
   1807   1819     1
   1808   1813     1
   1808   1814     1
   1808   1823     1
   1808   1824     1
   1809   1820     1
   1809   1821     1
   1810   1815     1
   1810   1813     1
   1810   1814     1
   1810   1819     1
   1811   1815     1
   1811   1813     1
   1811   1814     1
   1811   1819     1
   1812   1818     1
   1813   1816     1
   1813   1817     1
   1814   1816     1
   1814   1817     1
   1816   1818     1
   1820   1825     1
   1820   1823     1
   1820   1824     1
   1821   1825     1
   1821   1823     1
   1821   1824     1
   1822   1828     1
   1823   1826     1
   1823   1827     1
   1824   1826     1
   1824   1827     1
   1826   1828     1
   1830   1837     1
   1830   1838     1
   1831   1836     1
   1831   1834     1
   1831   1835     1
   1832   1836     1
   1832   1834     1
   1832   1835     1
   1834   1860     1
   1834   1839     1
   1834   1837     1
   1834   1838     1
   1835   1860     1
   1835   1839     1
   1835   1837     1
   1835   1838     1
   1836   1841     1
   1836   1842     1
   1836   1851     1
   1836   1852     1
   1837   1840     1
   1837   1850     1
   1838   1840     1
   1838   1850     1
   1839   1844     1
   1839   1845     1
   1839   1854     1
   1839   1855     1
   1840   1851     1
   1840   1852     1
   1841   1850     1
   1841   1846     1
   1841   1844     1
   1841   1845     1
   1842   1850     1
   1842   1846     1
   1842   1844     1
   1842   1845     1
   1843   1849     1
   1844   1847     1
   1844   1848     1
   1845   1847     1
   1845   1848     1
   1847   1849     1
   1851   1856     1
   1851   1854     1
   1851   1855     1
   1852   1856     1
   1852   1854     1
   1852   1855     1
   1853   1859     1
   1854   1857     1
   1854   1858     1
   1855   1857     1
   1855   1858     1
   1857   1859     1
   1861   1868     1
   1861   1869     1
   1862   1867     1
   1862   1865     1
   1862   1866     1
   1863   1867     1
   1863   1865     1
   1863   1866     1
   1865   1870     1
   1865   1868     1
   1865   1869     1
   1865   1891     1
   1866   1870     1
   1866   1868     1
   1866   1869     1
   1866   1891     1
   1867   1872     1
   1867   1873     1
   1867   1882     1
   1867   1883     1
   1868   1871     1
   1868   1881     1
   1869   1871     1
   1869   1881     1
   1870   1875     1
   1870   1876     1
   1870   1885     1
   1870   1886     1
   1871   1882     1
   1871   1883     1
   1872   1877     1
   1872   1875     1
   1872   1876     1
   1872   1881     1
   1873   1877     1
   1873   1875     1
   1873   1876     1
   1873   1881     1
   1874   1880     1
   1875   1878     1
   1875   1879     1
   1876   1878     1
   1876   1879     1
   1878   1880     1
   1882   1887     1
   1882   1885     1
   1882   1886     1
   1883   1887     1
   1883   1885     1
   1883   1886     1
   1884   1890     1
   1885   1888     1
   1885   1889     1
   1886   1888     1
   1886   1889     1
   1888   1890     1
   1892   1899     1
   1892   1900     1
   1893   1898     1
   1893   1896     1
   1893   1897     1
   1894   1898     1
   1894   1896     1
   1894   1897     1
   1896   1922     1
   1896   1901     1
   1896   1899     1
   1896   1900     1
   1897   1922     1
   1897   1901     1
   1897   1899     1
   1897   1900     1
   1898   1903     1
   1898   1904     1
   1898   1913     1
   1898   1914     1
   1899   1902     1
   1899   1912     1
   1900   1902     1
   1900   1912     1
   1901   1906     1
   1901   1907     1
   1901   1916     1
   1901   1917     1
   1902   1913     1
   1902   1914     1
   1903   1912     1
   1903   1908     1
   1903   1906     1
   1903   1907     1
   1904   1912     1
   1904   1908     1
   1904   1906     1
   1904   1907     1
   1905   1911     1
   1906   1909     1
   1906   1910     1
   1907   1909     1
   1907   1910     1
   1909   1911     1
   1913   1918     1
   1913   1916     1
   1913   1917     1
   1914   1918     1
   1914   1916     1
   1914   1917     1
   1915   1921     1
   1916   1919     1
   1916   1920     1
   1917   1919     1
   1917   1920     1
   1919   1921     1
   1923   1930     1
   1923   1931     1
   1924   1929     1
   1924   1927     1
   1924   1928     1
   1925   1929     1
   1925   1927     1
   1925   1928     1
   1927   1932     1
   1927   1930     1
   1927   1931     1
   1927   1953     1
   1928   1932     1
   1928   1930     1
   1928   1931     1
   1928   1953     1
   1929   1934     1
   1929   1935     1
   1929   1944     1
   1929   1945     1
   1930   1933     1
   1930   1943     1
   1931   1933     1
   1931   1943     1
   1932   1937     1
   1932   1938     1
   1932   1947     1
   1932   1948     1
   1933   1944     1
   1933   1945     1
   1934   1939     1
   1934   1937     1
   1934   1938     1
   1934   1943     1
   1935   1939     1
   1935   1937     1
   1935   1938     1
   1935   1943     1
   1936   1942     1
   1937   1940     1
   1937   1941     1
   1938   1940     1
   1938   1941     1
   1940   1942     1
   1944   1949     1
   1944   1947     1
   1944   1948     1
   1945   1949     1
   1945   1947     1
   1945   1948     1
   1946   1952     1
   1947   1950     1
   1947   1951     1
   1948   1950     1
   1948   1951     1
   1950   1952     1
   1954   1961     1
   1954   1962     1
   1955   1960     1
   1955   1958     1
   1955   1959     1
   1956   1960     1
   1956   1958     1
   1956   1959     1
   1958   1984     1
   1958   1963     1
   1958   1961     1
   1958   1962     1
   1959   1984     1
   1959   1963     1
   1959   1961     1
   1959   1962     1
   1960   1965     1
   1960   1966     1
   1960   1975     1
   1960   1976     1
   1961   1964     1
   1961   1974     1
   1962   1964     1
   1962   1974     1
   1963   1968     1
   1963   1969     1
   1963   1978     1
   1963   1979     1
   1964   1975     1
   1964   1976     1
   1965   1974     1
   1965   1970     1
   1965   1968     1
   1965   1969     1
   1966   1974     1
   1966   1970     1
   1966   1968     1
   1966   1969     1
   1967   1973     1
   1968   1971     1
   1968   1972     1
   1969   1971     1
   1969   1972     1
   1971   1973     1
   1975   1980     1
   1975   1978     1
   1975   1979     1
   1976   1980     1
   1976   1978     1
   1976   1979     1
   1977   1983     1
   1978   1981     1
   1978   1982     1
   1979   1981     1
   1979   1982     1
   1981   1983     1
   1985   1992     1
   1985   1993     1
   1986   1991     1
   1986   1989     1
   1986   1990     1
   1987   1991     1
   1987   1989     1
   1987   1990     1
   1989   1994     1
   1989   1992     1
   1989   1993     1
   1989   2015     1
   1990   1994     1
   1990   1992     1
   1990   1993     1
   1990   2015     1
   1991   1996     1
   1991   1997     1
   1991   2006     1
   1991   2007     1
   1992   1995     1
   1992   2005     1
   1993   1995     1
   1993   2005     1
   1994   1999     1
   1994   2000     1
   1994   2009     1
   1994   2010     1
   1995   2006     1
   1995   2007     1
   1996   2001     1
   1996   1999     1
   1996   2000     1
   1996   2005     1
   1997   2001     1
   1997   1999     1
   1997   2000     1
   1997   2005     1
   1998   2004     1
   1999   2002     1
   1999   2003     1
   2000   2002     1
   2000   2003     1
   2002   2004     1
   2006   2011     1
   2006   2009     1
   2006   2010     1
   2007   2011     1
   2007   2009     1
   2007   2010     1
   2008   2014     1
   2009   2012     1
   2009   2013     1
   2010   2012     1
   2010   2013     1
   2012   2014     1
   2016   2023     1
   2016   2024     1
   2017   2022     1
   2017   2020     1
   2017   2021     1
   2018   2022     1
   2018   2020     1
   2018   2021     1
   2020   2046     1
   2020   2025     1
   2020   2023     1
   2020   2024     1
   2021   2046     1
   2021   2025     1
   2021   2023     1
   2021   2024     1
   2022   2027     1
   2022   2028     1
   2022   2037     1
   2022   2038     1
   2023   2026     1
   2023   2036     1
   2024   2026     1
   2024   2036     1
   2025   2030     1
   2025   2031     1
   2025   2040     1
   2025   2041     1
   2026   2037     1
   2026   2038     1
   2027   2036     1
   2027   2032     1
   2027   2030     1
   2027   2031     1
   2028   2036     1
   2028   2032     1
   2028   2030     1
   2028   2031     1
   2029   2035     1
   2030   2033     1
   2030   2034     1
   2031   2033     1
   2031   2034     1
   2033   2035     1
   2037   2042     1
   2037   2040     1
   2037   2041     1
   2038   2042     1
   2038   2040     1
   2038   2041     1
   2039   2045     1
   2040   2043     1
   2040   2044     1
   2041   2043     1
   2041   2044     1
   2043   2045     1
   2047   2054     1
   2047   2055     1
   2048   2053     1
   2048   2051     1
   2048   2052     1
   2049   2053     1
   2049   2051     1
   2049   2052     1
   2051   2056     1
   2051   2054     1
   2051   2055     1
   2051   2077     1
   2052   2056     1
   2052   2054     1
   2052   2055     1
   2052   2077     1
   2053   2058     1
   2053   2059     1
   2053   2068     1
   2053   2069     1
   2054   2057     1
   2054   2067     1
   2055   2057     1
   2055   2067     1
   2056   2061     1
   2056   2062     1
   2056   2071     1
   2056   2072     1
   2057   2068     1
   2057   2069     1
   2058   2063     1
   2058   2061     1
   2058   2062     1
   2058   2067     1
   2059   2063     1
   2059   2061     1
   2059   2062     1
   2059   2067     1
   2060   2066     1
   2061   2064     1
   2061   2065     1
   2062   2064     1
   2062   2065     1
   2064   2066     1
   2068   2073     1
   2068   2071     1
   2068   2072     1
   2069   2073     1
   2069   2071     1
   2069   2072     1
   2070   2076     1
   2071   2074     1
   2071   2075     1
   2072   2074     1
   2072   2075     1
   2074   2076     1
   2078   2085     1
   2078   2086     1
   2079   2084     1
   2079   2082     1
   2079   2083     1
   2080   2084     1
   2080   2082     1
   2080   2083     1
   2082   2108     1
   2082   2087     1
   2082   2085     1
   2082   2086     1
   2083   2108     1
   2083   2087     1
   2083   2085     1
   2083   2086     1
   2084   2089     1
   2084   2090     1
   2084   2099     1
   2084   2100     1
   2085   2088     1
   2085   2098     1
   2086   2088     1
   2086   2098     1
   2087   2092     1
   2087   2093     1
   2087   2102     1
   2087   2103     1
   2088   2099     1
   2088   2100     1
   2089   2098     1
   2089   2094     1
   2089   2092     1
   2089   2093     1
   2090   2098     1
   2090   2094     1
   2090   2092     1
   2090   2093     1
   2091   2097     1
   2092   2095     1
   2092   2096     1
   2093   2095     1
   2093   2096     1
   2095   2097     1
   2099   2104     1
   2099   2102     1
   2099   2103     1
   2100   2104     1
   2100   2102     1
   2100   2103     1
   2101   2107     1
   2102   2105     1
   2102   2106     1
   2103   2105     1
   2103   2106     1
   2105   2107     1
   2109   2116     1
   2109   2117     1
   2110   2115     1
   2110   2113     1
   2110   2114     1
   2111   2115     1
   2111   2113     1
   2111   2114     1
   2113   2118     1
   2113   2116     1
   2113   2117     1
   2113   2139     1
   2114   2118     1
   2114   2116     1
   2114   2117     1
   2114   2139     1
   2115   2120     1
   2115   2121     1
   2115   2130     1
   2115   2131     1
   2116   2119     1
   2116   2129     1
   2117   2119     1
   2117   2129     1
   2118   2123     1
   2118   2124     1
   2118   2133     1
   2118   2134     1
   2119   2130     1
   2119   2131     1
   2120   2125     1
   2120   2123     1
   2120   2124     1
   2120   2129     1
   2121   2125     1
   2121   2123     1
   2121   2124     1
   2121   2129     1
   2122   2128     1
   2123   2126     1
   2123   2127     1
   2124   2126     1
   2124   2127     1
   2126   2128     1
   2130   2135     1
   2130   2133     1
   2130   2134     1
   2131   2135     1
   2131   2133     1
   2131   2134     1
   2132   2138     1
   2133   2136     1
   2133   2137     1
   2134   2136     1
   2134   2137     1
   2136   2138     1
   2140   2147     1
   2140   2148     1
   2141   2146     1
   2141   2144     1
   2141   2145     1
   2142   2146     1
   2142   2144     1
   2142   2145     1
   2144   2170     1
   2144   2149     1
   2144   2147     1
   2144   2148     1
   2145   2170     1
   2145   2149     1
   2145   2147     1
   2145   2148     1
   2146   2151     1
   2146   2152     1
   2146   2161     1
   2146   2162     1
   2147   2150     1
   2147   2160     1
   2148   2150     1
   2148   2160     1
   2149   2154     1
   2149   2155     1
   2149   2164     1
   2149   2165     1
   2150   2161     1
   2150   2162     1
   2151   2160     1
   2151   2156     1
   2151   2154     1
   2151   2155     1
   2152   2160     1
   2152   2156     1
   2152   2154     1
   2152   2155     1
   2153   2159     1
   2154   2157     1
   2154   2158     1
   2155   2157     1
   2155   2158     1
   2157   2159     1
   2161   2166     1
   2161   2164     1
   2161   2165     1
   2162   2166     1
   2162   2164     1
   2162   2165     1
   2163   2169     1
   2164   2167     1
   2164   2168     1
   2165   2167     1
   2165   2168     1
   2167   2169     1
   2171   2178     1
   2171   2179     1
   2172   2177     1
   2172   2175     1
   2172   2176     1
   2173   2177     1
   2173   2175     1
   2173   2176     1
   2175   2180     1
   2175   2178     1
   2175   2179     1
   2175   2201     1
   2176   2180     1
   2176   2178     1
   2176   2179     1
   2176   2201     1
   2177   2182     1
   2177   2183     1
   2177   2192     1
   2177   2193     1
   2178   2181     1
   2178   2191     1
   2179   2181     1
   2179   2191     1
   2180   2185     1
   2180   2186     1
   2180   2195     1
   2180   2196     1
   2181   2192     1
   2181   2193     1
   2182   2187     1
   2182   2185     1
   2182   2186     1
   2182   2191     1
   2183   2187     1
   2183   2185     1
   2183   2186     1
   2183   2191     1
   2184   2190     1
   2185   2188     1
   2185   2189     1
   2186   2188     1
   2186   2189     1
   2188   2190     1
   2192   2197     1
   2192   2195     1
   2192   2196     1
   2193   2197     1
   2193   2195     1
   2193   2196     1
   2194   2200     1
   2195   2198     1
   2195   2199     1
   2196   2198     1
   2196   2199     1
   2198   2200     1
   2202   2209     1
   2202   2210     1
   2203   2208     1
   2203   2206     1
   2203   2207     1
   2204   2208     1
   2204   2206     1
   2204   2207     1
   2206   2232     1
   2206   2211     1
   2206   2209     1
   2206   2210     1
   2207   2232     1
   2207   2211     1
   2207   2209     1
   2207   2210     1
   2208   2213     1
   2208   2214     1
   2208   2223     1
   2208   2224     1
   2209   2212     1
   2209   2222     1
   2210   2212     1
   2210   2222     1
   2211   2216     1
   2211   2217     1
   2211   2226     1
   2211   2227     1
   2212   2223     1
   2212   2224     1
   2213   2222     1
   2213   2218     1
   2213   2216     1
   2213   2217     1
   2214   2222     1
   2214   2218     1
   2214   2216     1
   2214   2217     1
   2215   2221     1
   2216   2219     1
   2216   2220     1
   2217   2219     1
   2217   2220     1
   2219   2221     1
   2223   2228     1
   2223   2226     1
   2223   2227     1
   2224   2228     1
   2224   2226     1
   2224   2227     1
   2225   2231     1
   2226   2229     1
   2226   2230     1
   2227   2229     1
   2227   2230     1
   2229   2231     1
   2233   2240     1
   2233   2241     1
   2234   2239     1
   2234   2237     1
   2234   2238     1
   2235   2239     1
   2235   2237     1
   2235   2238     1
   2237   2242     1
   2237   2240     1
   2237   2241     1
   2237   2263     1
   2238   2242     1
   2238   2240     1
   2238   2241     1
   2238   2263     1
   2239   2244     1
   2239   2245     1
   2239   2254     1
   2239   2255     1
   2240   2243     1
   2240   2253     1
   2241   2243     1
   2241   2253     1
   2242   2247     1
   2242   2248     1
   2242   2257     1
   2242   2258     1
   2243   2254     1
   2243   2255     1
   2244   2249     1
   2244   2247     1
   2244   2248     1
   2244   2253     1
   2245   2249     1
   2245   2247     1
   2245   2248     1
   2245   2253     1
   2246   2252     1
   2247   2250     1
   2247   2251     1
   2248   2250     1
   2248   2251     1
   2250   2252     1
   2254   2259     1
   2254   2257     1
   2254   2258     1
   2255   2259     1
   2255   2257     1
   2255   2258     1
   2256   2262     1
   2257   2260     1
   2257   2261     1
   2258   2260     1
   2258   2261     1
   2260   2262     1
   2264   2271     1
   2264   2272     1
   2265   2270     1
   2265   2268     1
   2265   2269     1
   2266   2270     1
   2266   2268     1
   2266   2269     1
   2268   2294     1
   2268   2273     1
   2268   2271     1
   2268   2272     1
   2269   2294     1
   2269   2273     1
   2269   2271     1
   2269   2272     1
   2270   2275     1
   2270   2276     1
   2270   2285     1
   2270   2286     1
   2271   2274     1
   2271   2284     1
   2272   2274     1
   2272   2284     1
   2273   2278     1
   2273   2279     1
   2273   2288     1
   2273   2289     1
   2274   2285     1
   2274   2286     1
   2275   2284     1
   2275   2280     1
   2275   2278     1
   2275   2279     1
   2276   2284     1
   2276   2280     1
   2276   2278     1
   2276   2279     1
   2277   2283     1
   2278   2281     1
   2278   2282     1
   2279   2281     1
   2279   2282     1
   2281   2283     1
   2285   2290     1
   2285   2288     1
   2285   2289     1
   2286   2290     1
   2286   2288     1
   2286   2289     1
   2287   2293     1
   2288   2291     1
   2288   2292     1
   2289   2291     1
   2289   2292     1
   2291   2293     1
   2295   2302     1
   2295   2303     1
   2296   2301     1
   2296   2299     1
   2296   2300     1
   2297   2301     1
   2297   2299     1
   2297   2300     1
   2299   2304     1
   2299   2302     1
   2299   2303     1
   2299   2325     1
   2300   2304     1
   2300   2302     1
   2300   2303     1
   2300   2325     1
   2301   2306     1
   2301   2307     1
   2301   2316     1
   2301   2317     1
   2302   2305     1
   2302   2315     1
   2303   2305     1
   2303   2315     1
   2304   2309     1
   2304   2310     1
   2304   2319     1
   2304   2320     1
   2305   2316     1
   2305   2317     1
   2306   2311     1
   2306   2309     1
   2306   2310     1
   2306   2315     1
   2307   2311     1
   2307   2309     1
   2307   2310     1
   2307   2315     1
   2308   2314     1
   2309   2312     1
   2309   2313     1
   2310   2312     1
   2310   2313     1
   2312   2314     1
   2316   2321     1
   2316   2319     1
   2316   2320     1
   2317   2321     1
   2317   2319     1
   2317   2320     1
   2318   2324     1
   2319   2322     1
   2319   2323     1
   2320   2322     1
   2320   2323     1
   2322   2324     1
   2326   2333     1
   2326   2334     1
   2327   2332     1
   2327   2330     1
   2327   2331     1
   2328   2332     1
   2328   2330     1
   2328   2331     1
   2330   2356     1
   2330   2335     1
   2330   2333     1
   2330   2334     1
   2331   2356     1
   2331   2335     1
   2331   2333     1
   2331   2334     1
   2332   2337     1
   2332   2338     1
   2332   2347     1
   2332   2348     1
   2333   2336     1
   2333   2346     1
   2334   2336     1
   2334   2346     1
   2335   2340     1
   2335   2341     1
   2335   2350     1
   2335   2351     1
   2336   2347     1
   2336   2348     1
   2337   2346     1
   2337   2342     1
   2337   2340     1
   2337   2341     1
   2338   2346     1
   2338   2342     1
   2338   2340     1
   2338   2341     1
   2339   2345     1
   2340   2343     1
   2340   2344     1
   2341   2343     1
   2341   2344     1
   2343   2345     1
   2347   2352     1
   2347   2350     1
   2347   2351     1
   2348   2352     1
   2348   2350     1
   2348   2351     1
   2349   2355     1
   2350   2353     1
   2350   2354     1
   2351   2353     1
   2351   2354     1
   2353   2355     1
   2357   2364     1
   2357   2365     1
   2358   2363     1
   2358   2361     1
   2358   2362     1
   2359   2363     1
   2359   2361     1
   2359   2362     1
   2361   2366     1
   2361   2364     1
   2361   2365     1
   2361   2387     1
   2362   2366     1
   2362   2364     1
   2362   2365     1
   2362   2387     1
   2363   2368     1
   2363   2369     1
   2363   2378     1
   2363   2379     1
   2364   2367     1
   2364   2377     1
   2365   2367     1
   2365   2377     1
   2366   2371     1
   2366   2372     1
   2366   2381     1
   2366   2382     1
   2367   2378     1
   2367   2379     1
   2368   2373     1
   2368   2371     1
   2368   2372     1
   2368   2377     1
   2369   2373     1
   2369   2371     1
   2369   2372     1
   2369   2377     1
   2370   2376     1
   2371   2374     1
   2371   2375     1
   2372   2374     1
   2372   2375     1
   2374   2376     1
   2378   2383     1
   2378   2381     1
   2378   2382     1
   2379   2383     1
   2379   2381     1
   2379   2382     1
   2380   2386     1
   2381   2384     1
   2381   2385     1
   2382   2384     1
   2382   2385     1
   2384   2386     1
   2388   2395     1
   2388   2396     1
   2389   2394     1
   2389   2392     1
   2389   2393     1
   2390   2394     1
   2390   2392     1
   2390   2393     1
   2392   2418     1
   2392   2397     1
   2392   2395     1
   2392   2396     1
   2393   2418     1
   2393   2397     1
   2393   2395     1
   2393   2396     1
   2394   2399     1
   2394   2400     1
   2394   2409     1
   2394   2410     1
   2395   2398     1
   2395   2408     1
   2396   2398     1
   2396   2408     1
   2397   2402     1
   2397   2403     1
   2397   2412     1
   2397   2413     1
   2398   2409     1
   2398   2410     1
   2399   2408     1
   2399   2404     1
   2399   2402     1
   2399   2403     1
   2400   2408     1
   2400   2404     1
   2400   2402     1
   2400   2403     1
   2401   2407     1
   2402   2405     1
   2402   2406     1
   2403   2405     1
   2403   2406     1
   2405   2407     1
   2409   2414     1
   2409   2412     1
   2409   2413     1
   2410   2414     1
   2410   2412     1
   2410   2413     1
   2411   2417     1
   2412   2415     1
   2412   2416     1
   2413   2415     1
   2413   2416     1
   2415   2417     1
   2419   2426     1
   2419   2427     1
   2420   2425     1
   2420   2423     1
   2420   2424     1
   2421   2425     1
   2421   2423     1
   2421   2424     1
   2423   2428     1
   2423   2426     1
   2423   2427     1
   2423   2449     1
   2424   2428     1
   2424   2426     1
   2424   2427     1
   2424   2449     1
   2425   2430     1
   2425   2431     1
   2425   2440     1
   2425   2441     1
   2426   2429     1
   2426   2439     1
   2427   2429     1
   2427   2439     1
   2428   2433     1
   2428   2434     1
   2428   2443     1
   2428   2444     1
   2429   2440     1
   2429   2441     1
   2430   2435     1
   2430   2433     1
   2430   2434     1
   2430   2439     1
   2431   2435     1
   2431   2433     1
   2431   2434     1
   2431   2439     1
   2432   2438     1
   2433   2436     1
   2433   2437     1
   2434   2436     1
   2434   2437     1
   2436   2438     1
   2440   2445     1
   2440   2443     1
   2440   2444     1
   2441   2445     1
   2441   2443     1
   2441   2444     1
   2442   2448     1
   2443   2446     1
   2443   2447     1
   2444   2446     1
   2444   2447     1
   2446   2448     1
   2450   2457     1
   2450   2458     1
   2451   2456     1
   2451   2454     1
   2451   2455     1
   2452   2456     1
   2452   2454     1
   2452   2455     1
   2454   2480     1
   2454   2459     1
   2454   2457     1
   2454   2458     1
   2455   2480     1
   2455   2459     1
   2455   2457     1
   2455   2458     1
   2456   2461     1
   2456   2462     1
   2456   2471     1
   2456   2472     1
   2457   2460     1
   2457   2470     1
   2458   2460     1
   2458   2470     1
   2459   2464     1
   2459   2465     1
   2459   2474     1
   2459   2475     1
   2460   2471     1
   2460   2472     1
   2461   2470     1
   2461   2466     1
   2461   2464     1
   2461   2465     1
   2462   2470     1
   2462   2466     1
   2462   2464     1
   2462   2465     1
   2463   2469     1
   2464   2467     1
   2464   2468     1
   2465   2467     1
   2465   2468     1
   2467   2469     1
   2471   2476     1
   2471   2474     1
   2471   2475     1
   2472   2476     1
   2472   2474     1
   2472   2475     1
   2473   2479     1
   2474   2477     1
   2474   2478     1
   2475   2477     1
   2475   2478     1
   2477   2479     1
   2481   2488     1
   2481   2489     1
   2482   2487     1
   2482   2485     1
   2482   2486     1
   2483   2487     1
   2483   2485     1
   2483   2486     1
   2485   2490     1
   2485   2488     1
   2485   2489     1
   2485   2511     1
   2486   2490     1
   2486   2488     1
   2486   2489     1
   2486   2511     1
   2487   2492     1
   2487   2493     1
   2487   2502     1
   2487   2503     1
   2488   2491     1
   2488   2501     1
   2489   2491     1
   2489   2501     1
   2490   2495     1
   2490   2496     1
   2490   2505     1
   2490   2506     1
   2491   2502     1
   2491   2503     1
   2492   2497     1
   2492   2495     1
   2492   2496     1
   2492   2501     1
   2493   2497     1
   2493   2495     1
   2493   2496     1
   2493   2501     1
   2494   2500     1
   2495   2498     1
   2495   2499     1
   2496   2498     1
   2496   2499     1
   2498   2500     1
   2502   2507     1
   2502   2505     1
   2502   2506     1
   2503   2507     1
   2503   2505     1
   2503   2506     1
   2504   2510     1
   2505   2508     1
   2505   2509     1
   2506   2508     1
   2506   2509     1
   2508   2510     1
   2512   2519     1
   2512   2520     1
   2513   2518     1
   2513   2516     1
   2513   2517     1
   2514   2518     1
   2514   2516     1
   2514   2517     1
   2516   2542     1
   2516   2521     1
   2516   2519     1
   2516   2520     1
   2517   2542     1
   2517   2521     1
   2517   2519     1
   2517   2520     1
   2518   2523     1
   2518   2524     1
   2518   2533     1
   2518   2534     1
   2519   2522     1
   2519   2532     1
   2520   2522     1
   2520   2532     1
   2521   2526     1
   2521   2527     1
   2521   2536     1
   2521   2537     1
   2522   2533     1
   2522   2534     1
   2523   2532     1
   2523   2528     1
   2523   2526     1
   2523   2527     1
   2524   2532     1
   2524   2528     1
   2524   2526     1
   2524   2527     1
   2525   2531     1
   2526   2529     1
   2526   2530     1
   2527   2529     1
   2527   2530     1
   2529   2531     1
   2533   2538     1
   2533   2536     1
   2533   2537     1
   2534   2538     1
   2534   2536     1
   2534   2537     1
   2535   2541     1
   2536   2539     1
   2536   2540     1
   2537   2539     1
   2537   2540     1
   2539   2541     1
   2543   2550     1
   2543   2551     1
   2544   2549     1
   2544   2547     1
   2544   2548     1
   2545   2549     1
   2545   2547     1
   2545   2548     1
   2547   2552     1
   2547   2550     1
   2547   2551     1
   2547   2573     1
   2548   2552     1
   2548   2550     1
   2548   2551     1
   2548   2573     1
   2549   2554     1
   2549   2555     1
   2549   2564     1
   2549   2565     1
   2550   2553     1
   2550   2563     1
   2551   2553     1
   2551   2563     1
   2552   2557     1
   2552   2558     1
   2552   2567     1
   2552   2568     1
   2553   2564     1
   2553   2565     1
   2554   2559     1
   2554   2557     1
   2554   2558     1
   2554   2563     1
   2555   2559     1
   2555   2557     1
   2555   2558     1
   2555   2563     1
   2556   2562     1
   2557   2560     1
   2557   2561     1
   2558   2560     1
   2558   2561     1
   2560   2562     1
   2564   2569     1
   2564   2567     1
   2564   2568     1
   2565   2569     1
   2565   2567     1
   2565   2568     1
   2566   2572     1
   2567   2570     1
   2567   2571     1
   2568   2570     1
   2568   2571     1
   2570   2572     1
   2574   2581     1
   2574   2582     1
   2575   2580     1
   2575   2578     1
   2575   2579     1
   2576   2580     1
   2576   2578     1
   2576   2579     1
   2578   2604     1
   2578   2583     1
   2578   2581     1
   2578   2582     1
   2579   2604     1
   2579   2583     1
   2579   2581     1
   2579   2582     1
   2580   2585     1
   2580   2586     1
   2580   2595     1
   2580   2596     1
   2581   2584     1
   2581   2594     1
   2582   2584     1
   2582   2594     1
   2583   2588     1
   2583   2589     1
   2583   2598     1
   2583   2599     1
   2584   2595     1
   2584   2596     1
   2585   2594     1
   2585   2590     1
   2585   2588     1
   2585   2589     1
   2586   2594     1
   2586   2590     1
   2586   2588     1
   2586   2589     1
   2587   2593     1
   2588   2591     1
   2588   2592     1
   2589   2591     1
   2589   2592     1
   2591   2593     1
   2595   2600     1
   2595   2598     1
   2595   2599     1
   2596   2600     1
   2596   2598     1
   2596   2599     1
   2597   2603     1
   2598   2601     1
   2598   2602     1
   2599   2601     1
   2599   2602     1
   2601   2603     1
   2605   2612     1
   2605   2613     1
   2606   2611     1
   2606   2609     1
   2606   2610     1
   2607   2611     1
   2607   2609     1
   2607   2610     1
   2609   2614     1
   2609   2612     1
   2609   2613     1
   2609   2635     1
   2610   2614     1
   2610   2612     1
   2610   2613     1
   2610   2635     1
   2611   2616     1
   2611   2617     1
   2611   2626     1
   2611   2627     1
   2612   2615     1
   2612   2625     1
   2613   2615     1
   2613   2625     1
   2614   2619     1
   2614   2620     1
   2614   2629     1
   2614   2630     1
   2615   2626     1
   2615   2627     1
   2616   2621     1
   2616   2619     1
   2616   2620     1
   2616   2625     1
   2617   2621     1
   2617   2619     1
   2617   2620     1
   2617   2625     1
   2618   2624     1
   2619   2622     1
   2619   2623     1
   2620   2622     1
   2620   2623     1
   2622   2624     1
   2626   2631     1
   2626   2629     1
   2626   2630     1
   2627   2631     1
   2627   2629     1
   2627   2630     1
   2628   2634     1
   2629   2632     1
   2629   2633     1
   2630   2632     1
   2630   2633     1
   2632   2634     1
   2636   2643     1
   2636   2644     1
   2637   2642     1
   2637   2640     1
   2637   2641     1
   2638   2642     1
   2638   2640     1
   2638   2641     1
   2640   2666     1
   2640   2645     1
   2640   2643     1
   2640   2644     1
   2641   2666     1
   2641   2645     1
   2641   2643     1
   2641   2644     1
   2642   2647     1
   2642   2648     1
   2642   2657     1
   2642   2658     1
   2643   2646     1
   2643   2656     1
   2644   2646     1
   2644   2656     1
   2645   2650     1
   2645   2651     1
   2645   2660     1
   2645   2661     1
   2646   2657     1
   2646   2658     1
   2647   2656     1
   2647   2652     1
   2647   2650     1
   2647   2651     1
   2648   2656     1
   2648   2652     1
   2648   2650     1
   2648   2651     1
   2649   2655     1
   2650   2653     1
   2650   2654     1
   2651   2653     1
   2651   2654     1
   2653   2655     1
   2657   2662     1
   2657   2660     1
   2657   2661     1
   2658   2662     1
   2658   2660     1
   2658   2661     1
   2659   2665     1
   2660   2663     1
   2660   2664     1
   2661   2663     1
   2661   2664     1
   2663   2665     1
   2667   2674     1
   2667   2675     1
   2668   2673     1
   2668   2671     1
   2668   2672     1
   2669   2673     1
   2669   2671     1
   2669   2672     1
   2671   2676     1
   2671   2674     1
   2671   2675     1
   2671   2697     1
   2672   2676     1
   2672   2674     1
   2672   2675     1
   2672   2697     1
   2673   2678     1
   2673   2679     1
   2673   2688     1
   2673   2689     1
   2674   2677     1
   2674   2687     1
   2675   2677     1
   2675   2687     1
   2676   2681     1
   2676   2682     1
   2676   2691     1
   2676   2692     1
   2677   2688     1
   2677   2689     1
   2678   2683     1
   2678   2681     1
   2678   2682     1
   2678   2687     1
   2679   2683     1
   2679   2681     1
   2679   2682     1
   2679   2687     1
   2680   2686     1
   2681   2684     1
   2681   2685     1
   2682   2684     1
   2682   2685     1
   2684   2686     1
   2688   2693     1
   2688   2691     1
   2688   2692     1
   2689   2693     1
   2689   2691     1
   2689   2692     1
   2690   2696     1
   2691   2694     1
   2691   2695     1
   2692   2694     1
   2692   2695     1
   2694   2696     1
   2698   2705     1
   2698   2706     1
   2699   2704     1
   2699   2702     1
   2699   2703     1
   2700   2704     1
   2700   2702     1
   2700   2703     1
   2702   2728     1
   2702   2707     1
   2702   2705     1
   2702   2706     1
   2703   2728     1
   2703   2707     1
   2703   2705     1
   2703   2706     1
   2704   2709     1
   2704   2710     1
   2704   2719     1
   2704   2720     1
   2705   2708     1
   2705   2718     1
   2706   2708     1
   2706   2718     1
   2707   2712     1
   2707   2713     1
   2707   2722     1
   2707   2723     1
   2708   2719     1
   2708   2720     1
   2709   2718     1
   2709   2714     1
   2709   2712     1
   2709   2713     1
   2710   2718     1
   2710   2714     1
   2710   2712     1
   2710   2713     1
   2711   2717     1
   2712   2715     1
   2712   2716     1
   2713   2715     1
   2713   2716     1
   2715   2717     1
   2719   2724     1
   2719   2722     1
   2719   2723     1
   2720   2724     1
   2720   2722     1
   2720   2723     1
   2721   2727     1
   2722   2725     1
   2722   2726     1
   2723   2725     1
   2723   2726     1
   2725   2727     1
   2729   2736     1
   2729   2737     1
   2730   2735     1
   2730   2733     1
   2730   2734     1
   2731   2735     1
   2731   2733     1
   2731   2734     1
   2733   2738     1
   2733   2736     1
   2733   2737     1
   2733   2759     1
   2734   2738     1
   2734   2736     1
   2734   2737     1
   2734   2759     1
   2735   2740     1
   2735   2741     1
   2735   2750     1
   2735   2751     1
   2736   2739     1
   2736   2749     1
   2737   2739     1
   2737   2749     1
   2738   2743     1
   2738   2744     1
   2738   2753     1
   2738   2754     1
   2739   2750     1
   2739   2751     1
   2740   2745     1
   2740   2743     1
   2740   2744     1
   2740   2749     1
   2741   2745     1
   2741   2743     1
   2741   2744     1
   2741   2749     1
   2742   2748     1
   2743   2746     1
   2743   2747     1
   2744   2746     1
   2744   2747     1
   2746   2748     1
   2750   2755     1
   2750   2753     1
   2750   2754     1
   2751   2755     1
   2751   2753     1
   2751   2754     1
   2752   2758     1
   2753   2756     1
   2753   2757     1
   2754   2756     1
   2754   2757     1
   2756   2758     1
   2760   2767     1
   2760   2768     1
   2761   2766     1
   2761   2764     1
   2761   2765     1
   2762   2766     1
   2762   2764     1
   2762   2765     1
   2764   2790     1
   2764   2769     1
   2764   2767     1
   2764   2768     1
   2765   2790     1
   2765   2769     1
   2765   2767     1
   2765   2768     1
   2766   2771     1
   2766   2772     1
   2766   2781     1
   2766   2782     1
   2767   2770     1
   2767   2780     1
   2768   2770     1
   2768   2780     1
   2769   2774     1
   2769   2775     1
   2769   2784     1
   2769   2785     1
   2770   2781     1
   2770   2782     1
   2771   2780     1
   2771   2776     1
   2771   2774     1
   2771   2775     1
   2772   2780     1
   2772   2776     1
   2772   2774     1
   2772   2775     1
   2773   2779     1
   2774   2777     1
   2774   2778     1
   2775   2777     1
   2775   2778     1
   2777   2779     1
   2781   2786     1
   2781   2784     1
   2781   2785     1
   2782   2786     1
   2782   2784     1
   2782   2785     1
   2783   2789     1
   2784   2787     1
   2784   2788     1
   2785   2787     1
   2785   2788     1
   2787   2789     1
   2791   2798     1
   2791   2799     1
   2792   2797     1
   2792   2795     1
   2792   2796     1
   2793   2797     1
   2793   2795     1
   2793   2796     1
   2795   2800     1
   2795   2798     1
   2795   2799     1
   2795   2821     1
   2796   2800     1
   2796   2798     1
   2796   2799     1
   2796   2821     1
   2797   2802     1
   2797   2803     1
   2797   2812     1
   2797   2813     1
   2798   2801     1
   2798   2811     1
   2799   2801     1
   2799   2811     1
   2800   2805     1
   2800   2806     1
   2800   2815     1
   2800   2816     1
   2801   2812     1
   2801   2813     1
   2802   2807     1
   2802   2805     1
   2802   2806     1
   2802   2811     1
   2803   2807     1
   2803   2805     1
   2803   2806     1
   2803   2811     1
   2804   2810     1
   2805   2808     1
   2805   2809     1
   2806   2808     1
   2806   2809     1
   2808   2810     1
   2812   2817     1
   2812   2815     1
   2812   2816     1
   2813   2817     1
   2813   2815     1
   2813   2816     1
   2814   2820     1
   2815   2818     1
   2815   2819     1
   2816   2818     1
   2816   2819     1
   2818   2820     1

[ angles ]
;    ai     aj     ak funct         c0         c1         c2         c3
      1      2     14     1   111.0400475 552.288000
      1      5     17     1   111.0400475 552.288000
      1      8     11     1   111.0400475 552.288000
      2      1      5     1   112.3500484 533.878400
      2      1      8     1   112.3500484 533.878400
      2     14     26     1   111.5100476 526.347200
      5      1      8     1   112.3500484 533.878400
      5     17     20     1   111.5100476 526.347200
      8     11     23     1   111.5100476 526.347200
     11     23     86     1   107.9700462 569.024000
     14     26    115     1   107.9700462 569.024000
     17     20     57     1   107.9700462 569.024000
     20     57     48     1   112.4800480 524.673600
     23     86     77     1   112.4800480 524.673600
     26    115    106     1   112.4800480 524.673600
     29     30     42     1   111.0400475 552.288000
     29     33     45     1   111.0400475 552.288000
     29     36     39     1   111.0400475 552.288000
     30     29     33     1   112.3500484 533.878400
     30     29     36     1   112.3500484 533.878400
     30     42     54     1   111.5100476 526.347200
     33     29     36     1   112.3500484 533.878400
     33     45     51     1   111.5100476 526.347200
     36     39     48     1   111.5100476 526.347200
     39     48     57     1   107.9700462 569.024000
     42     54    173     1   107.9700462 569.024000
     45     51    144     1   107.9700462 569.024000
     51    144    135     1   112.4800480 524.673600
     54    173    164     1   112.4800480 524.673600
     58     59     71     1   111.0400475 552.288000
     58     62     74     1   111.0400475 552.288000
     58     65     68     1   111.0400475 552.288000
     59     58     62     1   112.3500484 533.878400
     59     58     65     1   112.3500484 533.878400
     59     71     83     1   111.5100476 526.347200
     62     58     65     1   112.3500484 533.878400
     62     74     80     1   111.5100476 526.347200
     65     68     77     1   111.5100476 526.347200
     68     77     86     1   107.9700462 569.024000
     71     83    231     1   107.9700462 569.024000
     74     80    202     1   107.9700462 569.024000
     80    202    193     1   112.4800480 524.673600
     83    231    222     1   112.4800480 524.673600
     87     88    100     1   111.0400475 552.288000
     87     91    103     1   111.0400475 552.288000
     87     94     97     1   111.0400475 552.288000
     88     87     91     1   112.3500484 533.878400
     88     87     94     1   112.3500484 533.878400
     88    100    112     1   111.5100476 526.347200
     91     87     94     1   112.3500484 533.878400
     91    103    109     1   111.5100476 526.347200
     94     97    106     1   111.5100476 526.347200
     97    106    115     1   107.9700462 569.024000
    100    112    289     1   107.9700462 569.024000
    103    109    260     1   107.9700462 569.024000
    109    260    251     1   112.4800480 524.673600
    112    289    280     1   112.4800480 524.673600
    116    117    129     1   111.0400475 552.288000
    116    120    132     1   111.0400475 552.288000
    116    123    126     1   111.0400475 552.288000
    117    116    120     1   112.3500484 533.878400
    117    116    123     1   112.3500484 533.878400
    117    129    141     1   111.5100476 526.347200
    120    116    123     1   112.3500484 533.878400
    120    132    138     1   111.5100476 526.347200
    123    126    135     1   111.5100476 526.347200
    126    135    144     1   107.9700462 569.024000
    129    141    347     1   107.9700462 569.024000
    132    138    318     1   107.9700462 569.024000
    138    318    309     1   112.4800480 524.673600
    141    347    338     1   112.4800480 524.673600
    145    146    158     1   111.0400475 552.288000
    145    149    161     1   111.0400475 552.288000
    145    152    155     1   111.0400475 552.288000
    146    145    149     1   112.3500484 533.878400
    146    145    152     1   112.3500484 533.878400
    146    158    170     1   111.5100476 526.347200
    149    145    152     1   112.3500484 533.878400
    149    161    167     1   111.5100476 526.347200
    152    155    164     1   111.5100476 526.347200
    155    164    173     1   107.9700462 569.024000
    158    170    405     1   107.9700462 569.024000
    161    167    376     1   107.9700462 569.024000
    167    376    367     1   112.4800480 524.673600
    170    405    396     1   112.4800480 524.673600
    174    175    187     1   111.0400475 552.288000
    174    178    190     1   111.0400475 552.288000
    174    181    184     1   111.0400475 552.288000
    175    174    178     1   112.3500484 533.878400
    175    174    181     1   112.3500484 533.878400
    175    187    199     1   111.5100476 526.347200
    178    174    181     1   112.3500484 533.878400
    178    190    196     1   111.5100476 526.347200
    181    184    193     1   111.5100476 526.347200
    184    193    202     1   107.9700462 569.024000
    187    199    463     1   107.9700462 569.024000
    190    196    434     1   107.9700462 569.024000
    196    434    425     1   112.4800480 524.673600
    199    463    454     1   112.4800480 524.673600
    203    204    216     1   111.0400475 552.288000
    203    207    219     1   111.0400475 552.288000
    203    210    213     1   111.0400475 552.288000
    204    203    207     1   112.3500484 533.878400
    204    203    210     1   112.3500484 533.878400
    204    216    228     1   111.5100476 526.347200
    207    203    210     1   112.3500484 533.878400
    207    219    225     1   111.5100476 526.347200
    210    213    222     1   111.5100476 526.347200
    213    222    231     1   107.9700462 569.024000
    216    228    521     1   107.9700462 569.024000
    219    225    492     1   107.9700462 569.024000
    225    492    483     1   112.4800480 524.673600
    228    521    512     1   112.4800480 524.673600
    232    233    245     1   111.0400475 552.288000
    232    236    248     1   111.0400475 552.288000
    232    239    242     1   111.0400475 552.288000
    233    232    236     1   112.3500484 533.878400
    233    232    239     1   112.3500484 533.878400
    233    245    257     1   111.5100476 526.347200
    236    232    239     1   112.3500484 533.878400
    236    248    254     1   111.5100476 526.347200
    239    242    251     1   111.5100476 526.347200
    242    251    260     1   107.9700462 569.024000
    245    257    579     1   107.9700462 569.024000
    248    254    550     1   107.9700462 569.024000
    254    550    541     1   112.4800480 524.673600
    257    579    570     1   112.4800480 524.673600
    261    262    274     1   111.0400475 552.288000
    261    265    277     1   111.0400475 552.288000
    261    268    271     1   111.0400475 552.288000
    262    261    265     1   112.3500484 533.878400
    262    261    268     1   112.3500484 533.878400
    262    274    286     1   111.5100476 526.347200
    265    261    268     1   112.3500484 533.878400
    265    277    283     1   111.5100476 526.347200
    268    271    280     1   111.5100476 526.347200
    271    280    289     1   107.9700462 569.024000
    274    286    637     1   107.9700462 569.024000
    277    283    608     1   107.9700462 569.024000
    283    608    599     1   112.4800480 524.673600
    286    637    628     1   112.4800480 524.673600
    290    291    303     1   111.0400475 552.288000
    290    294    306     1   111.0400475 552.288000
    290    297    300     1   111.0400475 552.288000
    291    290    294     1   112.3500484 533.878400
    291    290    297     1   112.3500484 533.878400
    291    303    315     1   111.5100476 526.347200
    294    290    297     1   112.3500484 533.878400
    294    306    312     1   111.5100476 526.347200
    297    300    309     1   111.5100476 526.347200
    300    309    318     1   107.9700462 569.024000
    303    315    695     1   107.9700462 569.024000
    306    312    666     1   107.9700462 569.024000
    312    666    657     1   112.4800480 524.673600
    315    695    686     1   112.4800480 524.673600
    319    320    332     1   111.0400475 552.288000
    319    323    335     1   111.0400475 552.288000
    319    326    329     1   111.0400475 552.288000
    320    319    323     1   112.3500484 533.878400
    320    319    326     1   112.3500484 533.878400
    320    332    344     1   111.5100476 526.347200
    323    319    326     1   112.3500484 533.878400
    323    335    341     1   111.5100476 526.347200
    326    329    338     1   111.5100476 526.347200
    329    338    347     1   107.9700462 569.024000
    332    344    753     1   107.9700462 569.024000
    335    341    724     1   107.9700462 569.024000
    341    724    715     1   112.4800480 524.673600
    344    753    744     1   112.4800480 524.673600
    348    349    361     1   111.0400475 552.288000
    348    352    364     1   111.0400475 552.288000
    348    355    358     1   111.0400475 552.288000
    349    348    352     1   112.3500484 533.878400
    349    348    355     1   112.3500484 533.878400
    349    361    373     1   111.5100476 526.347200
    352    348    355     1   112.3500484 533.878400
    352    364    370     1   111.5100476 526.347200
    355    358    367     1   111.5100476 526.347200
    358    367    376     1   107.9700462 569.024000
    361    373    811     1   107.9700462 569.024000
    364    370    782     1   107.9700462 569.024000
    370    782    773     1   112.4800480 524.673600
    373    811    802     1   112.4800480 524.673600
    377    378    390     1   111.0400475 552.288000
    377    381    393     1   111.0400475 552.288000
    377    384    387     1   111.0400475 552.288000
    378    377    381     1   112.3500484 533.878400
    378    377    384     1   112.3500484 533.878400
    378    390    402     1   111.5100476 526.347200
    381    377    384     1   112.3500484 533.878400
    381    393    399     1   111.5100476 526.347200
    384    387    396     1   111.5100476 526.347200
    387    396    405     1   107.9700462 569.024000
    390    402    869     1   107.9700462 569.024000
    393    399    840     1   107.9700462 569.024000
    399    840    831     1   112.4800480 524.673600
    402    869    860     1   112.4800480 524.673600
    406    407    419     1   111.0400475 552.288000
    406    410    422     1   111.0400475 552.288000
    406    413    416     1   111.0400475 552.288000
    407    406    410     1   112.3500484 533.878400
    407    406    413     1   112.3500484 533.878400
    407    419    431     1   111.5100476 526.347200
    410    406    413     1   112.3500484 533.878400
    410    422    428     1   111.5100476 526.347200
    413    416    425     1   111.5100476 526.347200
    416    425    434     1   107.9700462 569.024000
    419    431    927     1   107.9700462 569.024000
    422    428    898     1   107.9700462 569.024000
    428    898    889     1   112.4800480 524.673600
    431    927    918     1   112.4800480 524.673600
    435    436    448     1   111.0400475 552.288000
    435    439    451     1   111.0400475 552.288000
    435    442    445     1   111.0400475 552.288000
    436    435    439     1   112.3500484 533.878400
    436    435    442     1   112.3500484 533.878400
    436    448    460     1   111.5100476 526.347200
    439    435    442     1   112.3500484 533.878400
    439    451    457     1   111.5100476 526.347200
    442    445    454     1   111.5100476 526.347200
    445    454    463     1   107.9700462 569.024000
    448    460    985     1   107.9700462 569.024000
    451    457    956     1   107.9700462 569.024000
    457    956    947     1   112.4800480 524.673600
    460    985    976     1   112.4800480 524.673600
    464    465    477     1   111.0400475 552.288000
    464    468    480     1   111.0400475 552.288000
    464    471    474     1   111.0400475 552.288000
    465    464    468     1   112.3500484 533.878400
    465    464    471     1   112.3500484 533.878400
    465    477    489     1   111.5100476 526.347200
    468    464    471     1   112.3500484 533.878400
    468    480    486     1   111.5100476 526.347200
    471    474    483     1   111.5100476 526.347200
    474    483    492     1   107.9700462 569.024000
    477    489   1043     1   107.9700462 569.024000
    480    486   1014     1   107.9700462 569.024000
    486   1014   1005     1   112.4800480 524.673600
    489   1043   1034     1   112.4800480 524.673600
    493    494    506     1   111.0400475 552.288000
    493    497    509     1   111.0400475 552.288000
    493    500    503     1   111.0400475 552.288000
    494    493    497     1   112.3500484 533.878400
    494    493    500     1   112.3500484 533.878400
    494    506    518     1   111.5100476 526.347200
    497    493    500     1   112.3500484 533.878400
    497    509    515     1   111.5100476 526.347200
    500    503    512     1   111.5100476 526.347200
    503    512    521     1   107.9700462 569.024000
    506    518   1101     1   107.9700462 569.024000
    509    515   1072     1   107.9700462 569.024000
    515   1072   1063     1   112.4800480 524.673600
    518   1101   1092     1   112.4800480 524.673600
    522    523    535     1   111.0400475 552.288000
    522    526    538     1   111.0400475 552.288000
    522    529    532     1   111.0400475 552.288000
    523    522    526     1   112.3500484 533.878400
    523    522    529     1   112.3500484 533.878400
    523    535    547     1   111.5100476 526.347200
    526    522    529     1   112.3500484 533.878400
    526    538    544     1   111.5100476 526.347200
    529    532    541     1   111.5100476 526.347200
    532    541    550     1   107.9700462 569.024000
    535    547   1159     1   107.9700462 569.024000
    538    544   1130     1   107.9700462 569.024000
    544   1130   1121     1   112.4800480 524.673600
    547   1159   1150     1   112.4800480 524.673600
    551    552    564     1   111.0400475 552.288000
    551    555    567     1   111.0400475 552.288000
    551    558    561     1   111.0400475 552.288000
    552    551    555     1   112.3500484 533.878400
    552    551    558     1   112.3500484 533.878400
    552    564    576     1   111.5100476 526.347200
    555    551    558     1   112.3500484 533.878400
    555    567    573     1   111.5100476 526.347200
    558    561    570     1   111.5100476 526.347200
    561    570    579     1   107.9700462 569.024000
    564    576   1217     1   107.9700462 569.024000
    567    573   1188     1   107.9700462 569.024000
    573   1188   1179     1   112.4800480 524.673600
    576   1217   1208     1   112.4800480 524.673600
    580    581    593     1   111.0400475 552.288000
    580    584    596     1   111.0400475 552.288000
    580    587    590     1   111.0400475 552.288000
    581    580    584     1   112.3500484 533.878400
    581    580    587     1   112.3500484 533.878400
    581    593    605     1   111.5100476 526.347200
    584    580    587     1   112.3500484 533.878400
    584    596    602     1   111.5100476 526.347200
    587    590    599     1   111.5100476 526.347200
    590    599    608     1   107.9700462 569.024000
    593    605   1275     1   107.9700462 569.024000
    596    602   1246     1   107.9700462 569.024000
    602   1246   1237     1   112.4800480 524.673600
    605   1275   1266     1   112.4800480 524.673600
    609    610    622     1   111.0400475 552.288000
    609    613    625     1   111.0400475 552.288000
    609    616    619     1   111.0400475 552.288000
    610    609    613     1   112.3500484 533.878400
    610    609    616     1   112.3500484 533.878400
    610    622    634     1   111.5100476 526.347200
    613    609    616     1   112.3500484 533.878400
    613    625    631     1   111.5100476 526.347200
    616    619    628     1   111.5100476 526.347200
    619    628    637     1   107.9700462 569.024000
    622    634   1333     1   107.9700462 569.024000
    625    631   1304     1   107.9700462 569.024000
    631   1304   1295     1   112.4800480 524.673600
    634   1333   1324     1   112.4800480 524.673600
    638    639    651     1   111.0400475 552.288000
    638    642    654     1   111.0400475 552.288000
    638    645    648     1   111.0400475 552.288000
    639    638    642     1   112.3500484 533.878400
    639    638    645     1   112.3500484 533.878400
    639    651    663     1   111.5100476 526.347200
    642    638    645     1   112.3500484 533.878400
    642    654    660     1   111.5100476 526.347200
    645    648    657     1   111.5100476 526.347200
    648    657    666     1   107.9700462 569.024000
    651    663   1395     1   107.9700462 569.024000
    654    660   1364     1   107.9700462 569.024000
    660   1364   1334     1   112.4800480 524.673600
    663   1395   1365     1   112.4800480 524.673600
    667    668    680     1   111.0400475 552.288000
    667    671    683     1   111.0400475 552.288000
    667    674    677     1   111.0400475 552.288000
    668    667    671     1   112.3500484 533.878400
    668    667    674     1   112.3500484 533.878400
    668    680    692     1   111.5100476 526.347200
    671    667    674     1   112.3500484 533.878400
    671    683    689     1   111.5100476 526.347200
    674    677    686     1   111.5100476 526.347200
    677    686    695     1   107.9700462 569.024000
    680    692   1457     1   107.9700462 569.024000
    683    689   1426     1   107.9700462 569.024000
    689   1426   1396     1   112.4800480 524.673600
    692   1457   1427     1   112.4800480 524.673600
    696    697    709     1   111.0400475 552.288000
    696    700    712     1   111.0400475 552.288000
    696    703    706     1   111.0400475 552.288000
    697    696    700     1   112.3500484 533.878400
    697    696    703     1   112.3500484 533.878400
    697    709    721     1   111.5100476 526.347200
    700    696    703     1   112.3500484 533.878400
    700    712    718     1   111.5100476 526.347200
    703    706    715     1   111.5100476 526.347200
    706    715    724     1   107.9700462 569.024000
    709    721   1519     1   107.9700462 569.024000
    712    718   1488     1   107.9700462 569.024000
    718   1488   1458     1   112.4800480 524.673600
    721   1519   1489     1   112.4800480 524.673600
    725    726    738     1   111.0400475 552.288000
    725    729    741     1   111.0400475 552.288000
    725    732    735     1   111.0400475 552.288000
    726    725    729     1   112.3500484 533.878400
    726    725    732     1   112.3500484 533.878400
    726    738    750     1   111.5100476 526.347200
    729    725    732     1   112.3500484 533.878400
    729    741    747     1   111.5100476 526.347200
    732    735    744     1   111.5100476 526.347200
    735    744    753     1   107.9700462 569.024000
    738    750   1581     1   107.9700462 569.024000
    741    747   1550     1   107.9700462 569.024000
    747   1550   1520     1   112.4800480 524.673600
    750   1581   1551     1   112.4800480 524.673600
    754    755    767     1   111.0400475 552.288000
    754    758    770     1   111.0400475 552.288000
    754    761    764     1   111.0400475 552.288000
    755    754    758     1   112.3500484 533.878400
    755    754    761     1   112.3500484 533.878400
    755    767    779     1   111.5100476 526.347200
    758    754    761     1   112.3500484 533.878400
    758    770    776     1   111.5100476 526.347200
    761    764    773     1   111.5100476 526.347200
    764    773    782     1   107.9700462 569.024000
    767    779   1643     1   107.9700462 569.024000
    770    776   1612     1   107.9700462 569.024000
    776   1612   1582     1   112.4800480 524.673600
    779   1643   1613     1   112.4800480 524.673600
    783    784    796     1   111.0400475 552.288000
    783    787    799     1   111.0400475 552.288000
    783    790    793     1   111.0400475 552.288000
    784    783    787     1   112.3500484 533.878400
    784    783    790     1   112.3500484 533.878400
    784    796    808     1   111.5100476 526.347200
    787    783    790     1   112.3500484 533.878400
    787    799    805     1   111.5100476 526.347200
    790    793    802     1   111.5100476 526.347200
    793    802    811     1   107.9700462 569.024000
    796    808   1705     1   107.9700462 569.024000
    799    805   1674     1   107.9700462 569.024000
    805   1674   1644     1   112.4800480 524.673600
    808   1705   1675     1   112.4800480 524.673600
    812    813    825     1   111.0400475 552.288000
    812    816    828     1   111.0400475 552.288000
    812    819    822     1   111.0400475 552.288000
    813    812    816     1   112.3500484 533.878400
    813    812    819     1   112.3500484 533.878400
    813    825    837     1   111.5100476 526.347200
    816    812    819     1   112.3500484 533.878400
    816    828    834     1   111.5100476 526.347200
    819    822    831     1   111.5100476 526.347200
    822    831    840     1   107.9700462 569.024000
    825    837   1767     1   107.9700462 569.024000
    828    834   1736     1   107.9700462 569.024000
    834   1736   1706     1   112.4800480 524.673600
    837   1767   1737     1   112.4800480 524.673600
    841    842    854     1   111.0400475 552.288000
    841    845    857     1   111.0400475 552.288000
    841    848    851     1   111.0400475 552.288000
    842    841    845     1   112.3500484 533.878400
    842    841    848     1   112.3500484 533.878400
    842    854    866     1   111.5100476 526.347200
    845    841    848     1   112.3500484 533.878400
    845    857    863     1   111.5100476 526.347200
    848    851    860     1   111.5100476 526.347200
    851    860    869     1   107.9700462 569.024000
    854    866   1829     1   107.9700462 569.024000
    857    863   1798     1   107.9700462 569.024000
    863   1798   1768     1   112.4800480 524.673600
    866   1829   1799     1   112.4800480 524.673600
    870    871    883     1   111.0400475 552.288000
    870    874    886     1   111.0400475 552.288000
    870    877    880     1   111.0400475 552.288000
    871    870    874     1   112.3500484 533.878400
    871    870    877     1   112.3500484 533.878400
    871    883    895     1   111.5100476 526.347200
    874    870    877     1   112.3500484 533.878400
    874    886    892     1   111.5100476 526.347200
    877    880    889     1   111.5100476 526.347200
    880    889    898     1   107.9700462 569.024000
    883    895   1891     1   107.9700462 569.024000
    886    892   1860     1   107.9700462 569.024000
    892   1860   1830     1   112.4800480 524.673600
    895   1891   1861     1   112.4800480 524.673600
    899    900    912     1   111.0400475 552.288000
    899    903    915     1   111.0400475 552.288000
    899    906    909     1   111.0400475 552.288000
    900    899    903     1   112.3500484 533.878400
    900    899    906     1   112.3500484 533.878400
    900    912    924     1   111.5100476 526.347200
    903    899    906     1   112.3500484 533.878400
    903    915    921     1   111.5100476 526.347200
    906    909    918     1   111.5100476 526.347200
    909    918    927     1   107.9700462 569.024000
    912    924   1953     1   107.9700462 569.024000
    915    921   1922     1   107.9700462 569.024000
    921   1922   1892     1   112.4800480 524.673600
    924   1953   1923     1   112.4800480 524.673600
    928    929    941     1   111.0400475 552.288000
    928    932    944     1   111.0400475 552.288000
    928    935    938     1   111.0400475 552.288000
    929    928    932     1   112.3500484 533.878400
    929    928    935     1   112.3500484 533.878400
    929    941    953     1   111.5100476 526.347200
    932    928    935     1   112.3500484 533.878400
    932    944    950     1   111.5100476 526.347200
    935    938    947     1   111.5100476 526.347200
    938    947    956     1   107.9700462 569.024000
    941    953   2015     1   107.9700462 569.024000
    944    950   1984     1   107.9700462 569.024000
    950   1984   1954     1   112.4800480 524.673600
    953   2015   1985     1   112.4800480 524.673600
    957    958    970     1   111.0400475 552.288000
    957    961    973     1   111.0400475 552.288000
    957    964    967     1   111.0400475 552.288000
    958    957    961     1   112.3500484 533.878400
    958    957    964     1   112.3500484 533.878400
    958    970    982     1   111.5100476 526.347200
    961    957    964     1   112.3500484 533.878400
    961    973    979     1   111.5100476 526.347200
    964    967    976     1   111.5100476 526.347200
    967    976    985     1   107.9700462 569.024000
    970    982   2077     1   107.9700462 569.024000
    973    979   2046     1   107.9700462 569.024000
    979   2046   2016     1   112.4800480 524.673600
    982   2077   2047     1   112.4800480 524.673600
    986    987    999     1   111.0400475 552.288000
    986    990   1002     1   111.0400475 552.288000
    986    993    996     1   111.0400475 552.288000
    987    986    990     1   112.3500484 533.878400
    987    986    993     1   112.3500484 533.878400
    987    999   1011     1   111.5100476 526.347200
    990    986    993     1   112.3500484 533.878400
    990   1002   1008     1   111.5100476 526.347200
    993    996   1005     1   111.5100476 526.347200
    996   1005   1014     1   107.9700462 569.024000
    999   1011   2139     1   107.9700462 569.024000
   1002   1008   2108     1   107.9700462 569.024000
   1008   2108   2078     1   112.4800480 524.673600
   1011   2139   2109     1   112.4800480 524.673600
   1015   1016   1028     1   111.0400475 552.288000
   1015   1019   1031     1   111.0400475 552.288000
   1015   1022   1025     1   111.0400475 552.288000
   1016   1015   1019     1   112.3500484 533.878400
   1016   1015   1022     1   112.3500484 533.878400
   1016   1028   1040     1   111.5100476 526.347200
   1019   1015   1022     1   112.3500484 533.878400
   1019   1031   1037     1   111.5100476 526.347200
   1022   1025   1034     1   111.5100476 526.347200
   1025   1034   1043     1   107.9700462 569.024000
   1028   1040   2201     1   107.9700462 569.024000
   1031   1037   2170     1   107.9700462 569.024000
   1037   2170   2140     1   112.4800480 524.673600
   1040   2201   2171     1   112.4800480 524.673600
   1044   1045   1057     1   111.0400475 552.288000
   1044   1048   1060     1   111.0400475 552.288000
   1044   1051   1054     1   111.0400475 552.288000
   1045   1044   1048     1   112.3500484 533.878400
   1045   1044   1051     1   112.3500484 533.878400
   1045   1057   1069     1   111.5100476 526.347200
   1048   1044   1051     1   112.3500484 533.878400
   1048   1060   1066     1   111.5100476 526.347200
   1051   1054   1063     1   111.5100476 526.347200
   1054   1063   1072     1   107.9700462 569.024000
   1057   1069   2263     1   107.9700462 569.024000
   1060   1066   2232     1   107.9700462 569.024000
   1066   2232   2202     1   112.4800480 524.673600
   1069   2263   2233     1   112.4800480 524.673600
   1073   1074   1086     1   111.0400475 552.288000
   1073   1077   1089     1   111.0400475 552.288000
   1073   1080   1083     1   111.0400475 552.288000
   1074   1073   1077     1   112.3500484 533.878400
   1074   1073   1080     1   112.3500484 533.878400
   1074   1086   1098     1   111.5100476 526.347200
   1077   1073   1080     1   112.3500484 533.878400
   1077   1089   1095     1   111.5100476 526.347200
   1080   1083   1092     1   111.5100476 526.347200
   1083   1092   1101     1   107.9700462 569.024000
   1086   1098   2325     1   107.9700462 569.024000
   1089   1095   2294     1   107.9700462 569.024000
   1095   2294   2264     1   112.4800480 524.673600
   1098   2325   2295     1   112.4800480 524.673600
   1102   1103   1115     1   111.0400475 552.288000
   1102   1106   1118     1   111.0400475 552.288000
   1102   1109   1112     1   111.0400475 552.288000
   1103   1102   1106     1   112.3500484 533.878400
   1103   1102   1109     1   112.3500484 533.878400
   1103   1115   1127     1   111.5100476 526.347200
   1106   1102   1109     1   112.3500484 533.878400
   1106   1118   1124     1   111.5100476 526.347200
   1109   1112   1121     1   111.5100476 526.347200
   1112   1121   1130     1   107.9700462 569.024000
   1115   1127   2387     1   107.9700462 569.024000
   1118   1124   2356     1   107.9700462 569.024000
   1124   2356   2326     1   112.4800480 524.673600
   1127   2387   2357     1   112.4800480 524.673600
   1131   1132   1144     1   111.0400475 552.288000
   1131   1135   1147     1   111.0400475 552.288000
   1131   1138   1141     1   111.0400475 552.288000
   1132   1131   1135     1   112.3500484 533.878400
   1132   1131   1138     1   112.3500484 533.878400
   1132   1144   1156     1   111.5100476 526.347200
   1135   1131   1138     1   112.3500484 533.878400
   1135   1147   1153     1   111.5100476 526.347200
   1138   1141   1150     1   111.5100476 526.347200
   1141   1150   1159     1   107.9700462 569.024000
   1144   1156   2449     1   107.9700462 569.024000
   1147   1153   2418     1   107.9700462 569.024000
   1153   2418   2388     1   112.4800480 524.673600
   1156   2449   2419     1   112.4800480 524.673600
   1160   1161   1173     1   111.0400475 552.288000
   1160   1164   1176     1   111.0400475 552.288000
   1160   1167   1170     1   111.0400475 552.288000
   1161   1160   1164     1   112.3500484 533.878400
   1161   1160   1167     1   112.3500484 533.878400
   1161   1173   1185     1   111.5100476 526.347200
   1164   1160   1167     1   112.3500484 533.878400
   1164   1176   1182     1   111.5100476 526.347200
   1167   1170   1179     1   111.5100476 526.347200
   1170   1179   1188     1   107.9700462 569.024000
   1173   1185   2511     1   107.9700462 569.024000
   1176   1182   2480     1   107.9700462 569.024000
   1182   2480   2450     1   112.4800480 524.673600
   1185   2511   2481     1   112.4800480 524.673600
   1189   1190   1202     1   111.0400475 552.288000
   1189   1193   1205     1   111.0400475 552.288000
   1189   1196   1199     1   111.0400475 552.288000
   1190   1189   1193     1   112.3500484 533.878400
   1190   1189   1196     1   112.3500484 533.878400
   1190   1202   1214     1   111.5100476 526.347200
   1193   1189   1196     1   112.3500484 533.878400
   1193   1205   1211     1   111.5100476 526.347200
   1196   1199   1208     1   111.5100476 526.347200
   1199   1208   1217     1   107.9700462 569.024000
   1202   1214   2573     1   107.9700462 569.024000
   1205   1211   2542     1   107.9700462 569.024000
   1211   2542   2512     1   112.4800480 524.673600
   1214   2573   2543     1   112.4800480 524.673600
   1218   1219   1231     1   111.0400475 552.288000
   1218   1222   1234     1   111.0400475 552.288000
   1218   1225   1228     1   111.0400475 552.288000
   1219   1218   1222     1   112.3500484 533.878400
   1219   1218   1225     1   112.3500484 533.878400
   1219   1231   1243     1   111.5100476 526.347200
   1222   1218   1225     1   112.3500484 533.878400
   1222   1234   1240     1   111.5100476 526.347200
   1225   1228   1237     1   111.5100476 526.347200
   1228   1237   1246     1   107.9700462 569.024000
   1231   1243   2635     1   107.9700462 569.024000
   1234   1240   2604     1   107.9700462 569.024000
   1240   2604   2574     1   112.4800480 524.673600
   1243   2635   2605     1   112.4800480 524.673600
   1247   1248   1260     1   111.0400475 552.288000
   1247   1251   1263     1   111.0400475 552.288000
   1247   1254   1257     1   111.0400475 552.288000
   1248   1247   1251     1   112.3500484 533.878400
   1248   1247   1254     1   112.3500484 533.878400
   1248   1260   1272     1   111.5100476 526.347200
   1251   1247   1254     1   112.3500484 533.878400
   1251   1263   1269     1   111.5100476 526.347200
   1254   1257   1266     1   111.5100476 526.347200
   1257   1266   1275     1   107.9700462 569.024000
   1260   1272   2697     1   107.9700462 569.024000
   1263   1269   2666     1   107.9700462 569.024000
   1269   2666   2636     1   112.4800480 524.673600
   1272   2697   2667     1   112.4800480 524.673600
   1276   1277   1289     1   111.0400475 552.288000
   1276   1280   1292     1   111.0400475 552.288000
   1276   1283   1286     1   111.0400475 552.288000
   1277   1276   1280     1   112.3500484 533.878400
   1277   1276   1283     1   112.3500484 533.878400
   1277   1289   1301     1   111.5100476 526.347200
   1280   1276   1283     1   112.3500484 533.878400
   1280   1292   1298     1   111.5100476 526.347200
   1283   1286   1295     1   111.5100476 526.347200
   1286   1295   1304     1   107.9700462 569.024000
   1289   1301   2759     1   107.9700462 569.024000
   1292   1298   2728     1   107.9700462 569.024000
   1298   2728   2698     1   112.4800480 524.673600
   1301   2759   2729     1   112.4800480 524.673600
   1305   1306   1318     1   111.0400475 552.288000
   1305   1309   1321     1   111.0400475 552.288000
   1305   1312   1315     1   111.0400475 552.288000
   1306   1305   1309     1   112.3500484 533.878400
   1306   1305   1312     1   112.3500484 533.878400
   1306   1318   1330     1   111.5100476 526.347200
   1309   1305   1312     1   112.3500484 533.878400
   1309   1321   1327     1   111.5100476 526.347200
   1312   1315   1324     1   111.5100476 526.347200
   1315   1324   1333     1   107.9700462 569.024000
   1318   1330   2821     1   107.9700462 569.024000
   1321   1327   2790     1   107.9700462 569.024000
   1327   2790   2760     1   112.4800480 524.673600
   1330   2821   2791     1   112.4800480 524.673600
   1334   1337   1340     1   111.5100476 526.347200
   1337   1334   1364     1   107.9700462 569.024000
   1337   1340   1343     1   111.0400475 552.288000
   1340   1343   1344     1   112.3500484 533.878400
   1340   1343   1354     1   112.3500484 533.878400
   1343   1344   1347     1   111.0400475 552.288000
   1343   1354   1357     1   111.0400475 552.288000
   1344   1343   1354     1   112.3500484 533.878400
   1344   1347   1350     1   111.0400475 529.694400
   1347   1350   1351     1   123.2000528 564.003200
   1347   1350   1352     1   112.7300484 572.371200
   1351   1350   1352     1   122.1000523 635.131200
   1354   1357   1360     1   111.0400475 529.694400
   1357   1360   1361     1   123.2000528 564.003200
   1357   1360   1362     1   112.7300484 572.371200
   1361   1360   1362     1   122.1000523 635.131200
   1365   1368   1371     1   111.5100476 526.347200
   1368   1371   1374     1   111.0400475 552.288000
   1368   1365   1395     1   107.9700462 569.024000
   1371   1374   1375     1   112.3500484 533.878400
   1371   1374   1385     1   112.3500484 533.878400
   1374   1375   1378     1   111.0400475 552.288000
   1374   1385   1388     1   111.0400475 552.288000
   1375   1378   1381     1   111.0400475 529.694400
   1375   1374   1385     1   112.3500484 533.878400
   1378   1381   1382     1   123.2000528 564.003200
   1378   1381   1383     1   112.7300484 572.371200
   1382   1381   1383     1   122.1000523 635.131200
   1385   1388   1391     1   111.0400475 529.694400
   1388   1391   1392     1   123.2000528 564.003200
   1388   1391   1393     1   112.7300484 572.371200
   1392   1391   1393     1   122.1000523 635.131200
   1396   1399   1402     1   111.5100476 526.347200
   1399   1396   1426     1   107.9700462 569.024000
   1399   1402   1405     1   111.0400475 552.288000
   1402   1405   1406     1   112.3500484 533.878400
   1402   1405   1416     1   112.3500484 533.878400
   1405   1406   1409     1   111.0400475 552.288000
   1405   1416   1419     1   111.0400475 552.288000
   1406   1405   1416     1   112.3500484 533.878400
   1406   1409   1412     1   111.0400475 529.694400
   1409   1412   1413     1   123.2000528 564.003200
   1409   1412   1414     1   112.7300484 572.371200
   1413   1412   1414     1   122.1000523 635.131200
   1416   1419   1422     1   111.0400475 529.694400
   1419   1422   1423     1   123.2000528 564.003200
   1419   1422   1424     1   112.7300484 572.371200
   1423   1422   1424     1   122.1000523 635.131200
   1427   1430   1433     1   111.5100476 526.347200
   1430   1433   1436     1   111.0400475 552.288000
   1430   1427   1457     1   107.9700462 569.024000
   1433   1436   1437     1   112.3500484 533.878400
   1433   1436   1447     1   112.3500484 533.878400
   1436   1437   1440     1   111.0400475 552.288000
   1436   1447   1450     1   111.0400475 552.288000
   1437   1440   1443     1   111.0400475 529.694400
   1437   1436   1447     1   112.3500484 533.878400
   1440   1443   1444     1   123.2000528 564.003200
   1440   1443   1445     1   112.7300484 572.371200
   1444   1443   1445     1   122.1000523 635.131200
   1447   1450   1453     1   111.0400475 529.694400
   1450   1453   1454     1   123.2000528 564.003200
   1450   1453   1455     1   112.7300484 572.371200
   1454   1453   1455     1   122.1000523 635.131200
   1458   1461   1464     1   111.5100476 526.347200
   1461   1458   1488     1   107.9700462 569.024000
   1461   1464   1467     1   111.0400475 552.288000
   1464   1467   1468     1   112.3500484 533.878400
   1464   1467   1478     1   112.3500484 533.878400
   1467   1468   1471     1   111.0400475 552.288000
   1467   1478   1481     1   111.0400475 552.288000
   1468   1467   1478     1   112.3500484 533.878400
   1468   1471   1474     1   111.0400475 529.694400
   1471   1474   1475     1   123.2000528 564.003200
   1471   1474   1476     1   112.7300484 572.371200
   1475   1474   1476     1   122.1000523 635.131200
   1478   1481   1484     1   111.0400475 529.694400
   1481   1484   1485     1   123.2000528 564.003200
   1481   1484   1486     1   112.7300484 572.371200
   1485   1484   1486     1   122.1000523 635.131200
   1489   1492   1495     1   111.5100476 526.347200
   1492   1495   1498     1   111.0400475 552.288000
   1492   1489   1519     1   107.9700462 569.024000
   1495   1498   1499     1   112.3500484 533.878400
   1495   1498   1509     1   112.3500484 533.878400
   1498   1499   1502     1   111.0400475 552.288000
   1498   1509   1512     1   111.0400475 552.288000
   1499   1502   1505     1   111.0400475 529.694400
   1499   1498   1509     1   112.3500484 533.878400
   1502   1505   1506     1   123.2000528 564.003200
   1502   1505   1507     1   112.7300484 572.371200
   1506   1505   1507     1   122.1000523 635.131200
   1509   1512   1515     1   111.0400475 529.694400
   1512   1515   1516     1   123.2000528 564.003200
   1512   1515   1517     1   112.7300484 572.371200
   1516   1515   1517     1   122.1000523 635.131200
   1520   1523   1526     1   111.5100476 526.347200
   1523   1520   1550     1   107.9700462 569.024000
   1523   1526   1529     1   111.0400475 552.288000
   1526   1529   1530     1   112.3500484 533.878400
   1526   1529   1540     1   112.3500484 533.878400
   1529   1530   1533     1   111.0400475 552.288000
   1529   1540   1543     1   111.0400475 552.288000
   1530   1529   1540     1   112.3500484 533.878400
   1530   1533   1536     1   111.0400475 529.694400
   1533   1536   1537     1   123.2000528 564.003200
   1533   1536   1538     1   112.7300484 572.371200
   1537   1536   1538     1   122.1000523 635.131200
   1540   1543   1546     1   111.0400475 529.694400
   1543   1546   1547     1   123.2000528 564.003200
   1543   1546   1548     1   112.7300484 572.371200
   1547   1546   1548     1   122.1000523 635.131200
   1551   1554   1557     1   111.5100476 526.347200
   1554   1557   1560     1   111.0400475 552.288000
   1554   1551   1581     1   107.9700462 569.024000
   1557   1560   1561     1   112.3500484 533.878400
   1557   1560   1571     1   112.3500484 533.878400
   1560   1561   1564     1   111.0400475 552.288000
   1560   1571   1574     1   111.0400475 552.288000
   1561   1564   1567     1   111.0400475 529.694400
   1561   1560   1571     1   112.3500484 533.878400
   1564   1567   1568     1   123.2000528 564.003200
   1564   1567   1569     1   112.7300484 572.371200
   1568   1567   1569     1   122.1000523 635.131200
   1571   1574   1577     1   111.0400475 529.694400
   1574   1577   1578     1   123.2000528 564.003200
   1574   1577   1579     1   112.7300484 572.371200
   1578   1577   1579     1   122.1000523 635.131200
   1582   1585   1588     1   111.5100476 526.347200
   1585   1582   1612     1   107.9700462 569.024000
   1585   1588   1591     1   111.0400475 552.288000
   1588   1591   1592     1   112.3500484 533.878400
   1588   1591   1602     1   112.3500484 533.878400
   1591   1592   1595     1   111.0400475 552.288000
   1591   1602   1605     1   111.0400475 552.288000
   1592   1591   1602     1   112.3500484 533.878400
   1592   1595   1598     1   111.0400475 529.694400
   1595   1598   1599     1   123.2000528 564.003200
   1595   1598   1600     1   112.7300484 572.371200
   1599   1598   1600     1   122.1000523 635.131200
   1602   1605   1608     1   111.0400475 529.694400
   1605   1608   1609     1   123.2000528 564.003200
   1605   1608   1610     1   112.7300484 572.371200
   1609   1608   1610     1   122.1000523 635.131200
   1613   1616   1619     1   111.5100476 526.347200
   1616   1619   1622     1   111.0400475 552.288000
   1616   1613   1643     1   107.9700462 569.024000
   1619   1622   1623     1   112.3500484 533.878400
   1619   1622   1633     1   112.3500484 533.878400
   1622   1623   1626     1   111.0400475 552.288000
   1622   1633   1636     1   111.0400475 552.288000
   1623   1626   1629     1   111.0400475 529.694400
   1623   1622   1633     1   112.3500484 533.878400
   1626   1629   1630     1   123.2000528 564.003200
   1626   1629   1631     1   112.7300484 572.371200
   1630   1629   1631     1   122.1000523 635.131200
   1633   1636   1639     1   111.0400475 529.694400
   1636   1639   1640     1   123.2000528 564.003200
   1636   1639   1641     1   112.7300484 572.371200
   1640   1639   1641     1   122.1000523 635.131200
   1644   1647   1650     1   111.5100476 526.347200
   1647   1644   1674     1   107.9700462 569.024000
   1647   1650   1653     1   111.0400475 552.288000
   1650   1653   1654     1   112.3500484 533.878400
   1650   1653   1664     1   112.3500484 533.878400
   1653   1654   1657     1   111.0400475 552.288000
   1653   1664   1667     1   111.0400475 552.288000
   1654   1653   1664     1   112.3500484 533.878400
   1654   1657   1660     1   111.0400475 529.694400
   1657   1660   1661     1   123.2000528 564.003200
   1657   1660   1662     1   112.7300484 572.371200
   1661   1660   1662     1   122.1000523 635.131200
   1664   1667   1670     1   111.0400475 529.694400
   1667   1670   1671     1   123.2000528 564.003200
   1667   1670   1672     1   112.7300484 572.371200
   1671   1670   1672     1   122.1000523 635.131200
   1675   1678   1681     1   111.5100476 526.347200
   1678   1681   1684     1   111.0400475 552.288000
   1678   1675   1705     1   107.9700462 569.024000
   1681   1684   1685     1   112.3500484 533.878400
   1681   1684   1695     1   112.3500484 533.878400
   1684   1685   1688     1   111.0400475 552.288000
   1684   1695   1698     1   111.0400475 552.288000
   1685   1688   1691     1   111.0400475 529.694400
   1685   1684   1695     1   112.3500484 533.878400
   1688   1691   1692     1   123.2000528 564.003200
   1688   1691   1693     1   112.7300484 572.371200
   1692   1691   1693     1   122.1000523 635.131200
   1695   1698   1701     1   111.0400475 529.694400
   1698   1701   1702     1   123.2000528 564.003200
   1698   1701   1703     1   112.7300484 572.371200
   1702   1701   1703     1   122.1000523 635.131200
   1706   1709   1712     1   111.5100476 526.347200
   1709   1706   1736     1   107.9700462 569.024000
   1709   1712   1715     1   111.0400475 552.288000
   1712   1715   1716     1   112.3500484 533.878400
   1712   1715   1726     1   112.3500484 533.878400
   1715   1716   1719     1   111.0400475 552.288000
   1715   1726   1729     1   111.0400475 552.288000
   1716   1715   1726     1   112.3500484 533.878400
   1716   1719   1722     1   111.0400475 529.694400
   1719   1722   1723     1   123.2000528 564.003200
   1719   1722   1724     1   112.7300484 572.371200
   1723   1722   1724     1   122.1000523 635.131200
   1726   1729   1732     1   111.0400475 529.694400
   1729   1732   1733     1   123.2000528 564.003200
   1729   1732   1734     1   112.7300484 572.371200
   1733   1732   1734     1   122.1000523 635.131200
   1737   1740   1743     1   111.5100476 526.347200
   1740   1743   1746     1   111.0400475 552.288000
   1740   1737   1767     1   107.9700462 569.024000
   1743   1746   1747     1   112.3500484 533.878400
   1743   1746   1757     1   112.3500484 533.878400
   1746   1747   1750     1   111.0400475 552.288000
   1746   1757   1760     1   111.0400475 552.288000
   1747   1750   1753     1   111.0400475 529.694400
   1747   1746   1757     1   112.3500484 533.878400
   1750   1753   1754     1   123.2000528 564.003200
   1750   1753   1755     1   112.7300484 572.371200
   1754   1753   1755     1   122.1000523 635.131200
   1757   1760   1763     1   111.0400475 529.694400
   1760   1763   1764     1   123.2000528 564.003200
   1760   1763   1765     1   112.7300484 572.371200
   1764   1763   1765     1   122.1000523 635.131200
   1768   1771   1774     1   111.5100476 526.347200
   1771   1768   1798     1   107.9700462 569.024000
   1771   1774   1777     1   111.0400475 552.288000
   1774   1777   1778     1   112.3500484 533.878400
   1774   1777   1788     1   112.3500484 533.878400
   1777   1778   1781     1   111.0400475 552.288000
   1777   1788   1791     1   111.0400475 552.288000
   1778   1777   1788     1   112.3500484 533.878400
   1778   1781   1784     1   111.0400475 529.694400
   1781   1784   1785     1   123.2000528 564.003200
   1781   1784   1786     1   112.7300484 572.371200
   1785   1784   1786     1   122.1000523 635.131200
   1788   1791   1794     1   111.0400475 529.694400
   1791   1794   1795     1   123.2000528 564.003200
   1791   1794   1796     1   112.7300484 572.371200
   1795   1794   1796     1   122.1000523 635.131200
   1799   1802   1805     1   111.5100476 526.347200
   1802   1805   1808     1   111.0400475 552.288000
   1802   1799   1829     1   107.9700462 569.024000
   1805   1808   1809     1   112.3500484 533.878400
   1805   1808   1819     1   112.3500484 533.878400
   1808   1809   1812     1   111.0400475 552.288000
   1808   1819   1822     1   111.0400475 552.288000
   1809   1812   1815     1   111.0400475 529.694400
   1809   1808   1819     1   112.3500484 533.878400
   1812   1815   1816     1   123.2000528 564.003200
   1812   1815   1817     1   112.7300484 572.371200
   1816   1815   1817     1   122.1000523 635.131200
   1819   1822   1825     1   111.0400475 529.694400
   1822   1825   1826     1   123.2000528 564.003200
   1822   1825   1827     1   112.7300484 572.371200
   1826   1825   1827     1   122.1000523 635.131200
   1830   1833   1836     1   111.5100476 526.347200
   1833   1830   1860     1   107.9700462 569.024000
   1833   1836   1839     1   111.0400475 552.288000
   1836   1839   1840     1   112.3500484 533.878400
   1836   1839   1850     1   112.3500484 533.878400
   1839   1840   1843     1   111.0400475 552.288000
   1839   1850   1853     1   111.0400475 552.288000
   1840   1839   1850     1   112.3500484 533.878400
   1840   1843   1846     1   111.0400475 529.694400
   1843   1846   1847     1   123.2000528 564.003200
   1843   1846   1848     1   112.7300484 572.371200
   1847   1846   1848     1   122.1000523 635.131200
   1850   1853   1856     1   111.0400475 529.694400
   1853   1856   1857     1   123.2000528 564.003200
   1853   1856   1858     1   112.7300484 572.371200
   1857   1856   1858     1   122.1000523 635.131200
   1861   1864   1867     1   111.5100476 526.347200
   1864   1867   1870     1   111.0400475 552.288000
   1864   1861   1891     1   107.9700462 569.024000
   1867   1870   1871     1   112.3500484 533.878400
   1867   1870   1881     1   112.3500484 533.878400
   1870   1871   1874     1   111.0400475 552.288000
   1870   1881   1884     1   111.0400475 552.288000
   1871   1874   1877     1   111.0400475 529.694400
   1871   1870   1881     1   112.3500484 533.878400
   1874   1877   1878     1   123.2000528 564.003200
   1874   1877   1879     1   112.7300484 572.371200
   1878   1877   1879     1   122.1000523 635.131200
   1881   1884   1887     1   111.0400475 529.694400
   1884   1887   1888     1   123.2000528 564.003200
   1884   1887   1889     1   112.7300484 572.371200
   1888   1887   1889     1   122.1000523 635.131200
   1892   1895   1898     1   111.5100476 526.347200
   1895   1892   1922     1   107.9700462 569.024000
   1895   1898   1901     1   111.0400475 552.288000
   1898   1901   1902     1   112.3500484 533.878400
   1898   1901   1912     1   112.3500484 533.878400
   1901   1902   1905     1   111.0400475 552.288000
   1901   1912   1915     1   111.0400475 552.288000
   1902   1901   1912     1   112.3500484 533.878400
   1902   1905   1908     1   111.0400475 529.694400
   1905   1908   1909     1   123.2000528 564.003200
   1905   1908   1910     1   112.7300484 572.371200
   1909   1908   1910     1   122.1000523 635.131200
   1912   1915   1918     1   111.0400475 529.694400
   1915   1918   1919     1   123.2000528 564.003200
   1915   1918   1920     1   112.7300484 572.371200
   1919   1918   1920     1   122.1000523 635.131200
   1923   1926   1929     1   111.5100476 526.347200
   1926   1929   1932     1   111.0400475 552.288000
   1926   1923   1953     1   107.9700462 569.024000
   1929   1932   1933     1   112.3500484 533.878400
   1929   1932   1943     1   112.3500484 533.878400
   1932   1933   1936     1   111.0400475 552.288000
   1932   1943   1946     1   111.0400475 552.288000
   1933   1936   1939     1   111.0400475 529.694400
   1933   1932   1943     1   112.3500484 533.878400
   1936   1939   1940     1   123.2000528 564.003200
   1936   1939   1941     1   112.7300484 572.371200
   1940   1939   1941     1   122.1000523 635.131200
   1943   1946   1949     1   111.0400475 529.694400
   1946   1949   1950     1   123.2000528 564.003200
   1946   1949   1951     1   112.7300484 572.371200
   1950   1949   1951     1   122.1000523 635.131200
   1954   1957   1960     1   111.5100476 526.347200
   1957   1954   1984     1   107.9700462 569.024000
   1957   1960   1963     1   111.0400475 552.288000
   1960   1963   1964     1   112.3500484 533.878400
   1960   1963   1974     1   112.3500484 533.878400
   1963   1964   1967     1   111.0400475 552.288000
   1963   1974   1977     1   111.0400475 552.288000
   1964   1963   1974     1   112.3500484 533.878400
   1964   1967   1970     1   111.0400475 529.694400
   1967   1970   1971     1   123.2000528 564.003200
   1967   1970   1972     1   112.7300484 572.371200
   1971   1970   1972     1   122.1000523 635.131200
   1974   1977   1980     1   111.0400475 529.694400
   1977   1980   1981     1   123.2000528 564.003200
   1977   1980   1982     1   112.7300484 572.371200
   1981   1980   1982     1   122.1000523 635.131200
   1985   1988   1991     1   111.5100476 526.347200
   1988   1991   1994     1   111.0400475 552.288000
   1988   1985   2015     1   107.9700462 569.024000
   1991   1994   1995     1   112.3500484 533.878400
   1991   1994   2005     1   112.3500484 533.878400
   1994   1995   1998     1   111.0400475 552.288000
   1994   2005   2008     1   111.0400475 552.288000
   1995   1998   2001     1   111.0400475 529.694400
   1995   1994   2005     1   112.3500484 533.878400
   1998   2001   2002     1   123.2000528 564.003200
   1998   2001   2003     1   112.7300484 572.371200
   2002   2001   2003     1   122.1000523 635.131200
   2005   2008   2011     1   111.0400475 529.694400
   2008   2011   2012     1   123.2000528 564.003200
   2008   2011   2013     1   112.7300484 572.371200
   2012   2011   2013     1   122.1000523 635.131200
   2016   2019   2022     1   111.5100476 526.347200
   2019   2016   2046     1   107.9700462 569.024000
   2019   2022   2025     1   111.0400475 552.288000
   2022   2025   2026     1   112.3500484 533.878400
   2022   2025   2036     1   112.3500484 533.878400
   2025   2026   2029     1   111.0400475 552.288000
   2025   2036   2039     1   111.0400475 552.288000
   2026   2025   2036     1   112.3500484 533.878400
   2026   2029   2032     1   111.0400475 529.694400
   2029   2032   2033     1   123.2000528 564.003200
   2029   2032   2034     1   112.7300484 572.371200
   2033   2032   2034     1   122.1000523 635.131200
   2036   2039   2042     1   111.0400475 529.694400
   2039   2042   2043     1   123.2000528 564.003200
   2039   2042   2044     1   112.7300484 572.371200
   2043   2042   2044     1   122.1000523 635.131200
   2047   2050   2053     1   111.5100476 526.347200
   2050   2053   2056     1   111.0400475 552.288000
   2050   2047   2077     1   107.9700462 569.024000
   2053   2056   2057     1   112.3500484 533.878400
   2053   2056   2067     1   112.3500484 533.878400
   2056   2057   2060     1   111.0400475 552.288000
   2056   2067   2070     1   111.0400475 552.288000
   2057   2060   2063     1   111.0400475 529.694400
   2057   2056   2067     1   112.3500484 533.878400
   2060   2063   2064     1   123.2000528 564.003200
   2060   2063   2065     1   112.7300484 572.371200
   2064   2063   2065     1   122.1000523 635.131200
   2067   2070   2073     1   111.0400475 529.694400
   2070   2073   2074     1   123.2000528 564.003200
   2070   2073   2075     1   112.7300484 572.371200
   2074   2073   2075     1   122.1000523 635.131200
   2078   2081   2084     1   111.5100476 526.347200
   2081   2078   2108     1   107.9700462 569.024000
   2081   2084   2087     1   111.0400475 552.288000
   2084   2087   2088     1   112.3500484 533.878400
   2084   2087   2098     1   112.3500484 533.878400
   2087   2088   2091     1   111.0400475 552.288000
   2087   2098   2101     1   111.0400475 552.288000
   2088   2087   2098     1   112.3500484 533.878400
   2088   2091   2094     1   111.0400475 529.694400
   2091   2094   2095     1   123.2000528 564.003200
   2091   2094   2096     1   112.7300484 572.371200
   2095   2094   2096     1   122.1000523 635.131200
   2098   2101   2104     1   111.0400475 529.694400
   2101   2104   2105     1   123.2000528 564.003200
   2101   2104   2106     1   112.7300484 572.371200
   2105   2104   2106     1   122.1000523 635.131200
   2109   2112   2115     1   111.5100476 526.347200
   2112   2115   2118     1   111.0400475 552.288000
   2112   2109   2139     1   107.9700462 569.024000
   2115   2118   2119     1   112.3500484 533.878400
   2115   2118   2129     1   112.3500484 533.878400
   2118   2119   2122     1   111.0400475 552.288000
   2118   2129   2132     1   111.0400475 552.288000
   2119   2122   2125     1   111.0400475 529.694400
   2119   2118   2129     1   112.3500484 533.878400
   2122   2125   2126     1   123.2000528 564.003200
   2122   2125   2127     1   112.7300484 572.371200
   2126   2125   2127     1   122.1000523 635.131200
   2129   2132   2135     1   111.0400475 529.694400
   2132   2135   2136     1   123.2000528 564.003200
   2132   2135   2137     1   112.7300484 572.371200
   2136   2135   2137     1   122.1000523 635.131200
   2140   2143   2146     1   111.5100476 526.347200
   2143   2140   2170     1   107.9700462 569.024000
   2143   2146   2149     1   111.0400475 552.288000
   2146   2149   2150     1   112.3500484 533.878400
   2146   2149   2160     1   112.3500484 533.878400
   2149   2150   2153     1   111.0400475 552.288000
   2149   2160   2163     1   111.0400475 552.288000
   2150   2149   2160     1   112.3500484 533.878400
   2150   2153   2156     1   111.0400475 529.694400
   2153   2156   2157     1   123.2000528 564.003200
   2153   2156   2158     1   112.7300484 572.371200
   2157   2156   2158     1   122.1000523 635.131200
   2160   2163   2166     1   111.0400475 529.694400
   2163   2166   2167     1   123.2000528 564.003200
   2163   2166   2168     1   112.7300484 572.371200
   2167   2166   2168     1   122.1000523 635.131200
   2171   2174   2177     1   111.5100476 526.347200
   2174   2177   2180     1   111.0400475 552.288000
   2174   2171   2201     1   107.9700462 569.024000
   2177   2180   2181     1   112.3500484 533.878400
   2177   2180   2191     1   112.3500484 533.878400
   2180   2181   2184     1   111.0400475 552.288000
   2180   2191   2194     1   111.0400475 552.288000
   2181   2184   2187     1   111.0400475 529.694400
   2181   2180   2191     1   112.3500484 533.878400
   2184   2187   2188     1   123.2000528 564.003200
   2184   2187   2189     1   112.7300484 572.371200
   2188   2187   2189     1   122.1000523 635.131200
   2191   2194   2197     1   111.0400475 529.694400
   2194   2197   2198     1   123.2000528 564.003200
   2194   2197   2199     1   112.7300484 572.371200
   2198   2197   2199     1   122.1000523 635.131200
   2202   2205   2208     1   111.5100476 526.347200
   2205   2202   2232     1   107.9700462 569.024000
   2205   2208   2211     1   111.0400475 552.288000
   2208   2211   2212     1   112.3500484 533.878400
   2208   2211   2222     1   112.3500484 533.878400
   2211   2212   2215     1   111.0400475 552.288000
   2211   2222   2225     1   111.0400475 552.288000
   2212   2211   2222     1   112.3500484 533.878400
   2212   2215   2218     1   111.0400475 529.694400
   2215   2218   2219     1   123.2000528 564.003200
   2215   2218   2220     1   112.7300484 572.371200
   2219   2218   2220     1   122.1000523 635.131200
   2222   2225   2228     1   111.0400475 529.694400
   2225   2228   2229     1   123.2000528 564.003200
   2225   2228   2230     1   112.7300484 572.371200
   2229   2228   2230     1   122.1000523 635.131200
   2233   2236   2239     1   111.5100476 526.347200
   2236   2239   2242     1   111.0400475 552.288000
   2236   2233   2263     1   107.9700462 569.024000
   2239   2242   2243     1   112.3500484 533.878400
   2239   2242   2253     1   112.3500484 533.878400
   2242   2243   2246     1   111.0400475 552.288000
   2242   2253   2256     1   111.0400475 552.288000
   2243   2246   2249     1   111.0400475 529.694400
   2243   2242   2253     1   112.3500484 533.878400
   2246   2249   2250     1   123.2000528 564.003200
   2246   2249   2251     1   112.7300484 572.371200
   2250   2249   2251     1   122.1000523 635.131200
   2253   2256   2259     1   111.0400475 529.694400
   2256   2259   2260     1   123.2000528 564.003200
   2256   2259   2261     1   112.7300484 572.371200
   2260   2259   2261     1   122.1000523 635.131200
   2264   2267   2270     1   111.5100476 526.347200
   2267   2264   2294     1   107.9700462 569.024000
   2267   2270   2273     1   111.0400475 552.288000
   2270   2273   2274     1   112.3500484 533.878400
   2270   2273   2284     1   112.3500484 533.878400
   2273   2274   2277     1   111.0400475 552.288000
   2273   2284   2287     1   111.0400475 552.288000
   2274   2273   2284     1   112.3500484 533.878400
   2274   2277   2280     1   111.0400475 529.694400
   2277   2280   2281     1   123.2000528 564.003200
   2277   2280   2282     1   112.7300484 572.371200
   2281   2280   2282     1   122.1000523 635.131200
   2284   2287   2290     1   111.0400475 529.694400
   2287   2290   2291     1   123.2000528 564.003200
   2287   2290   2292     1   112.7300484 572.371200
   2291   2290   2292     1   122.1000523 635.131200
   2295   2298   2301     1   111.5100476 526.347200
   2298   2301   2304     1   111.0400475 552.288000
   2298   2295   2325     1   107.9700462 569.024000
   2301   2304   2305     1   112.3500484 533.878400
   2301   2304   2315     1   112.3500484 533.878400
   2304   2305   2308     1   111.0400475 552.288000
   2304   2315   2318     1   111.0400475 552.288000
   2305   2308   2311     1   111.0400475 529.694400
   2305   2304   2315     1   112.3500484 533.878400
   2308   2311   2312     1   123.2000528 564.003200
   2308   2311   2313     1   112.7300484 572.371200
   2312   2311   2313     1   122.1000523 635.131200
   2315   2318   2321     1   111.0400475 529.694400
   2318   2321   2322     1   123.2000528 564.003200
   2318   2321   2323     1   112.7300484 572.371200
   2322   2321   2323     1   122.1000523 635.131200
   2326   2329   2332     1   111.5100476 526.347200
   2329   2326   2356     1   107.9700462 569.024000
   2329   2332   2335     1   111.0400475 552.288000
   2332   2335   2336     1   112.3500484 533.878400
   2332   2335   2346     1   112.3500484 533.878400
   2335   2336   2339     1   111.0400475 552.288000
   2335   2346   2349     1   111.0400475 552.288000
   2336   2335   2346     1   112.3500484 533.878400
   2336   2339   2342     1   111.0400475 529.694400
   2339   2342   2343     1   123.2000528 564.003200
   2339   2342   2344     1   112.7300484 572.371200
   2343   2342   2344     1   122.1000523 635.131200
   2346   2349   2352     1   111.0400475 529.694400
   2349   2352   2353     1   123.2000528 564.003200
   2349   2352   2354     1   112.7300484 572.371200
   2353   2352   2354     1   122.1000523 635.131200
   2357   2360   2363     1   111.5100476 526.347200
   2360   2363   2366     1   111.0400475 552.288000
   2360   2357   2387     1   107.9700462 569.024000
   2363   2366   2367     1   112.3500484 533.878400
   2363   2366   2377     1   112.3500484 533.878400
   2366   2367   2370     1   111.0400475 552.288000
   2366   2377   2380     1   111.0400475 552.288000
   2367   2370   2373     1   111.0400475 529.694400
   2367   2366   2377     1   112.3500484 533.878400
   2370   2373   2374     1   123.2000528 564.003200
   2370   2373   2375     1   112.7300484 572.371200
   2374   2373   2375     1   122.1000523 635.131200
   2377   2380   2383     1   111.0400475 529.694400
   2380   2383   2384     1   123.2000528 564.003200
   2380   2383   2385     1   112.7300484 572.371200
   2384   2383   2385     1   122.1000523 635.131200
   2388   2391   2394     1   111.5100476 526.347200
   2391   2388   2418     1   107.9700462 569.024000
   2391   2394   2397     1   111.0400475 552.288000
   2394   2397   2398     1   112.3500484 533.878400
   2394   2397   2408     1   112.3500484 533.878400
   2397   2398   2401     1   111.0400475 552.288000
   2397   2408   2411     1   111.0400475 552.288000
   2398   2397   2408     1   112.3500484 533.878400
   2398   2401   2404     1   111.0400475 529.694400
   2401   2404   2405     1   123.2000528 564.003200
   2401   2404   2406     1   112.7300484 572.371200
   2405   2404   2406     1   122.1000523 635.131200
   2408   2411   2414     1   111.0400475 529.694400
   2411   2414   2415     1   123.2000528 564.003200
   2411   2414   2416     1   112.7300484 572.371200
   2415   2414   2416     1   122.1000523 635.131200
   2419   2422   2425     1   111.5100476 526.347200
   2422   2425   2428     1   111.0400475 552.288000
   2422   2419   2449     1   107.9700462 569.024000
   2425   2428   2429     1   112.3500484 533.878400
   2425   2428   2439     1   112.3500484 533.878400
   2428   2429   2432     1   111.0400475 552.288000
   2428   2439   2442     1   111.0400475 552.288000
   2429   2432   2435     1   111.0400475 529.694400
   2429   2428   2439     1   112.3500484 533.878400
   2432   2435   2436     1   123.2000528 564.003200
   2432   2435   2437     1   112.7300484 572.371200
   2436   2435   2437     1   122.1000523 635.131200
   2439   2442   2445     1   111.0400475 529.694400
   2442   2445   2446     1   123.2000528 564.003200
   2442   2445   2447     1   112.7300484 572.371200
   2446   2445   2447     1   122.1000523 635.131200
   2450   2453   2456     1   111.5100476 526.347200
   2453   2450   2480     1   107.9700462 569.024000
   2453   2456   2459     1   111.0400475 552.288000
   2456   2459   2460     1   112.3500484 533.878400
   2456   2459   2470     1   112.3500484 533.878400
   2459   2460   2463     1   111.0400475 552.288000
   2459   2470   2473     1   111.0400475 552.288000
   2460   2459   2470     1   112.3500484 533.878400
   2460   2463   2466     1   111.0400475 529.694400
   2463   2466   2467     1   123.2000528 564.003200
   2463   2466   2468     1   112.7300484 572.371200
   2467   2466   2468     1   122.1000523 635.131200
   2470   2473   2476     1   111.0400475 529.694400
   2473   2476   2477     1   123.2000528 564.003200
   2473   2476   2478     1   112.7300484 572.371200
   2477   2476   2478     1   122.1000523 635.131200
   2481   2484   2487     1   111.5100476 526.347200
   2484   2487   2490     1   111.0400475 552.288000
   2484   2481   2511     1   107.9700462 569.024000
   2487   2490   2491     1   112.3500484 533.878400
   2487   2490   2501     1   112.3500484 533.878400
   2490   2491   2494     1   111.0400475 552.288000
   2490   2501   2504     1   111.0400475 552.288000
   2491   2494   2497     1   111.0400475 529.694400
   2491   2490   2501     1   112.3500484 533.878400
   2494   2497   2498     1   123.2000528 564.003200
   2494   2497   2499     1   112.7300484 572.371200
   2498   2497   2499     1   122.1000523 635.131200
   2501   2504   2507     1   111.0400475 529.694400
   2504   2507   2508     1   123.2000528 564.003200
   2504   2507   2509     1   112.7300484 572.371200
   2508   2507   2509     1   122.1000523 635.131200
   2512   2515   2518     1   111.5100476 526.347200
   2515   2512   2542     1   107.9700462 569.024000
   2515   2518   2521     1   111.0400475 552.288000
   2518   2521   2522     1   112.3500484 533.878400
   2518   2521   2532     1   112.3500484 533.878400
   2521   2522   2525     1   111.0400475 552.288000
   2521   2532   2535     1   111.0400475 552.288000
   2522   2521   2532     1   112.3500484 533.878400
   2522   2525   2528     1   111.0400475 529.694400
   2525   2528   2529     1   123.2000528 564.003200
   2525   2528   2530     1   112.7300484 572.371200
   2529   2528   2530     1   122.1000523 635.131200
   2532   2535   2538     1   111.0400475 529.694400
   2535   2538   2539     1   123.2000528 564.003200
   2535   2538   2540     1   112.7300484 572.371200
   2539   2538   2540     1   122.1000523 635.131200
   2543   2546   2549     1   111.5100476 526.347200
   2546   2549   2552     1   111.0400475 552.288000
   2546   2543   2573     1   107.9700462 569.024000
   2549   2552   2553     1   112.3500484 533.878400
   2549   2552   2563     1   112.3500484 533.878400
   2552   2553   2556     1   111.0400475 552.288000
   2552   2563   2566     1   111.0400475 552.288000
   2553   2556   2559     1   111.0400475 529.694400
   2553   2552   2563     1   112.3500484 533.878400
   2556   2559   2560     1   123.2000528 564.003200
   2556   2559   2561     1   112.7300484 572.371200
   2560   2559   2561     1   122.1000523 635.131200
   2563   2566   2569     1   111.0400475 529.694400
   2566   2569   2570     1   123.2000528 564.003200
   2566   2569   2571     1   112.7300484 572.371200
   2570   2569   2571     1   122.1000523 635.131200
   2574   2577   2580     1   111.5100476 526.347200
   2577   2574   2604     1   107.9700462 569.024000
   2577   2580   2583     1   111.0400475 552.288000
   2580   2583   2584     1   112.3500484 533.878400
   2580   2583   2594     1   112.3500484 533.878400
   2583   2584   2587     1   111.0400475 552.288000
   2583   2594   2597     1   111.0400475 552.288000
   2584   2583   2594     1   112.3500484 533.878400
   2584   2587   2590     1   111.0400475 529.694400
   2587   2590   2591     1   123.2000528 564.003200
   2587   2590   2592     1   112.7300484 572.371200
   2591   2590   2592     1   122.1000523 635.131200
   2594   2597   2600     1   111.0400475 529.694400
   2597   2600   2601     1   123.2000528 564.003200
   2597   2600   2602     1   112.7300484 572.371200
   2601   2600   2602     1   122.1000523 635.131200
   2605   2608   2611     1   111.5100476 526.347200
   2608   2611   2614     1   111.0400475 552.288000
   2608   2605   2635     1   107.9700462 569.024000
   2611   2614   2615     1   112.3500484 533.878400
   2611   2614   2625     1   112.3500484 533.878400
   2614   2615   2618     1   111.0400475 552.288000
   2614   2625   2628     1   111.0400475 552.288000
   2615   2618   2621     1   111.0400475 529.694400
   2615   2614   2625     1   112.3500484 533.878400
   2618   2621   2622     1   123.2000528 564.003200
   2618   2621   2623     1   112.7300484 572.371200
   2622   2621   2623     1   122.1000523 635.131200
   2625   2628   2631     1   111.0400475 529.694400
   2628   2631   2632     1   123.2000528 564.003200
   2628   2631   2633     1   112.7300484 572.371200
   2632   2631   2633     1   122.1000523 635.131200
   2636   2639   2642     1   111.5100476 526.347200
   2639   2636   2666     1   107.9700462 569.024000
   2639   2642   2645     1   111.0400475 552.288000
   2642   2645   2646     1   112.3500484 533.878400
   2642   2645   2656     1   112.3500484 533.878400
   2645   2646   2649     1   111.0400475 552.288000
   2645   2656   2659     1   111.0400475 552.288000
   2646   2645   2656     1   112.3500484 533.878400
   2646   2649   2652     1   111.0400475 529.694400
   2649   2652   2653     1   123.2000528 564.003200
   2649   2652   2654     1   112.7300484 572.371200
   2653   2652   2654     1   122.1000523 635.131200
   2656   2659   2662     1   111.0400475 529.694400
   2659   2662   2663     1   123.2000528 564.003200
   2659   2662   2664     1   112.7300484 572.371200
   2663   2662   2664     1   122.1000523 635.131200
   2667   2670   2673     1   111.5100476 526.347200
   2670   2673   2676     1   111.0400475 552.288000
   2670   2667   2697     1   107.9700462 569.024000
   2673   2676   2677     1   112.3500484 533.878400
   2673   2676   2687     1   112.3500484 533.878400
   2676   2677   2680     1   111.0400475 552.288000
   2676   2687   2690     1   111.0400475 552.288000
   2677   2680   2683     1   111.0400475 529.694400
   2677   2676   2687     1   112.3500484 533.878400
   2680   2683   2684     1   123.2000528 564.003200
   2680   2683   2685     1   112.7300484 572.371200
   2684   2683   2685     1   122.1000523 635.131200
   2687   2690   2693     1   111.0400475 529.694400
   2690   2693   2694     1   123.2000528 564.003200
   2690   2693   2695     1   112.7300484 572.371200
   2694   2693   2695     1   122.1000523 635.131200
   2698   2701   2704     1   111.5100476 526.347200
   2701   2698   2728     1   107.9700462 569.024000
   2701   2704   2707     1   111.0400475 552.288000
   2704   2707   2708     1   112.3500484 533.878400
   2704   2707   2718     1   112.3500484 533.878400
   2707   2708   2711     1   111.0400475 552.288000
   2707   2718   2721     1   111.0400475 552.288000
   2708   2707   2718     1   112.3500484 533.878400
   2708   2711   2714     1   111.0400475 529.694400
   2711   2714   2715     1   123.2000528 564.003200
   2711   2714   2716     1   112.7300484 572.371200
   2715   2714   2716     1   122.1000523 635.131200
   2718   2721   2724     1   111.0400475 529.694400
   2721   2724   2725     1   123.2000528 564.003200
   2721   2724   2726     1   112.7300484 572.371200
   2725   2724   2726     1   122.1000523 635.131200
   2729   2732   2735     1   111.5100476 526.347200
   2732   2735   2738     1   111.0400475 552.288000
   2732   2729   2759     1   107.9700462 569.024000
   2735   2738   2739     1   112.3500484 533.878400
   2735   2738   2749     1   112.3500484 533.878400
   2738   2739   2742     1   111.0400475 552.288000
   2738   2749   2752     1   111.0400475 552.288000
   2739   2742   2745     1   111.0400475 529.694400
   2739   2738   2749     1   112.3500484 533.878400
   2742   2745   2746     1   123.2000528 564.003200
   2742   2745   2747     1   112.7300484 572.371200
   2746   2745   2747     1   122.1000523 635.131200
   2749   2752   2755     1   111.0400475 529.694400
   2752   2755   2756     1   123.2000528 564.003200
   2752   2755   2757     1   112.7300484 572.371200
   2756   2755   2757     1   122.1000523 635.131200
   2760   2763   2766     1   111.5100476 526.347200
   2763   2760   2790     1   107.9700462 569.024000
   2763   2766   2769     1   111.0400475 552.288000
   2766   2769   2770     1   112.3500484 533.878400
   2766   2769   2780     1   112.3500484 533.878400
   2769   2770   2773     1   111.0400475 552.288000
   2769   2780   2783     1   111.0400475 552.288000
   2770   2769   2780     1   112.3500484 533.878400
   2770   2773   2776     1   111.0400475 529.694400
   2773   2776   2777     1   123.2000528 564.003200
   2773   2776   2778     1   112.7300484 572.371200
   2777   2776   2778     1   122.1000523 635.131200
   2780   2783   2786     1   111.0400475 529.694400
   2783   2786   2787     1   123.2000528 564.003200
   2783   2786   2788     1   112.7300484 572.371200
   2787   2786   2788     1   122.1000523 635.131200
   2791   2794   2797     1   111.5100476 526.347200
   2794   2797   2800     1   111.0400475 552.288000
   2794   2791   2821     1   107.9700462 569.024000
   2797   2800   2801     1   112.3500484 533.878400
   2797   2800   2811     1   112.3500484 533.878400
   2800   2801   2804     1   111.0400475 552.288000
   2800   2811   2814     1   111.0400475 552.288000
   2801   2804   2807     1   111.0400475 529.694400
   2801   2800   2811     1   112.3500484 533.878400
   2804   2807   2808     1   123.2000528 564.003200
   2804   2807   2809     1   112.7300484 572.371200
   2808   2807   2809     1   122.1000523 635.131200
   2811   2814   2817     1   111.0400475 529.694400
   2814   2817   2818     1   123.2000528 564.003200
   2814   2817   2819     1   112.7300484 572.371200
   2818   2817   2819     1   122.1000523 635.131200
      1      2      3     1   109.8800469 414.216000
      1      2      4     1   109.8800469 414.216000
      1      5      6     1   109.8800469 414.216000
      1      5      7     1   109.8800469 414.216000
      1      8      9     1   109.8800469 414.216000
      1      8     10     1   109.8800469 414.216000
      2     14     15     1   109.8000471 387.438400
      2     14     16     1   109.8000471 387.438400
      3      2     14     1   109.5600471 388.275200
      3      2      4     1   108.4600466 328.025600
      4      2     14     1   109.5600471 388.275200
      5     17     18     1   109.8000471 387.438400
      5     17     19     1   109.8000471 387.438400
      6      5     17     1   109.5600471 388.275200
      6      5      7     1   108.4600466 328.025600
      7      5     17     1   109.5600471 388.275200
      8     11     12     1   109.8000471 387.438400
      8     11     13     1   109.8000471 387.438400
      9      8     11     1   109.5600471 388.275200
      9      8     10     1   108.4600466 328.025600
     10      8     11     1   109.5600471 388.275200
     11     23     24     1   109.5600471 388.275200
     11     23     25     1   109.5600471 388.275200
     12     11     23     1   109.8000471 387.438400
     12     11     13     1   107.5800459 329.699200
     13     11     23     1   109.8000471 387.438400
     14     26     27     1   109.5600471 388.275200
     14     26     28     1   109.5600471 388.275200
     15     14     26     1   109.8000471 387.438400
     15     14     16     1   107.5800459 329.699200
     16     14     26     1   109.8000471 387.438400
     17     20     21     1   109.5600471 388.275200
     17     20     22     1   109.5600471 388.275200
     18     17     20     1   109.8000471 387.438400
     18     17     19     1   107.5800459 329.699200
     19     17     20     1   109.8000471 387.438400
     21     20     57     1   109.7800468 425.094400
     21     20     22     1   108.4600466 328.025600
     22     20     57     1   109.7800468 425.094400
     24     23     86     1   109.7800468 425.094400
     24     23     25     1   108.4600466 328.025600
     25     23     86     1   109.7800468 425.094400
     27     26    115     1   109.7800468 425.094400
     27     26     28     1   108.4600466 328.025600
     28     26    115     1   109.7800468 425.094400
     29     30     31     1   109.8800469 414.216000
     29     30     32     1   109.8800469 414.216000
     29     33     34     1   109.8800469 414.216000
     29     33     35     1   109.8800469 414.216000
     29     36     37     1   109.8800469 414.216000
     29     36     38     1   109.8800469 414.216000
     30     42     43     1   109.8000471 387.438400
     30     42     44     1   109.8000471 387.438400
     31     30     42     1   109.5600471 388.275200
     31     30     32     1   108.4600466 328.025600
     32     30     42     1   109.5600471 388.275200
     33     45     46     1   109.8000471 387.438400
     33     45     47     1   109.8000471 387.438400
     34     33     45     1   109.5600471 388.275200
     34     33     35     1   108.4600466 328.025600
     35     33     45     1   109.5600471 388.275200
     36     39     40     1   109.8000471 387.438400
     36     39     41     1   109.8000471 387.438400
     37     36     39     1   109.5600471 388.275200
     37     36     38     1   108.4600466 328.025600
     38     36     39     1   109.5600471 388.275200
     39     48     49     1   109.5600471 388.275200
     39     48     50     1   109.5600471 388.275200
     40     39     48     1   109.8000471 387.438400
     40     39     41     1   107.5800459 329.699200
     41     39     48     1   109.8000471 387.438400
     42     54     55     1   109.5600471 388.275200
     42     54     56     1   109.5600471 388.275200
     43     42     54     1   109.8000471 387.438400
     43     42     44     1   107.5800459 329.699200
     44     42     54     1   109.8000471 387.438400
     45     51     52     1   109.5600471 388.275200
     45     51     53     1   109.5600471 388.275200
     46     45     51     1   109.8000471 387.438400
     46     45     47     1   107.5800459 329.699200
     47     45     51     1   109.8000471 387.438400
     49     48     57     1   109.7800468 425.094400
     49     48     50     1   108.4600466 328.025600
     50     48     57     1   109.7800468 425.094400
     52     51    144     1   109.7800468 425.094400
     52     51     53     1   108.4600466 328.025600
     53     51    144     1   109.7800468 425.094400
     55     54    173     1   109.7800468 425.094400
     55     54     56     1   108.4600466 328.025600
     56     54    173     1   109.7800468 425.094400
     58     59     60     1   109.8800469 414.216000
     58     59     61     1   109.8800469 414.216000
     58     62     63     1   109.8800469 414.216000
     58     62     64     1   109.8800469 414.216000
     58     65     66     1   109.8800469 414.216000
     58     65     67     1   109.8800469 414.216000
     59     71     72     1   109.8000471 387.438400
     59     71     73     1   109.8000471 387.438400
     60     59     71     1   109.5600471 388.275200
     60     59     61     1   108.4600466 328.025600
     61     59     71     1   109.5600471 388.275200
     62     74     75     1   109.8000471 387.438400
     62     74     76     1   109.8000471 387.438400
     63     62     74     1   109.5600471 388.275200
     63     62     64     1   108.4600466 328.025600
     64     62     74     1   109.5600471 388.275200
     65     68     69     1   109.8000471 387.438400
     65     68     70     1   109.8000471 387.438400
     66     65     68     1   109.5600471 388.275200
     66     65     67     1   108.4600466 328.025600
     67     65     68     1   109.5600471 388.275200
     68     77     78     1   109.5600471 388.275200
     68     77     79     1   109.5600471 388.275200
     69     68     77     1   109.8000471 387.438400
     69     68     70     1   107.5800459 329.699200
     70     68     77     1   109.8000471 387.438400
     71     83     84     1   109.5600471 388.275200
     71     83     85     1   109.5600471 388.275200
     72     71     83     1   109.8000471 387.438400
     72     71     73     1   107.5800459 329.699200
     73     71     83     1   109.8000471 387.438400
     74     80     81     1   109.5600471 388.275200
     74     80     82     1   109.5600471 388.275200
     75     74     80     1   109.8000471 387.438400
     75     74     76     1   107.5800459 329.699200
     76     74     80     1   109.8000471 387.438400
     78     77     86     1   109.7800468 425.094400
     78     77     79     1   108.4600466 328.025600
     79     77     86     1   109.7800468 425.094400
     81     80    202     1   109.7800468 425.094400
     81     80     82     1   108.4600466 328.025600
     82     80    202     1   109.7800468 425.094400
     84     83    231     1   109.7800468 425.094400
     84     83     85     1   108.4600466 328.025600
     85     83    231     1   109.7800468 425.094400
     87     88     89     1   109.8800469 414.216000
     87     88     90     1   109.8800469 414.216000
     87     91     92     1   109.8800469 414.216000
     87     91     93     1   109.8800469 414.216000
     87     94     95     1   109.8800469 414.216000
     87     94     96     1   109.8800469 414.216000
     88    100    101     1   109.8000471 387.438400
     88    100    102     1   109.8000471 387.438400
     89     88    100     1   109.5600471 388.275200
     89     88     90     1   108.4600466 328.025600
     90     88    100     1   109.5600471 388.275200
     91    103    104     1   109.8000471 387.438400
     91    103    105     1   109.8000471 387.438400
     92     91    103     1   109.5600471 388.275200
     92     91     93     1   108.4600466 328.025600
     93     91    103     1   109.5600471 388.275200
     94     97     98     1   109.8000471 387.438400
     94     97     99     1   109.8000471 387.438400
     95     94     97     1   109.5600471 388.275200
     95     94     96     1   108.4600466 328.025600
     96     94     97     1   109.5600471 388.275200
     97    106    107     1   109.5600471 388.275200
     97    106    108     1   109.5600471 388.275200
     98     97    106     1   109.8000471 387.438400
     98     97     99     1   107.5800459 329.699200
     99     97    106     1   109.8000471 387.438400
    100    112    113     1   109.5600471 388.275200
    100    112    114     1   109.5600471 388.275200
    101    100    112     1   109.8000471 387.438400
    101    100    102     1   107.5800459 329.699200
    102    100    112     1   109.8000471 387.438400
    103    109    110     1   109.5600471 388.275200
    103    109    111     1   109.5600471 388.275200
    104    103    109     1   109.8000471 387.438400
    104    103    105     1   107.5800459 329.699200
    105    103    109     1   109.8000471 387.438400
    107    106    115     1   109.7800468 425.094400
    107    106    108     1   108.4600466 328.025600
    108    106    115     1   109.7800468 425.094400
    110    109    260     1   109.7800468 425.094400
    110    109    111     1   108.4600466 328.025600
    111    109    260     1   109.7800468 425.094400
    113    112    289     1   109.7800468 425.094400
    113    112    114     1   108.4600466 328.025600
    114    112    289     1   109.7800468 425.094400
    116    117    118     1   109.8800469 414.216000
    116    117    119     1   109.8800469 414.216000
    116    120    121     1   109.8800469 414.216000
    116    120    122     1   109.8800469 414.216000
    116    123    124     1   109.8800469 414.216000
    116    123    125     1   109.8800469 414.216000
    117    129    130     1   109.8000471 387.438400
    117    129    131     1   109.8000471 387.438400
    118    117    129     1   109.5600471 388.275200
    118    117    119     1   108.4600466 328.025600
    119    117    129     1   109.5600471 388.275200
    120    132    133     1   109.8000471 387.438400
    120    132    134     1   109.8000471 387.438400
    121    120    132     1   109.5600471 388.275200
    121    120    122     1   108.4600466 328.025600
    122    120    132     1   109.5600471 388.275200
    123    126    127     1   109.8000471 387.438400
    123    126    128     1   109.8000471 387.438400
    124    123    126     1   109.5600471 388.275200
    124    123    125     1   108.4600466 328.025600
    125    123    126     1   109.5600471 388.275200
    126    135    136     1   109.5600471 388.275200
    126    135    137     1   109.5600471 388.275200
    127    126    135     1   109.8000471 387.438400
    127    126    128     1   107.5800459 329.699200
    128    126    135     1   109.8000471 387.438400
    129    141    142     1   109.5600471 388.275200
    129    141    143     1   109.5600471 388.275200
    130    129    141     1   109.8000471 387.438400
    130    129    131     1   107.5800459 329.699200
    131    129    141     1   109.8000471 387.438400
    132    138    139     1   109.5600471 388.275200
    132    138    140     1   109.5600471 388.275200
    133    132    138     1   109.8000471 387.438400
    133    132    134     1   107.5800459 329.699200
    134    132    138     1   109.8000471 387.438400
    136    135    144     1   109.7800468 425.094400
    136    135    137     1   108.4600466 328.025600
    137    135    144     1   109.7800468 425.094400
    139    138    318     1   109.7800468 425.094400
    139    138    140     1   108.4600466 328.025600
    140    138    318     1   109.7800468 425.094400
    142    141    347     1   109.7800468 425.094400
    142    141    143     1   108.4600466 328.025600
    143    141    347     1   109.7800468 425.094400
    145    146    147     1   109.8800469 414.216000
    145    146    148     1   109.8800469 414.216000
    145    149    150     1   109.8800469 414.216000
    145    149    151     1   109.8800469 414.216000
    145    152    153     1   109.8800469 414.216000
    145    152    154     1   109.8800469 414.216000
    146    158    159     1   109.8000471 387.438400
    146    158    160     1   109.8000471 387.438400
    147    146    158     1   109.5600471 388.275200
    147    146    148     1   108.4600466 328.025600
    148    146    158     1   109.5600471 388.275200
    149    161    162     1   109.8000471 387.438400
    149    161    163     1   109.8000471 387.438400
    150    149    161     1   109.5600471 388.275200
    150    149    151     1   108.4600466 328.025600
    151    149    161     1   109.5600471 388.275200
    152    155    156     1   109.8000471 387.438400
    152    155    157     1   109.8000471 387.438400
    153    152    155     1   109.5600471 388.275200
    153    152    154     1   108.4600466 328.025600
    154    152    155     1   109.5600471 388.275200
    155    164    165     1   109.5600471 388.275200
    155    164    166     1   109.5600471 388.275200
    156    155    164     1   109.8000471 387.438400
    156    155    157     1   107.5800459 329.699200
    157    155    164     1   109.8000471 387.438400
    158    170    171     1   109.5600471 388.275200
    158    170    172     1   109.5600471 388.275200
    159    158    170     1   109.8000471 387.438400
    159    158    160     1   107.5800459 329.699200
    160    158    170     1   109.8000471 387.438400
    161    167    168     1   109.5600471 388.275200
    161    167    169     1   109.5600471 388.275200
    162    161    167     1   109.8000471 387.438400
    162    161    163     1   107.5800459 329.699200
    163    161    167     1   109.8000471 387.438400
    165    164    173     1   109.7800468 425.094400
    165    164    166     1   108.4600466 328.025600
    166    164    173     1   109.7800468 425.094400
    168    167    376     1   109.7800468 425.094400
    168    167    169     1   108.4600466 328.025600
    169    167    376     1   109.7800468 425.094400
    171    170    405     1   109.7800468 425.094400
    171    170    172     1   108.4600466 328.025600
    172    170    405     1   109.7800468 425.094400
    174    175    176     1   109.8800469 414.216000
    174    175    177     1   109.8800469 414.216000
    174    178    179     1   109.8800469 414.216000
    174    178    180     1   109.8800469 414.216000
    174    181    182     1   109.8800469 414.216000
    174    181    183     1   109.8800469 414.216000
    175    187    188     1   109.8000471 387.438400
    175    187    189     1   109.8000471 387.438400
    176    175    187     1   109.5600471 388.275200
    176    175    177     1   108.4600466 328.025600
    177    175    187     1   109.5600471 388.275200
    178    190    191     1   109.8000471 387.438400
    178    190    192     1   109.8000471 387.438400
    179    178    190     1   109.5600471 388.275200
    179    178    180     1   108.4600466 328.025600
    180    178    190     1   109.5600471 388.275200
    181    184    185     1   109.8000471 387.438400
    181    184    186     1   109.8000471 387.438400
    182    181    184     1   109.5600471 388.275200
    182    181    183     1   108.4600466 328.025600
    183    181    184     1   109.5600471 388.275200
    184    193    194     1   109.5600471 388.275200
    184    193    195     1   109.5600471 388.275200
    185    184    193     1   109.8000471 387.438400
    185    184    186     1   107.5800459 329.699200
    186    184    193     1   109.8000471 387.438400
    187    199    200     1   109.5600471 388.275200
    187    199    201     1   109.5600471 388.275200
    188    187    199     1   109.8000471 387.438400
    188    187    189     1   107.5800459 329.699200
    189    187    199     1   109.8000471 387.438400
    190    196    197     1   109.5600471 388.275200
    190    196    198     1   109.5600471 388.275200
    191    190    196     1   109.8000471 387.438400
    191    190    192     1   107.5800459 329.699200
    192    190    196     1   109.8000471 387.438400
    194    193    202     1   109.7800468 425.094400
    194    193    195     1   108.4600466 328.025600
    195    193    202     1   109.7800468 425.094400
    197    196    434     1   109.7800468 425.094400
    197    196    198     1   108.4600466 328.025600
    198    196    434     1   109.7800468 425.094400
    200    199    463     1   109.7800468 425.094400
    200    199    201     1   108.4600466 328.025600
    201    199    463     1   109.7800468 425.094400
    203    204    205     1   109.8800469 414.216000
    203    204    206     1   109.8800469 414.216000
    203    207    208     1   109.8800469 414.216000
    203    207    209     1   109.8800469 414.216000
    203    210    211     1   109.8800469 414.216000
    203    210    212     1   109.8800469 414.216000
    204    216    217     1   109.8000471 387.438400
    204    216    218     1   109.8000471 387.438400
    205    204    216     1   109.5600471 388.275200
    205    204    206     1   108.4600466 328.025600
    206    204    216     1   109.5600471 388.275200
    207    219    220     1   109.8000471 387.438400
    207    219    221     1   109.8000471 387.438400
    208    207    219     1   109.5600471 388.275200
    208    207    209     1   108.4600466 328.025600
    209    207    219     1   109.5600471 388.275200
    210    213    214     1   109.8000471 387.438400
    210    213    215     1   109.8000471 387.438400
    211    210    213     1   109.5600471 388.275200
    211    210    212     1   108.4600466 328.025600
    212    210    213     1   109.5600471 388.275200
    213    222    223     1   109.5600471 388.275200
    213    222    224     1   109.5600471 388.275200
    214    213    222     1   109.8000471 387.438400
    214    213    215     1   107.5800459 329.699200
    215    213    222     1   109.8000471 387.438400
    216    228    229     1   109.5600471 388.275200
    216    228    230     1   109.5600471 388.275200
    217    216    228     1   109.8000471 387.438400
    217    216    218     1   107.5800459 329.699200
    218    216    228     1   109.8000471 387.438400
    219    225    226     1   109.5600471 388.275200
    219    225    227     1   109.5600471 388.275200
    220    219    225     1   109.8000471 387.438400
    220    219    221     1   107.5800459 329.699200
    221    219    225     1   109.8000471 387.438400
    223    222    231     1   109.7800468 425.094400
    223    222    224     1   108.4600466 328.025600
    224    222    231     1   109.7800468 425.094400
    226    225    492     1   109.7800468 425.094400
    226    225    227     1   108.4600466 328.025600
    227    225    492     1   109.7800468 425.094400
    229    228    521     1   109.7800468 425.094400
    229    228    230     1   108.4600466 328.025600
    230    228    521     1   109.7800468 425.094400
    232    233    234     1   109.8800469 414.216000
    232    233    235     1   109.8800469 414.216000
    232    236    237     1   109.8800469 414.216000
    232    236    238     1   109.8800469 414.216000
    232    239    240     1   109.8800469 414.216000
    232    239    241     1   109.8800469 414.216000
    233    245    246     1   109.8000471 387.438400
    233    245    247     1   109.8000471 387.438400
    234    233    245     1   109.5600471 388.275200
    234    233    235     1   108.4600466 328.025600
    235    233    245     1   109.5600471 388.275200
    236    248    249     1   109.8000471 387.438400
    236    248    250     1   109.8000471 387.438400
    237    236    248     1   109.5600471 388.275200
    237    236    238     1   108.4600466 328.025600
    238    236    248     1   109.5600471 388.275200
    239    242    243     1   109.8000471 387.438400
    239    242    244     1   109.8000471 387.438400
    240    239    242     1   109.5600471 388.275200
    240    239    241     1   108.4600466 328.025600
    241    239    242     1   109.5600471 388.275200
    242    251    252     1   109.5600471 388.275200
    242    251    253     1   109.5600471 388.275200
    243    242    251     1   109.8000471 387.438400
    243    242    244     1   107.5800459 329.699200
    244    242    251     1   109.8000471 387.438400
    245    257    258     1   109.5600471 388.275200
    245    257    259     1   109.5600471 388.275200
    246    245    257     1   109.8000471 387.438400
    246    245    247     1   107.5800459 329.699200
    247    245    257     1   109.8000471 387.438400
    248    254    255     1   109.5600471 388.275200
    248    254    256     1   109.5600471 388.275200
    249    248    254     1   109.8000471 387.438400
    249    248    250     1   107.5800459 329.699200
    250    248    254     1   109.8000471 387.438400
    252    251    260     1   109.7800468 425.094400
    252    251    253     1   108.4600466 328.025600
    253    251    260     1   109.7800468 425.094400
    255    254    550     1   109.7800468 425.094400
    255    254    256     1   108.4600466 328.025600
    256    254    550     1   109.7800468 425.094400
    258    257    579     1   109.7800468 425.094400
    258    257    259     1   108.4600466 328.025600
    259    257    579     1   109.7800468 425.094400
    261    262    263     1   109.8800469 414.216000
    261    262    264     1   109.8800469 414.216000
    261    265    266     1   109.8800469 414.216000
    261    265    267     1   109.8800469 414.216000
    261    268    269     1   109.8800469 414.216000
    261    268    270     1   109.8800469 414.216000
    262    274    275     1   109.8000471 387.438400
    262    274    276     1   109.8000471 387.438400
    263    262    274     1   109.5600471 388.275200
    263    262    264     1   108.4600466 328.025600
    264    262    274     1   109.5600471 388.275200
    265    277    278     1   109.8000471 387.438400
    265    277    279     1   109.8000471 387.438400
    266    265    277     1   109.5600471 388.275200
    266    265    267     1   108.4600466 328.025600
    267    265    277     1   109.5600471 388.275200
    268    271    272     1   109.8000471 387.438400
    268    271    273     1   109.8000471 387.438400
    269    268    271     1   109.5600471 388.275200
    269    268    270     1   108.4600466 328.025600
    270    268    271     1   109.5600471 388.275200
    271    280    281     1   109.5600471 388.275200
    271    280    282     1   109.5600471 388.275200
    272    271    280     1   109.8000471 387.438400
    272    271    273     1   107.5800459 329.699200
    273    271    280     1   109.8000471 387.438400
    274    286    287     1   109.5600471 388.275200
    274    286    288     1   109.5600471 388.275200
    275    274    286     1   109.8000471 387.438400
    275    274    276     1   107.5800459 329.699200
    276    274    286     1   109.8000471 387.438400
    277    283    284     1   109.5600471 388.275200
    277    283    285     1   109.5600471 388.275200
    278    277    283     1   109.8000471 387.438400
    278    277    279     1   107.5800459 329.699200
    279    277    283     1   109.8000471 387.438400
    281    280    289     1   109.7800468 425.094400
    281    280    282     1   108.4600466 328.025600
    282    280    289     1   109.7800468 425.094400
    284    283    608     1   109.7800468 425.094400
    284    283    285     1   108.4600466 328.025600
    285    283    608     1   109.7800468 425.094400
    287    286    637     1   109.7800468 425.094400
    287    286    288     1   108.4600466 328.025600
    288    286    637     1   109.7800468 425.094400
    290    291    292     1   109.8800469 414.216000
    290    291    293     1   109.8800469 414.216000
    290    294    295     1   109.8800469 414.216000
    290    294    296     1   109.8800469 414.216000
    290    297    298     1   109.8800469 414.216000
    290    297    299     1   109.8800469 414.216000
    291    303    304     1   109.8000471 387.438400
    291    303    305     1   109.8000471 387.438400
    292    291    303     1   109.5600471 388.275200
    292    291    293     1   108.4600466 328.025600
    293    291    303     1   109.5600471 388.275200
    294    306    307     1   109.8000471 387.438400
    294    306    308     1   109.8000471 387.438400
    295    294    306     1   109.5600471 388.275200
    295    294    296     1   108.4600466 328.025600
    296    294    306     1   109.5600471 388.275200
    297    300    301     1   109.8000471 387.438400
    297    300    302     1   109.8000471 387.438400
    298    297    300     1   109.5600471 388.275200
    298    297    299     1   108.4600466 328.025600
    299    297    300     1   109.5600471 388.275200
    300    309    310     1   109.5600471 388.275200
    300    309    311     1   109.5600471 388.275200
    301    300    309     1   109.8000471 387.438400
    301    300    302     1   107.5800459 329.699200
    302    300    309     1   109.8000471 387.438400
    303    315    316     1   109.5600471 388.275200
    303    315    317     1   109.5600471 388.275200
    304    303    315     1   109.8000471 387.438400
    304    303    305     1   107.5800459 329.699200
    305    303    315     1   109.8000471 387.438400
    306    312    313     1   109.5600471 388.275200
    306    312    314     1   109.5600471 388.275200
    307    306    312     1   109.8000471 387.438400
    307    306    308     1   107.5800459 329.699200
    308    306    312     1   109.8000471 387.438400
    310    309    318     1   109.7800468 425.094400
    310    309    311     1   108.4600466 328.025600
    311    309    318     1   109.7800468 425.094400
    313    312    666     1   109.7800468 425.094400
    313    312    314     1   108.4600466 328.025600
    314    312    666     1   109.7800468 425.094400
    316    315    695     1   109.7800468 425.094400
    316    315    317     1   108.4600466 328.025600
    317    315    695     1   109.7800468 425.094400
    319    320    321     1   109.8800469 414.216000
    319    320    322     1   109.8800469 414.216000
    319    323    324     1   109.8800469 414.216000
    319    323    325     1   109.8800469 414.216000
    319    326    327     1   109.8800469 414.216000
    319    326    328     1   109.8800469 414.216000
    320    332    333     1   109.8000471 387.438400
    320    332    334     1   109.8000471 387.438400
    321    320    332     1   109.5600471 388.275200
    321    320    322     1   108.4600466 328.025600
    322    320    332     1   109.5600471 388.275200
    323    335    336     1   109.8000471 387.438400
    323    335    337     1   109.8000471 387.438400
    324    323    335     1   109.5600471 388.275200
    324    323    325     1   108.4600466 328.025600
    325    323    335     1   109.5600471 388.275200
    326    329    330     1   109.8000471 387.438400
    326    329    331     1   109.8000471 387.438400
    327    326    329     1   109.5600471 388.275200
    327    326    328     1   108.4600466 328.025600
    328    326    329     1   109.5600471 388.275200
    329    338    339     1   109.5600471 388.275200
    329    338    340     1   109.5600471 388.275200
    330    329    338     1   109.8000471 387.438400
    330    329    331     1   107.5800459 329.699200
    331    329    338     1   109.8000471 387.438400
    332    344    345     1   109.5600471 388.275200
    332    344    346     1   109.5600471 388.275200
    333    332    344     1   109.8000471 387.438400
    333    332    334     1   107.5800459 329.699200
    334    332    344     1   109.8000471 387.438400
    335    341    342     1   109.5600471 388.275200
    335    341    343     1   109.5600471 388.275200
    336    335    341     1   109.8000471 387.438400
    336    335    337     1   107.5800459 329.699200
    337    335    341     1   109.8000471 387.438400
    339    338    347     1   109.7800468 425.094400
    339    338    340     1   108.4600466 328.025600
    340    338    347     1   109.7800468 425.094400
    342    341    724     1   109.7800468 425.094400
    342    341    343     1   108.4600466 328.025600
    343    341    724     1   109.7800468 425.094400
    345    344    753     1   109.7800468 425.094400
    345    344    346     1   108.4600466 328.025600
    346    344    753     1   109.7800468 425.094400
    348    349    350     1   109.8800469 414.216000
    348    349    351     1   109.8800469 414.216000
    348    352    353     1   109.8800469 414.216000
    348    352    354     1   109.8800469 414.216000
    348    355    356     1   109.8800469 414.216000
    348    355    357     1   109.8800469 414.216000
    349    361    362     1   109.8000471 387.438400
    349    361    363     1   109.8000471 387.438400
    350    349    361     1   109.5600471 388.275200
    350    349    351     1   108.4600466 328.025600
    351    349    361     1   109.5600471 388.275200
    352    364    365     1   109.8000471 387.438400
    352    364    366     1   109.8000471 387.438400
    353    352    364     1   109.5600471 388.275200
    353    352    354     1   108.4600466 328.025600
    354    352    364     1   109.5600471 388.275200
    355    358    359     1   109.8000471 387.438400
    355    358    360     1   109.8000471 387.438400
    356    355    358     1   109.5600471 388.275200
    356    355    357     1   108.4600466 328.025600
    357    355    358     1   109.5600471 388.275200
    358    367    368     1   109.5600471 388.275200
    358    367    369     1   109.5600471 388.275200
    359    358    367     1   109.8000471 387.438400
    359    358    360     1   107.5800459 329.699200
    360    358    367     1   109.8000471 387.438400
    361    373    374     1   109.5600471 388.275200
    361    373    375     1   109.5600471 388.275200
    362    361    373     1   109.8000471 387.438400
    362    361    363     1   107.5800459 329.699200
    363    361    373     1   109.8000471 387.438400
    364    370    371     1   109.5600471 388.275200
    364    370    372     1   109.5600471 388.275200
    365    364    370     1   109.8000471 387.438400
    365    364    366     1   107.5800459 329.699200
    366    364    370     1   109.8000471 387.438400
    368    367    376     1   109.7800468 425.094400
    368    367    369     1   108.4600466 328.025600
    369    367    376     1   109.7800468 425.094400
    371    370    782     1   109.7800468 425.094400
    371    370    372     1   108.4600466 328.025600
    372    370    782     1   109.7800468 425.094400
    374    373    811     1   109.7800468 425.094400
    374    373    375     1   108.4600466 328.025600
    375    373    811     1   109.7800468 425.094400
    377    378    379     1   109.8800469 414.216000
    377    378    380     1   109.8800469 414.216000
    377    381    382     1   109.8800469 414.216000
    377    381    383     1   109.8800469 414.216000
    377    384    385     1   109.8800469 414.216000
    377    384    386     1   109.8800469 414.216000
    378    390    391     1   109.8000471 387.438400
    378    390    392     1   109.8000471 387.438400
    379    378    390     1   109.5600471 388.275200
    379    378    380     1   108.4600466 328.025600
    380    378    390     1   109.5600471 388.275200
    381    393    394     1   109.8000471 387.438400
    381    393    395     1   109.8000471 387.438400
    382    381    393     1   109.5600471 388.275200
    382    381    383     1   108.4600466 328.025600
    383    381    393     1   109.5600471 388.275200
    384    387    388     1   109.8000471 387.438400
    384    387    389     1   109.8000471 387.438400
    385    384    387     1   109.5600471 388.275200
    385    384    386     1   108.4600466 328.025600
    386    384    387     1   109.5600471 388.275200
    387    396    397     1   109.5600471 388.275200
    387    396    398     1   109.5600471 388.275200
    388    387    396     1   109.8000471 387.438400
    388    387    389     1   107.5800459 329.699200
    389    387    396     1   109.8000471 387.438400
    390    402    403     1   109.5600471 388.275200
    390    402    404     1   109.5600471 388.275200
    391    390    402     1   109.8000471 387.438400
    391    390    392     1   107.5800459 329.699200
    392    390    402     1   109.8000471 387.438400
    393    399    400     1   109.5600471 388.275200
    393    399    401     1   109.5600471 388.275200
    394    393    399     1   109.8000471 387.438400
    394    393    395     1   107.5800459 329.699200
    395    393    399     1   109.8000471 387.438400
    397    396    405     1   109.7800468 425.094400
    397    396    398     1   108.4600466 328.025600
    398    396    405     1   109.7800468 425.094400
    400    399    840     1   109.7800468 425.094400
    400    399    401     1   108.4600466 328.025600
    401    399    840     1   109.7800468 425.094400
    403    402    869     1   109.7800468 425.094400
    403    402    404     1   108.4600466 328.025600
    404    402    869     1   109.7800468 425.094400
    406    407    408     1   109.8800469 414.216000
    406    407    409     1   109.8800469 414.216000
    406    410    411     1   109.8800469 414.216000
    406    410    412     1   109.8800469 414.216000
    406    413    414     1   109.8800469 414.216000
    406    413    415     1   109.8800469 414.216000
    407    419    420     1   109.8000471 387.438400
    407    419    421     1   109.8000471 387.438400
    408    407    419     1   109.5600471 388.275200
    408    407    409     1   108.4600466 328.025600
    409    407    419     1   109.5600471 388.275200
    410    422    423     1   109.8000471 387.438400
    410    422    424     1   109.8000471 387.438400
    411    410    422     1   109.5600471 388.275200
    411    410    412     1   108.4600466 328.025600
    412    410    422     1   109.5600471 388.275200
    413    416    417     1   109.8000471 387.438400
    413    416    418     1   109.8000471 387.438400
    414    413    416     1   109.5600471 388.275200
    414    413    415     1   108.4600466 328.025600
    415    413    416     1   109.5600471 388.275200
    416    425    426     1   109.5600471 388.275200
    416    425    427     1   109.5600471 388.275200
    417    416    425     1   109.8000471 387.438400
    417    416    418     1   107.5800459 329.699200
    418    416    425     1   109.8000471 387.438400
    419    431    432     1   109.5600471 388.275200
    419    431    433     1   109.5600471 388.275200
    420    419    431     1   109.8000471 387.438400
    420    419    421     1   107.5800459 329.699200
    421    419    431     1   109.8000471 387.438400
    422    428    429     1   109.5600471 388.275200
    422    428    430     1   109.5600471 388.275200
    423    422    428     1   109.8000471 387.438400
    423    422    424     1   107.5800459 329.699200
    424    422    428     1   109.8000471 387.438400
    426    425    434     1   109.7800468 425.094400
    426    425    427     1   108.4600466 328.025600
    427    425    434     1   109.7800468 425.094400
    429    428    898     1   109.7800468 425.094400
    429    428    430     1   108.4600466 328.025600
    430    428    898     1   109.7800468 425.094400
    432    431    927     1   109.7800468 425.094400
    432    431    433     1   108.4600466 328.025600
    433    431    927     1   109.7800468 425.094400
    435    436    437     1   109.8800469 414.216000
    435    436    438     1   109.8800469 414.216000
    435    439    440     1   109.8800469 414.216000
    435    439    441     1   109.8800469 414.216000
    435    442    443     1   109.8800469 414.216000
    435    442    444     1   109.8800469 414.216000
    436    448    449     1   109.8000471 387.438400
    436    448    450     1   109.8000471 387.438400
    437    436    448     1   109.5600471 388.275200
    437    436    438     1   108.4600466 328.025600
    438    436    448     1   109.5600471 388.275200
    439    451    452     1   109.8000471 387.438400
    439    451    453     1   109.8000471 387.438400
    440    439    451     1   109.5600471 388.275200
    440    439    441     1   108.4600466 328.025600
    441    439    451     1   109.5600471 388.275200
    442    445    446     1   109.8000471 387.438400
    442    445    447     1   109.8000471 387.438400
    443    442    445     1   109.5600471 388.275200
    443    442    444     1   108.4600466 328.025600
    444    442    445     1   109.5600471 388.275200
    445    454    455     1   109.5600471 388.275200
    445    454    456     1   109.5600471 388.275200
    446    445    454     1   109.8000471 387.438400
    446    445    447     1   107.5800459 329.699200
    447    445    454     1   109.8000471 387.438400
    448    460    461     1   109.5600471 388.275200
    448    460    462     1   109.5600471 388.275200
    449    448    460     1   109.8000471 387.438400
    449    448    450     1   107.5800459 329.699200
    450    448    460     1   109.8000471 387.438400
    451    457    458     1   109.5600471 388.275200
    451    457    459     1   109.5600471 388.275200
    452    451    457     1   109.8000471 387.438400
    452    451    453     1   107.5800459 329.699200
    453    451    457     1   109.8000471 387.438400
    455    454    463     1   109.7800468 425.094400
    455    454    456     1   108.4600466 328.025600
    456    454    463     1   109.7800468 425.094400
    458    457    956     1   109.7800468 425.094400
    458    457    459     1   108.4600466 328.025600
    459    457    956     1   109.7800468 425.094400
    461    460    985     1   109.7800468 425.094400
    461    460    462     1   108.4600466 328.025600
    462    460    985     1   109.7800468 425.094400
    464    465    466     1   109.8800469 414.216000
    464    465    467     1   109.8800469 414.216000
    464    468    469     1   109.8800469 414.216000
    464    468    470     1   109.8800469 414.216000
    464    471    472     1   109.8800469 414.216000
    464    471    473     1   109.8800469 414.216000
    465    477    478     1   109.8000471 387.438400
    465    477    479     1   109.8000471 387.438400
    466    465    477     1   109.5600471 388.275200
    466    465    467     1   108.4600466 328.025600
    467    465    477     1   109.5600471 388.275200
    468    480    481     1   109.8000471 387.438400
    468    480    482     1   109.8000471 387.438400
    469    468    480     1   109.5600471 388.275200
    469    468    470     1   108.4600466 328.025600
    470    468    480     1   109.5600471 388.275200
    471    474    475     1   109.8000471 387.438400
    471    474    476     1   109.8000471 387.438400
    472    471    474     1   109.5600471 388.275200
    472    471    473     1   108.4600466 328.025600
    473    471    474     1   109.5600471 388.275200
    474    483    484     1   109.5600471 388.275200
    474    483    485     1   109.5600471 388.275200
    475    474    483     1   109.8000471 387.438400
    475    474    476     1   107.5800459 329.699200
    476    474    483     1   109.8000471 387.438400
    477    489    490     1   109.5600471 388.275200
    477    489    491     1   109.5600471 388.275200
    478    477    489     1   109.8000471 387.438400
    478    477    479     1   107.5800459 329.699200
    479    477    489     1   109.8000471 387.438400
    480    486    487     1   109.5600471 388.275200
    480    486    488     1   109.5600471 388.275200
    481    480    486     1   109.8000471 387.438400
    481    480    482     1   107.5800459 329.699200
    482    480    486     1   109.8000471 387.438400
    484    483    492     1   109.7800468 425.094400
    484    483    485     1   108.4600466 328.025600
    485    483    492     1   109.7800468 425.094400
    487    486   1014     1   109.7800468 425.094400
    487    486    488     1   108.4600466 328.025600
    488    486   1014     1   109.7800468 425.094400
    490    489   1043     1   109.7800468 425.094400
    490    489    491     1   108.4600466 328.025600
    491    489   1043     1   109.7800468 425.094400
    493    494    495     1   109.8800469 414.216000
    493    494    496     1   109.8800469 414.216000
    493    497    498     1   109.8800469 414.216000
    493    497    499     1   109.8800469 414.216000
    493    500    501     1   109.8800469 414.216000
    493    500    502     1   109.8800469 414.216000
    494    506    507     1   109.8000471 387.438400
    494    506    508     1   109.8000471 387.438400
    495    494    506     1   109.5600471 388.275200
    495    494    496     1   108.4600466 328.025600
    496    494    506     1   109.5600471 388.275200
    497    509    510     1   109.8000471 387.438400
    497    509    511     1   109.8000471 387.438400
    498    497    509     1   109.5600471 388.275200
    498    497    499     1   108.4600466 328.025600
    499    497    509     1   109.5600471 388.275200
    500    503    504     1   109.8000471 387.438400
    500    503    505     1   109.8000471 387.438400
    501    500    503     1   109.5600471 388.275200
    501    500    502     1   108.4600466 328.025600
    502    500    503     1   109.5600471 388.275200
    503    512    513     1   109.5600471 388.275200
    503    512    514     1   109.5600471 388.275200
    504    503    512     1   109.8000471 387.438400
    504    503    505     1   107.5800459 329.699200
    505    503    512     1   109.8000471 387.438400
    506    518    519     1   109.5600471 388.275200
    506    518    520     1   109.5600471 388.275200
    507    506    518     1   109.8000471 387.438400
    507    506    508     1   107.5800459 329.699200
    508    506    518     1   109.8000471 387.438400
    509    515    516     1   109.5600471 388.275200
    509    515    517     1   109.5600471 388.275200
    510    509    515     1   109.8000471 387.438400
    510    509    511     1   107.5800459 329.699200
    511    509    515     1   109.8000471 387.438400
    513    512    521     1   109.7800468 425.094400
    513    512    514     1   108.4600466 328.025600
    514    512    521     1   109.7800468 425.094400
    516    515   1072     1   109.7800468 425.094400
    516    515    517     1   108.4600466 328.025600
    517    515   1072     1   109.7800468 425.094400
    519    518   1101     1   109.7800468 425.094400
    519    518    520     1   108.4600466 328.025600
    520    518   1101     1   109.7800468 425.094400
    522    523    524     1   109.8800469 414.216000
    522    523    525     1   109.8800469 414.216000
    522    526    527     1   109.8800469 414.216000
    522    526    528     1   109.8800469 414.216000
    522    529    530     1   109.8800469 414.216000
    522    529    531     1   109.8800469 414.216000
    523    535    536     1   109.8000471 387.438400
    523    535    537     1   109.8000471 387.438400
    524    523    535     1   109.5600471 388.275200
    524    523    525     1   108.4600466 328.025600
    525    523    535     1   109.5600471 388.275200
    526    538    539     1   109.8000471 387.438400
    526    538    540     1   109.8000471 387.438400
    527    526    538     1   109.5600471 388.275200
    527    526    528     1   108.4600466 328.025600
    528    526    538     1   109.5600471 388.275200
    529    532    533     1   109.8000471 387.438400
    529    532    534     1   109.8000471 387.438400
    530    529    532     1   109.5600471 388.275200
    530    529    531     1   108.4600466 328.025600
    531    529    532     1   109.5600471 388.275200
    532    541    542     1   109.5600471 388.275200
    532    541    543     1   109.5600471 388.275200
    533    532    541     1   109.8000471 387.438400
    533    532    534     1   107.5800459 329.699200
    534    532    541     1   109.8000471 387.438400
    535    547    548     1   109.5600471 388.275200
    535    547    549     1   109.5600471 388.275200
    536    535    547     1   109.8000471 387.438400
    536    535    537     1   107.5800459 329.699200
    537    535    547     1   109.8000471 387.438400
    538    544    545     1   109.5600471 388.275200
    538    544    546     1   109.5600471 388.275200
    539    538    544     1   109.8000471 387.438400
    539    538    540     1   107.5800459 329.699200
    540    538    544     1   109.8000471 387.438400
    542    541    550     1   109.7800468 425.094400
    542    541    543     1   108.4600466 328.025600
    543    541    550     1   109.7800468 425.094400
    545    544   1130     1   109.7800468 425.094400
    545    544    546     1   108.4600466 328.025600
    546    544   1130     1   109.7800468 425.094400
    548    547   1159     1   109.7800468 425.094400
    548    547    549     1   108.4600466 328.025600
    549    547   1159     1   109.7800468 425.094400
    551    552    553     1   109.8800469 414.216000
    551    552    554     1   109.8800469 414.216000
    551    555    556     1   109.8800469 414.216000
    551    555    557     1   109.8800469 414.216000
    551    558    559     1   109.8800469 414.216000
    551    558    560     1   109.8800469 414.216000
    552    564    565     1   109.8000471 387.438400
    552    564    566     1   109.8000471 387.438400
    553    552    564     1   109.5600471 388.275200
    553    552    554     1   108.4600466 328.025600
    554    552    564     1   109.5600471 388.275200
    555    567    568     1   109.8000471 387.438400
    555    567    569     1   109.8000471 387.438400
    556    555    567     1   109.5600471 388.275200
    556    555    557     1   108.4600466 328.025600
    557    555    567     1   109.5600471 388.275200
    558    561    562     1   109.8000471 387.438400
    558    561    563     1   109.8000471 387.438400
    559    558    561     1   109.5600471 388.275200
    559    558    560     1   108.4600466 328.025600
    560    558    561     1   109.5600471 388.275200
    561    570    571     1   109.5600471 388.275200
    561    570    572     1   109.5600471 388.275200
    562    561    570     1   109.8000471 387.438400
    562    561    563     1   107.5800459 329.699200
    563    561    570     1   109.8000471 387.438400
    564    576    577     1   109.5600471 388.275200
    564    576    578     1   109.5600471 388.275200
    565    564    576     1   109.8000471 387.438400
    565    564    566     1   107.5800459 329.699200
    566    564    576     1   109.8000471 387.438400
    567    573    574     1   109.5600471 388.275200
    567    573    575     1   109.5600471 388.275200
    568    567    573     1   109.8000471 387.438400
    568    567    569     1   107.5800459 329.699200
    569    567    573     1   109.8000471 387.438400
    571    570    579     1   109.7800468 425.094400
    571    570    572     1   108.4600466 328.025600
    572    570    579     1   109.7800468 425.094400
    574    573   1188     1   109.7800468 425.094400
    574    573    575     1   108.4600466 328.025600
    575    573   1188     1   109.7800468 425.094400
    577    576   1217     1   109.7800468 425.094400
    577    576    578     1   108.4600466 328.025600
    578    576   1217     1   109.7800468 425.094400
    580    581    582     1   109.8800469 414.216000
    580    581    583     1   109.8800469 414.216000
    580    584    585     1   109.8800469 414.216000
    580    584    586     1   109.8800469 414.216000
    580    587    588     1   109.8800469 414.216000
    580    587    589     1   109.8800469 414.216000
    581    593    594     1   109.8000471 387.438400
    581    593    595     1   109.8000471 387.438400
    582    581    593     1   109.5600471 388.275200
    582    581    583     1   108.4600466 328.025600
    583    581    593     1   109.5600471 388.275200
    584    596    597     1   109.8000471 387.438400
    584    596    598     1   109.8000471 387.438400
    585    584    596     1   109.5600471 388.275200
    585    584    586     1   108.4600466 328.025600
    586    584    596     1   109.5600471 388.275200
    587    590    591     1   109.8000471 387.438400
    587    590    592     1   109.8000471 387.438400
    588    587    590     1   109.5600471 388.275200
    588    587    589     1   108.4600466 328.025600
    589    587    590     1   109.5600471 388.275200
    590    599    600     1   109.5600471 388.275200
    590    599    601     1   109.5600471 388.275200
    591    590    599     1   109.8000471 387.438400
    591    590    592     1   107.5800459 329.699200
    592    590    599     1   109.8000471 387.438400
    593    605    606     1   109.5600471 388.275200
    593    605    607     1   109.5600471 388.275200
    594    593    605     1   109.8000471 387.438400
    594    593    595     1   107.5800459 329.699200
    595    593    605     1   109.8000471 387.438400
    596    602    603     1   109.5600471 388.275200
    596    602    604     1   109.5600471 388.275200
    597    596    602     1   109.8000471 387.438400
    597    596    598     1   107.5800459 329.699200
    598    596    602     1   109.8000471 387.438400
    600    599    608     1   109.7800468 425.094400
    600    599    601     1   108.4600466 328.025600
    601    599    608     1   109.7800468 425.094400
    603    602   1246     1   109.7800468 425.094400
    603    602    604     1   108.4600466 328.025600
    604    602   1246     1   109.7800468 425.094400
    606    605   1275     1   109.7800468 425.094400
    606    605    607     1   108.4600466 328.025600
    607    605   1275     1   109.7800468 425.094400
    609    610    611     1   109.8800469 414.216000
    609    610    612     1   109.8800469 414.216000
    609    613    614     1   109.8800469 414.216000
    609    613    615     1   109.8800469 414.216000
    609    616    617     1   109.8800469 414.216000
    609    616    618     1   109.8800469 414.216000
    610    622    623     1   109.8000471 387.438400
    610    622    624     1   109.8000471 387.438400
    611    610    622     1   109.5600471 388.275200
    611    610    612     1   108.4600466 328.025600
    612    610    622     1   109.5600471 388.275200
    613    625    626     1   109.8000471 387.438400
    613    625    627     1   109.8000471 387.438400
    614    613    625     1   109.5600471 388.275200
    614    613    615     1   108.4600466 328.025600
    615    613    625     1   109.5600471 388.275200
    616    619    620     1   109.8000471 387.438400
    616    619    621     1   109.8000471 387.438400
    617    616    619     1   109.5600471 388.275200
    617    616    618     1   108.4600466 328.025600
    618    616    619     1   109.5600471 388.275200
    619    628    629     1   109.5600471 388.275200
    619    628    630     1   109.5600471 388.275200
    620    619    628     1   109.8000471 387.438400
    620    619    621     1   107.5800459 329.699200
    621    619    628     1   109.8000471 387.438400
    622    634    635     1   109.5600471 388.275200
    622    634    636     1   109.5600471 388.275200
    623    622    634     1   109.8000471 387.438400
    623    622    624     1   107.5800459 329.699200
    624    622    634     1   109.8000471 387.438400
    625    631    632     1   109.5600471 388.275200
    625    631    633     1   109.5600471 388.275200
    626    625    631     1   109.8000471 387.438400
    626    625    627     1   107.5800459 329.699200
    627    625    631     1   109.8000471 387.438400
    629    628    637     1   109.7800468 425.094400
    629    628    630     1   108.4600466 328.025600
    630    628    637     1   109.7800468 425.094400
    632    631   1304     1   109.7800468 425.094400
    632    631    633     1   108.4600466 328.025600
    633    631   1304     1   109.7800468 425.094400
    635    634   1333     1   109.7800468 425.094400
    635    634    636     1   108.4600466 328.025600
    636    634   1333     1   109.7800468 425.094400
    638    639    640     1   109.8800469 414.216000
    638    639    641     1   109.8800469 414.216000
    638    642    643     1   109.8800469 414.216000
    638    642    644     1   109.8800469 414.216000
    638    645    646     1   109.8800469 414.216000
    638    645    647     1   109.8800469 414.216000
    639    651    652     1   109.8000471 387.438400
    639    651    653     1   109.8000471 387.438400
    640    639    651     1   109.5600471 388.275200
    640    639    641     1   108.4600466 328.025600
    641    639    651     1   109.5600471 388.275200
    642    654    655     1   109.8000471 387.438400
    642    654    656     1   109.8000471 387.438400
    643    642    654     1   109.5600471 388.275200
    643    642    644     1   108.4600466 328.025600
    644    642    654     1   109.5600471 388.275200
    645    648    649     1   109.8000471 387.438400
    645    648    650     1   109.8000471 387.438400
    646    645    648     1   109.5600471 388.275200
    646    645    647     1   108.4600466 328.025600
    647    645    648     1   109.5600471 388.275200
    648    657    658     1   109.5600471 388.275200
    648    657    659     1   109.5600471 388.275200
    649    648    657     1   109.8000471 387.438400
    649    648    650     1   107.5800459 329.699200
    650    648    657     1   109.8000471 387.438400
    651    663    664     1   109.5600471 388.275200
    651    663    665     1   109.5600471 388.275200
    652    651    663     1   109.8000471 387.438400
    652    651    653     1   107.5800459 329.699200
    653    651    663     1   109.8000471 387.438400
    654    660    661     1   109.5600471 388.275200
    654    660    662     1   109.5600471 388.275200
    655    654    660     1   109.8000471 387.438400
    655    654    656     1   107.5800459 329.699200
    656    654    660     1   109.8000471 387.438400
    658    657    666     1   109.7800468 425.094400
    658    657    659     1   108.4600466 328.025600
    659    657    666     1   109.7800468 425.094400
    661    660   1364     1   109.7800468 425.094400
    661    660    662     1   108.4600466 328.025600
    662    660   1364     1   109.7800468 425.094400
    664    663   1395     1   109.7800468 425.094400
    664    663    665     1   108.4600466 328.025600
    665    663   1395     1   109.7800468 425.094400
    667    668    669     1   109.8800469 414.216000
    667    668    670     1   109.8800469 414.216000
    667    671    672     1   109.8800469 414.216000
    667    671    673     1   109.8800469 414.216000
    667    674    675     1   109.8800469 414.216000
    667    674    676     1   109.8800469 414.216000
    668    680    681     1   109.8000471 387.438400
    668    680    682     1   109.8000471 387.438400
    669    668    680     1   109.5600471 388.275200
    669    668    670     1   108.4600466 328.025600
    670    668    680     1   109.5600471 388.275200
    671    683    684     1   109.8000471 387.438400
    671    683    685     1   109.8000471 387.438400
    672    671    683     1   109.5600471 388.275200
    672    671    673     1   108.4600466 328.025600
    673    671    683     1   109.5600471 388.275200
    674    677    678     1   109.8000471 387.438400
    674    677    679     1   109.8000471 387.438400
    675    674    677     1   109.5600471 388.275200
    675    674    676     1   108.4600466 328.025600
    676    674    677     1   109.5600471 388.275200
    677    686    687     1   109.5600471 388.275200
    677    686    688     1   109.5600471 388.275200
    678    677    686     1   109.8000471 387.438400
    678    677    679     1   107.5800459 329.699200
    679    677    686     1   109.8000471 387.438400
    680    692    693     1   109.5600471 388.275200
    680    692    694     1   109.5600471 388.275200
    681    680    692     1   109.8000471 387.438400
    681    680    682     1   107.5800459 329.699200
    682    680    692     1   109.8000471 387.438400
    683    689    690     1   109.5600471 388.275200
    683    689    691     1   109.5600471 388.275200
    684    683    689     1   109.8000471 387.438400
    684    683    685     1   107.5800459 329.699200
    685    683    689     1   109.8000471 387.438400
    687    686    695     1   109.7800468 425.094400
    687    686    688     1   108.4600466 328.025600
    688    686    695     1   109.7800468 425.094400
    690    689   1426     1   109.7800468 425.094400
    690    689    691     1   108.4600466 328.025600
    691    689   1426     1   109.7800468 425.094400
    693    692   1457     1   109.7800468 425.094400
    693    692    694     1   108.4600466 328.025600
    694    692   1457     1   109.7800468 425.094400
    696    697    698     1   109.8800469 414.216000
    696    697    699     1   109.8800469 414.216000
    696    700    701     1   109.8800469 414.216000
    696    700    702     1   109.8800469 414.216000
    696    703    704     1   109.8800469 414.216000
    696    703    705     1   109.8800469 414.216000
    697    709    710     1   109.8000471 387.438400
    697    709    711     1   109.8000471 387.438400
    698    697    709     1   109.5600471 388.275200
    698    697    699     1   108.4600466 328.025600
    699    697    709     1   109.5600471 388.275200
    700    712    713     1   109.8000471 387.438400
    700    712    714     1   109.8000471 387.438400
    701    700    712     1   109.5600471 388.275200
    701    700    702     1   108.4600466 328.025600
    702    700    712     1   109.5600471 388.275200
    703    706    707     1   109.8000471 387.438400
    703    706    708     1   109.8000471 387.438400
    704    703    706     1   109.5600471 388.275200
    704    703    705     1   108.4600466 328.025600
    705    703    706     1   109.5600471 388.275200
    706    715    716     1   109.5600471 388.275200
    706    715    717     1   109.5600471 388.275200
    707    706    715     1   109.8000471 387.438400
    707    706    708     1   107.5800459 329.699200
    708    706    715     1   109.8000471 387.438400
    709    721    722     1   109.5600471 388.275200
    709    721    723     1   109.5600471 388.275200
    710    709    721     1   109.8000471 387.438400
    710    709    711     1   107.5800459 329.699200
    711    709    721     1   109.8000471 387.438400
    712    718    719     1   109.5600471 388.275200
    712    718    720     1   109.5600471 388.275200
    713    712    718     1   109.8000471 387.438400
    713    712    714     1   107.5800459 329.699200
    714    712    718     1   109.8000471 387.438400
    716    715    724     1   109.7800468 425.094400
    716    715    717     1   108.4600466 328.025600
    717    715    724     1   109.7800468 425.094400
    719    718   1488     1   109.7800468 425.094400
    719    718    720     1   108.4600466 328.025600
    720    718   1488     1   109.7800468 425.094400
    722    721   1519     1   109.7800468 425.094400
    722    721    723     1   108.4600466 328.025600
    723    721   1519     1   109.7800468 425.094400
    725    726    727     1   109.8800469 414.216000
    725    726    728     1   109.8800469 414.216000
    725    729    730     1   109.8800469 414.216000
    725    729    731     1   109.8800469 414.216000
    725    732    733     1   109.8800469 414.216000
    725    732    734     1   109.8800469 414.216000
    726    738    739     1   109.8000471 387.438400
    726    738    740     1   109.8000471 387.438400
    727    726    738     1   109.5600471 388.275200
    727    726    728     1   108.4600466 328.025600
    728    726    738     1   109.5600471 388.275200
    729    741    742     1   109.8000471 387.438400
    729    741    743     1   109.8000471 387.438400
    730    729    741     1   109.5600471 388.275200
    730    729    731     1   108.4600466 328.025600
    731    729    741     1   109.5600471 388.275200
    732    735    736     1   109.8000471 387.438400
    732    735    737     1   109.8000471 387.438400
    733    732    735     1   109.5600471 388.275200
    733    732    734     1   108.4600466 328.025600
    734    732    735     1   109.5600471 388.275200
    735    744    745     1   109.5600471 388.275200
    735    744    746     1   109.5600471 388.275200
    736    735    744     1   109.8000471 387.438400
    736    735    737     1   107.5800459 329.699200
    737    735    744     1   109.8000471 387.438400
    738    750    751     1   109.5600471 388.275200
    738    750    752     1   109.5600471 388.275200
    739    738    750     1   109.8000471 387.438400
    739    738    740     1   107.5800459 329.699200
    740    738    750     1   109.8000471 387.438400
    741    747    748     1   109.5600471 388.275200
    741    747    749     1   109.5600471 388.275200
    742    741    747     1   109.8000471 387.438400
    742    741    743     1   107.5800459 329.699200
    743    741    747     1   109.8000471 387.438400
    745    744    753     1   109.7800468 425.094400
    745    744    746     1   108.4600466 328.025600
    746    744    753     1   109.7800468 425.094400
    748    747   1550     1   109.7800468 425.094400
    748    747    749     1   108.4600466 328.025600
    749    747   1550     1   109.7800468 425.094400
    751    750   1581     1   109.7800468 425.094400
    751    750    752     1   108.4600466 328.025600
    752    750   1581     1   109.7800468 425.094400
    754    755    756     1   109.8800469 414.216000
    754    755    757     1   109.8800469 414.216000
    754    758    759     1   109.8800469 414.216000
    754    758    760     1   109.8800469 414.216000
    754    761    762     1   109.8800469 414.216000
    754    761    763     1   109.8800469 414.216000
    755    767    768     1   109.8000471 387.438400
    755    767    769     1   109.8000471 387.438400
    756    755    767     1   109.5600471 388.275200
    756    755    757     1   108.4600466 328.025600
    757    755    767     1   109.5600471 388.275200
    758    770    771     1   109.8000471 387.438400
    758    770    772     1   109.8000471 387.438400
    759    758    770     1   109.5600471 388.275200
    759    758    760     1   108.4600466 328.025600
    760    758    770     1   109.5600471 388.275200
    761    764    765     1   109.8000471 387.438400
    761    764    766     1   109.8000471 387.438400
    762    761    764     1   109.5600471 388.275200
    762    761    763     1   108.4600466 328.025600
    763    761    764     1   109.5600471 388.275200
    764    773    774     1   109.5600471 388.275200
    764    773    775     1   109.5600471 388.275200
    765    764    773     1   109.8000471 387.438400
    765    764    766     1   107.5800459 329.699200
    766    764    773     1   109.8000471 387.438400
    767    779    780     1   109.5600471 388.275200
    767    779    781     1   109.5600471 388.275200
    768    767    779     1   109.8000471 387.438400
    768    767    769     1   107.5800459 329.699200
    769    767    779     1   109.8000471 387.438400
    770    776    777     1   109.5600471 388.275200
    770    776    778     1   109.5600471 388.275200
    771    770    776     1   109.8000471 387.438400
    771    770    772     1   107.5800459 329.699200
    772    770    776     1   109.8000471 387.438400
    774    773    782     1   109.7800468 425.094400
    774    773    775     1   108.4600466 328.025600
    775    773    782     1   109.7800468 425.094400
    777    776   1612     1   109.7800468 425.094400
    777    776    778     1   108.4600466 328.025600
    778    776   1612     1   109.7800468 425.094400
    780    779   1643     1   109.7800468 425.094400
    780    779    781     1   108.4600466 328.025600
    781    779   1643     1   109.7800468 425.094400
    783    784    785     1   109.8800469 414.216000
    783    784    786     1   109.8800469 414.216000
    783    787    788     1   109.8800469 414.216000
    783    787    789     1   109.8800469 414.216000
    783    790    791     1   109.8800469 414.216000
    783    790    792     1   109.8800469 414.216000
    784    796    797     1   109.8000471 387.438400
    784    796    798     1   109.8000471 387.438400
    785    784    796     1   109.5600471 388.275200
    785    784    786     1   108.4600466 328.025600
    786    784    796     1   109.5600471 388.275200
    787    799    800     1   109.8000471 387.438400
    787    799    801     1   109.8000471 387.438400
    788    787    799     1   109.5600471 388.275200
    788    787    789     1   108.4600466 328.025600
    789    787    799     1   109.5600471 388.275200
    790    793    794     1   109.8000471 387.438400
    790    793    795     1   109.8000471 387.438400
    791    790    793     1   109.5600471 388.275200
    791    790    792     1   108.4600466 328.025600
    792    790    793     1   109.5600471 388.275200
    793    802    803     1   109.5600471 388.275200
    793    802    804     1   109.5600471 388.275200
    794    793    802     1   109.8000471 387.438400
    794    793    795     1   107.5800459 329.699200
    795    793    802     1   109.8000471 387.438400
    796    808    809     1   109.5600471 388.275200
    796    808    810     1   109.5600471 388.275200
    797    796    808     1   109.8000471 387.438400
    797    796    798     1   107.5800459 329.699200
    798    796    808     1   109.8000471 387.438400
    799    805    806     1   109.5600471 388.275200
    799    805    807     1   109.5600471 388.275200
    800    799    805     1   109.8000471 387.438400
    800    799    801     1   107.5800459 329.699200
    801    799    805     1   109.8000471 387.438400
    803    802    811     1   109.7800468 425.094400
    803    802    804     1   108.4600466 328.025600
    804    802    811     1   109.7800468 425.094400
    806    805   1674     1   109.7800468 425.094400
    806    805    807     1   108.4600466 328.025600
    807    805   1674     1   109.7800468 425.094400
    809    808   1705     1   109.7800468 425.094400
    809    808    810     1   108.4600466 328.025600
    810    808   1705     1   109.7800468 425.094400
    812    813    814     1   109.8800469 414.216000
    812    813    815     1   109.8800469 414.216000
    812    816    817     1   109.8800469 414.216000
    812    816    818     1   109.8800469 414.216000
    812    819    820     1   109.8800469 414.216000
    812    819    821     1   109.8800469 414.216000
    813    825    826     1   109.8000471 387.438400
    813    825    827     1   109.8000471 387.438400
    814    813    825     1   109.5600471 388.275200
    814    813    815     1   108.4600466 328.025600
    815    813    825     1   109.5600471 388.275200
    816    828    829     1   109.8000471 387.438400
    816    828    830     1   109.8000471 387.438400
    817    816    828     1   109.5600471 388.275200
    817    816    818     1   108.4600466 328.025600
    818    816    828     1   109.5600471 388.275200
    819    822    823     1   109.8000471 387.438400
    819    822    824     1   109.8000471 387.438400
    820    819    822     1   109.5600471 388.275200
    820    819    821     1   108.4600466 328.025600
    821    819    822     1   109.5600471 388.275200
    822    831    832     1   109.5600471 388.275200
    822    831    833     1   109.5600471 388.275200
    823    822    831     1   109.8000471 387.438400
    823    822    824     1   107.5800459 329.699200
    824    822    831     1   109.8000471 387.438400
    825    837    838     1   109.5600471 388.275200
    825    837    839     1   109.5600471 388.275200
    826    825    837     1   109.8000471 387.438400
    826    825    827     1   107.5800459 329.699200
    827    825    837     1   109.8000471 387.438400
    828    834    835     1   109.5600471 388.275200
    828    834    836     1   109.5600471 388.275200
    829    828    834     1   109.8000471 387.438400
    829    828    830     1   107.5800459 329.699200
    830    828    834     1   109.8000471 387.438400
    832    831    840     1   109.7800468 425.094400
    832    831    833     1   108.4600466 328.025600
    833    831    840     1   109.7800468 425.094400
    835    834   1736     1   109.7800468 425.094400
    835    834    836     1   108.4600466 328.025600
    836    834   1736     1   109.7800468 425.094400
    838    837   1767     1   109.7800468 425.094400
    838    837    839     1   108.4600466 328.025600
    839    837   1767     1   109.7800468 425.094400
    841    842    843     1   109.8800469 414.216000
    841    842    844     1   109.8800469 414.216000
    841    845    846     1   109.8800469 414.216000
    841    845    847     1   109.8800469 414.216000
    841    848    849     1   109.8800469 414.216000
    841    848    850     1   109.8800469 414.216000
    842    854    855     1   109.8000471 387.438400
    842    854    856     1   109.8000471 387.438400
    843    842    854     1   109.5600471 388.275200
    843    842    844     1   108.4600466 328.025600
    844    842    854     1   109.5600471 388.275200
    845    857    858     1   109.8000471 387.438400
    845    857    859     1   109.8000471 387.438400
    846    845    857     1   109.5600471 388.275200
    846    845    847     1   108.4600466 328.025600
    847    845    857     1   109.5600471 388.275200
    848    851    852     1   109.8000471 387.438400
    848    851    853     1   109.8000471 387.438400
    849    848    851     1   109.5600471 388.275200
    849    848    850     1   108.4600466 328.025600
    850    848    851     1   109.5600471 388.275200
    851    860    861     1   109.5600471 388.275200
    851    860    862     1   109.5600471 388.275200
    852    851    860     1   109.8000471 387.438400
    852    851    853     1   107.5800459 329.699200
    853    851    860     1   109.8000471 387.438400
    854    866    867     1   109.5600471 388.275200
    854    866    868     1   109.5600471 388.275200
    855    854    866     1   109.8000471 387.438400
    855    854    856     1   107.5800459 329.699200
    856    854    866     1   109.8000471 387.438400
    857    863    864     1   109.5600471 388.275200
    857    863    865     1   109.5600471 388.275200
    858    857    863     1   109.8000471 387.438400
    858    857    859     1   107.5800459 329.699200
    859    857    863     1   109.8000471 387.438400
    861    860    869     1   109.7800468 425.094400
    861    860    862     1   108.4600466 328.025600
    862    860    869     1   109.7800468 425.094400
    864    863   1798     1   109.7800468 425.094400
    864    863    865     1   108.4600466 328.025600
    865    863   1798     1   109.7800468 425.094400
    867    866   1829     1   109.7800468 425.094400
    867    866    868     1   108.4600466 328.025600
    868    866   1829     1   109.7800468 425.094400
    870    871    872     1   109.8800469 414.216000
    870    871    873     1   109.8800469 414.216000
    870    874    875     1   109.8800469 414.216000
    870    874    876     1   109.8800469 414.216000
    870    877    878     1   109.8800469 414.216000
    870    877    879     1   109.8800469 414.216000
    871    883    884     1   109.8000471 387.438400
    871    883    885     1   109.8000471 387.438400
    872    871    883     1   109.5600471 388.275200
    872    871    873     1   108.4600466 328.025600
    873    871    883     1   109.5600471 388.275200
    874    886    887     1   109.8000471 387.438400
    874    886    888     1   109.8000471 387.438400
    875    874    886     1   109.5600471 388.275200
    875    874    876     1   108.4600466 328.025600
    876    874    886     1   109.5600471 388.275200
    877    880    881     1   109.8000471 387.438400
    877    880    882     1   109.8000471 387.438400
    878    877    880     1   109.5600471 388.275200
    878    877    879     1   108.4600466 328.025600
    879    877    880     1   109.5600471 388.275200
    880    889    890     1   109.5600471 388.275200
    880    889    891     1   109.5600471 388.275200
    881    880    889     1   109.8000471 387.438400
    881    880    882     1   107.5800459 329.699200
    882    880    889     1   109.8000471 387.438400
    883    895    896     1   109.5600471 388.275200
    883    895    897     1   109.5600471 388.275200
    884    883    895     1   109.8000471 387.438400
    884    883    885     1   107.5800459 329.699200
    885    883    895     1   109.8000471 387.438400
    886    892    893     1   109.5600471 388.275200
    886    892    894     1   109.5600471 388.275200
    887    886    892     1   109.8000471 387.438400
    887    886    888     1   107.5800459 329.699200
    888    886    892     1   109.8000471 387.438400
    890    889    898     1   109.7800468 425.094400
    890    889    891     1   108.4600466 328.025600
    891    889    898     1   109.7800468 425.094400
    893    892   1860     1   109.7800468 425.094400
    893    892    894     1   108.4600466 328.025600
    894    892   1860     1   109.7800468 425.094400
    896    895   1891     1   109.7800468 425.094400
    896    895    897     1   108.4600466 328.025600
    897    895   1891     1   109.7800468 425.094400
    899    900    901     1   109.8800469 414.216000
    899    900    902     1   109.8800469 414.216000
    899    903    904     1   109.8800469 414.216000
    899    903    905     1   109.8800469 414.216000
    899    906    907     1   109.8800469 414.216000
    899    906    908     1   109.8800469 414.216000
    900    912    913     1   109.8000471 387.438400
    900    912    914     1   109.8000471 387.438400
    901    900    912     1   109.5600471 388.275200
    901    900    902     1   108.4600466 328.025600
    902    900    912     1   109.5600471 388.275200
    903    915    916     1   109.8000471 387.438400
    903    915    917     1   109.8000471 387.438400
    904    903    915     1   109.5600471 388.275200
    904    903    905     1   108.4600466 328.025600
    905    903    915     1   109.5600471 388.275200
    906    909    910     1   109.8000471 387.438400
    906    909    911     1   109.8000471 387.438400
    907    906    909     1   109.5600471 388.275200
    907    906    908     1   108.4600466 328.025600
    908    906    909     1   109.5600471 388.275200
    909    918    919     1   109.5600471 388.275200
    909    918    920     1   109.5600471 388.275200
    910    909    918     1   109.8000471 387.438400
    910    909    911     1   107.5800459 329.699200
    911    909    918     1   109.8000471 387.438400
    912    924    925     1   109.5600471 388.275200
    912    924    926     1   109.5600471 388.275200
    913    912    924     1   109.8000471 387.438400
    913    912    914     1   107.5800459 329.699200
    914    912    924     1   109.8000471 387.438400
    915    921    922     1   109.5600471 388.275200
    915    921    923     1   109.5600471 388.275200
    916    915    921     1   109.8000471 387.438400
    916    915    917     1   107.5800459 329.699200
    917    915    921     1   109.8000471 387.438400
    919    918    927     1   109.7800468 425.094400
    919    918    920     1   108.4600466 328.025600
    920    918    927     1   109.7800468 425.094400
    922    921   1922     1   109.7800468 425.094400
    922    921    923     1   108.4600466 328.025600
    923    921   1922     1   109.7800468 425.094400
    925    924   1953     1   109.7800468 425.094400
    925    924    926     1   108.4600466 328.025600
    926    924   1953     1   109.7800468 425.094400
    928    929    930     1   109.8800469 414.216000
    928    929    931     1   109.8800469 414.216000
    928    932    933     1   109.8800469 414.216000
    928    932    934     1   109.8800469 414.216000
    928    935    936     1   109.8800469 414.216000
    928    935    937     1   109.8800469 414.216000
    929    941    942     1   109.8000471 387.438400
    929    941    943     1   109.8000471 387.438400
    930    929    941     1   109.5600471 388.275200
    930    929    931     1   108.4600466 328.025600
    931    929    941     1   109.5600471 388.275200
    932    944    945     1   109.8000471 387.438400
    932    944    946     1   109.8000471 387.438400
    933    932    944     1   109.5600471 388.275200
    933    932    934     1   108.4600466 328.025600
    934    932    944     1   109.5600471 388.275200
    935    938    939     1   109.8000471 387.438400
    935    938    940     1   109.8000471 387.438400
    936    935    938     1   109.5600471 388.275200
    936    935    937     1   108.4600466 328.025600
    937    935    938     1   109.5600471 388.275200
    938    947    948     1   109.5600471 388.275200
    938    947    949     1   109.5600471 388.275200
    939    938    947     1   109.8000471 387.438400
    939    938    940     1   107.5800459 329.699200
    940    938    947     1   109.8000471 387.438400
    941    953    954     1   109.5600471 388.275200
    941    953    955     1   109.5600471 388.275200
    942    941    953     1   109.8000471 387.438400
    942    941    943     1   107.5800459 329.699200
    943    941    953     1   109.8000471 387.438400
    944    950    951     1   109.5600471 388.275200
    944    950    952     1   109.5600471 388.275200
    945    944    950     1   109.8000471 387.438400
    945    944    946     1   107.5800459 329.699200
    946    944    950     1   109.8000471 387.438400
    948    947    956     1   109.7800468 425.094400
    948    947    949     1   108.4600466 328.025600
    949    947    956     1   109.7800468 425.094400
    951    950   1984     1   109.7800468 425.094400
    951    950    952     1   108.4600466 328.025600
    952    950   1984     1   109.7800468 425.094400
    954    953   2015     1   109.7800468 425.094400
    954    953    955     1   108.4600466 328.025600
    955    953   2015     1   109.7800468 425.094400
    957    958    959     1   109.8800469 414.216000
    957    958    960     1   109.8800469 414.216000
    957    961    962     1   109.8800469 414.216000
    957    961    963     1   109.8800469 414.216000
    957    964    965     1   109.8800469 414.216000
    957    964    966     1   109.8800469 414.216000
    958    970    971     1   109.8000471 387.438400
    958    970    972     1   109.8000471 387.438400
    959    958    970     1   109.5600471 388.275200
    959    958    960     1   108.4600466 328.025600
    960    958    970     1   109.5600471 388.275200
    961    973    974     1   109.8000471 387.438400
    961    973    975     1   109.8000471 387.438400
    962    961    973     1   109.5600471 388.275200
    962    961    963     1   108.4600466 328.025600
    963    961    973     1   109.5600471 388.275200
    964    967    968     1   109.8000471 387.438400
    964    967    969     1   109.8000471 387.438400
    965    964    967     1   109.5600471 388.275200
    965    964    966     1   108.4600466 328.025600
    966    964    967     1   109.5600471 388.275200
    967    976    977     1   109.5600471 388.275200
    967    976    978     1   109.5600471 388.275200
    968    967    976     1   109.8000471 387.438400
    968    967    969     1   107.5800459 329.699200
    969    967    976     1   109.8000471 387.438400
    970    982    983     1   109.5600471 388.275200
    970    982    984     1   109.5600471 388.275200
    971    970    982     1   109.8000471 387.438400
    971    970    972     1   107.5800459 329.699200
    972    970    982     1   109.8000471 387.438400
    973    979    980     1   109.5600471 388.275200
    973    979    981     1   109.5600471 388.275200
    974    973    979     1   109.8000471 387.438400
    974    973    975     1   107.5800459 329.699200
    975    973    979     1   109.8000471 387.438400
    977    976    985     1   109.7800468 425.094400
    977    976    978     1   108.4600466 328.025600
    978    976    985     1   109.7800468 425.094400
    980    979   2046     1   109.7800468 425.094400
    980    979    981     1   108.4600466 328.025600
    981    979   2046     1   109.7800468 425.094400
    983    982   2077     1   109.7800468 425.094400
    983    982    984     1   108.4600466 328.025600
    984    982   2077     1   109.7800468 425.094400
    986    987    988     1   109.8800469 414.216000
    986    987    989     1   109.8800469 414.216000
    986    990    991     1   109.8800469 414.216000
    986    990    992     1   109.8800469 414.216000
    986    993    994     1   109.8800469 414.216000
    986    993    995     1   109.8800469 414.216000
    987    999   1000     1   109.8000471 387.438400
    987    999   1001     1   109.8000471 387.438400
    988    987    999     1   109.5600471 388.275200
    988    987    989     1   108.4600466 328.025600
    989    987    999     1   109.5600471 388.275200
    990   1002   1003     1   109.8000471 387.438400
    990   1002   1004     1   109.8000471 387.438400
    991    990   1002     1   109.5600471 388.275200
    991    990    992     1   108.4600466 328.025600
    992    990   1002     1   109.5600471 388.275200
    993    996    997     1   109.8000471 387.438400
    993    996    998     1   109.8000471 387.438400
    994    993    996     1   109.5600471 388.275200
    994    993    995     1   108.4600466 328.025600
    995    993    996     1   109.5600471 388.275200
    996   1005   1006     1   109.5600471 388.275200
    996   1005   1007     1   109.5600471 388.275200
    997    996   1005     1   109.8000471 387.438400
    997    996    998     1   107.5800459 329.699200
    998    996   1005     1   109.8000471 387.438400
    999   1011   1012     1   109.5600471 388.275200
    999   1011   1013     1   109.5600471 388.275200
   1000    999   1011     1   109.8000471 387.438400
   1000    999   1001     1   107.5800459 329.699200
   1001    999   1011     1   109.8000471 387.438400
   1002   1008   1009     1   109.5600471 388.275200
   1002   1008   1010     1   109.5600471 388.275200
   1003   1002   1008     1   109.8000471 387.438400
   1003   1002   1004     1   107.5800459 329.699200
   1004   1002   1008     1   109.8000471 387.438400
   1006   1005   1014     1   109.7800468 425.094400
   1006   1005   1007     1   108.4600466 328.025600
   1007   1005   1014     1   109.7800468 425.094400
   1009   1008   2108     1   109.7800468 425.094400
   1009   1008   1010     1   108.4600466 328.025600
   1010   1008   2108     1   109.7800468 425.094400
   1012   1011   2139     1   109.7800468 425.094400
   1012   1011   1013     1   108.4600466 328.025600
   1013   1011   2139     1   109.7800468 425.094400
   1015   1016   1017     1   109.8800469 414.216000
   1015   1016   1018     1   109.8800469 414.216000
   1015   1019   1020     1   109.8800469 414.216000
   1015   1019   1021     1   109.8800469 414.216000
   1015   1022   1023     1   109.8800469 414.216000
   1015   1022   1024     1   109.8800469 414.216000
   1016   1028   1029     1   109.8000471 387.438400
   1016   1028   1030     1   109.8000471 387.438400
   1017   1016   1028     1   109.5600471 388.275200
   1017   1016   1018     1   108.4600466 328.025600
   1018   1016   1028     1   109.5600471 388.275200
   1019   1031   1032     1   109.8000471 387.438400
   1019   1031   1033     1   109.8000471 387.438400
   1020   1019   1031     1   109.5600471 388.275200
   1020   1019   1021     1   108.4600466 328.025600
   1021   1019   1031     1   109.5600471 388.275200
   1022   1025   1026     1   109.8000471 387.438400
   1022   1025   1027     1   109.8000471 387.438400
   1023   1022   1025     1   109.5600471 388.275200
   1023   1022   1024     1   108.4600466 328.025600
   1024   1022   1025     1   109.5600471 388.275200
   1025   1034   1035     1   109.5600471 388.275200
   1025   1034   1036     1   109.5600471 388.275200
   1026   1025   1034     1   109.8000471 387.438400
   1026   1025   1027     1   107.5800459 329.699200
   1027   1025   1034     1   109.8000471 387.438400
   1028   1040   1041     1   109.5600471 388.275200
   1028   1040   1042     1   109.5600471 388.275200
   1029   1028   1040     1   109.8000471 387.438400
   1029   1028   1030     1   107.5800459 329.699200
   1030   1028   1040     1   109.8000471 387.438400
   1031   1037   1038     1   109.5600471 388.275200
   1031   1037   1039     1   109.5600471 388.275200
   1032   1031   1037     1   109.8000471 387.438400
   1032   1031   1033     1   107.5800459 329.699200
   1033   1031   1037     1   109.8000471 387.438400
   1035   1034   1043     1   109.7800468 425.094400
   1035   1034   1036     1   108.4600466 328.025600
   1036   1034   1043     1   109.7800468 425.094400
   1038   1037   2170     1   109.7800468 425.094400
   1038   1037   1039     1   108.4600466 328.025600
   1039   1037   2170     1   109.7800468 425.094400
   1041   1040   2201     1   109.7800468 425.094400
   1041   1040   1042     1   108.4600466 328.025600
   1042   1040   2201     1   109.7800468 425.094400
   1044   1045   1046     1   109.8800469 414.216000
   1044   1045   1047     1   109.8800469 414.216000
   1044   1048   1049     1   109.8800469 414.216000
   1044   1048   1050     1   109.8800469 414.216000
   1044   1051   1052     1   109.8800469 414.216000
   1044   1051   1053     1   109.8800469 414.216000
   1045   1057   1058     1   109.8000471 387.438400
   1045   1057   1059     1   109.8000471 387.438400
   1046   1045   1057     1   109.5600471 388.275200
   1046   1045   1047     1   108.4600466 328.025600
   1047   1045   1057     1   109.5600471 388.275200
   1048   1060   1061     1   109.8000471 387.438400
   1048   1060   1062     1   109.8000471 387.438400
   1049   1048   1060     1   109.5600471 388.275200
   1049   1048   1050     1   108.4600466 328.025600
   1050   1048   1060     1   109.5600471 388.275200
   1051   1054   1055     1   109.8000471 387.438400
   1051   1054   1056     1   109.8000471 387.438400
   1052   1051   1054     1   109.5600471 388.275200
   1052   1051   1053     1   108.4600466 328.025600
   1053   1051   1054     1   109.5600471 388.275200
   1054   1063   1064     1   109.5600471 388.275200
   1054   1063   1065     1   109.5600471 388.275200
   1055   1054   1063     1   109.8000471 387.438400
   1055   1054   1056     1   107.5800459 329.699200
   1056   1054   1063     1   109.8000471 387.438400
   1057   1069   1070     1   109.5600471 388.275200
   1057   1069   1071     1   109.5600471 388.275200
   1058   1057   1069     1   109.8000471 387.438400
   1058   1057   1059     1   107.5800459 329.699200
   1059   1057   1069     1   109.8000471 387.438400
   1060   1066   1067     1   109.5600471 388.275200
   1060   1066   1068     1   109.5600471 388.275200
   1061   1060   1066     1   109.8000471 387.438400
   1061   1060   1062     1   107.5800459 329.699200
   1062   1060   1066     1   109.8000471 387.438400
   1064   1063   1072     1   109.7800468 425.094400
   1064   1063   1065     1   108.4600466 328.025600
   1065   1063   1072     1   109.7800468 425.094400
   1067   1066   2232     1   109.7800468 425.094400
   1067   1066   1068     1   108.4600466 328.025600
   1068   1066   2232     1   109.7800468 425.094400
   1070   1069   2263     1   109.7800468 425.094400
   1070   1069   1071     1   108.4600466 328.025600
   1071   1069   2263     1   109.7800468 425.094400
   1073   1074   1075     1   109.8800469 414.216000
   1073   1074   1076     1   109.8800469 414.216000
   1073   1077   1078     1   109.8800469 414.216000
   1073   1077   1079     1   109.8800469 414.216000
   1073   1080   1081     1   109.8800469 414.216000
   1073   1080   1082     1   109.8800469 414.216000
   1074   1086   1087     1   109.8000471 387.438400
   1074   1086   1088     1   109.8000471 387.438400
   1075   1074   1086     1   109.5600471 388.275200
   1075   1074   1076     1   108.4600466 328.025600
   1076   1074   1086     1   109.5600471 388.275200
   1077   1089   1090     1   109.8000471 387.438400
   1077   1089   1091     1   109.8000471 387.438400
   1078   1077   1089     1   109.5600471 388.275200
   1078   1077   1079     1   108.4600466 328.025600
   1079   1077   1089     1   109.5600471 388.275200
   1080   1083   1084     1   109.8000471 387.438400
   1080   1083   1085     1   109.8000471 387.438400
   1081   1080   1083     1   109.5600471 388.275200
   1081   1080   1082     1   108.4600466 328.025600
   1082   1080   1083     1   109.5600471 388.275200
   1083   1092   1093     1   109.5600471 388.275200
   1083   1092   1094     1   109.5600471 388.275200
   1084   1083   1092     1   109.8000471 387.438400
   1084   1083   1085     1   107.5800459 329.699200
   1085   1083   1092     1   109.8000471 387.438400
   1086   1098   1099     1   109.5600471 388.275200
   1086   1098   1100     1   109.5600471 388.275200
   1087   1086   1098     1   109.8000471 387.438400
   1087   1086   1088     1   107.5800459 329.699200
   1088   1086   1098     1   109.8000471 387.438400
   1089   1095   1096     1   109.5600471 388.275200
   1089   1095   1097     1   109.5600471 388.275200
   1090   1089   1095     1   109.8000471 387.438400
   1090   1089   1091     1   107.5800459 329.699200
   1091   1089   1095     1   109.8000471 387.438400
   1093   1092   1101     1   109.7800468 425.094400
   1093   1092   1094     1   108.4600466 328.025600
   1094   1092   1101     1   109.7800468 425.094400
   1096   1095   2294     1   109.7800468 425.094400
   1096   1095   1097     1   108.4600466 328.025600
   1097   1095   2294     1   109.7800468 425.094400
   1099   1098   2325     1   109.7800468 425.094400
   1099   1098   1100     1   108.4600466 328.025600
   1100   1098   2325     1   109.7800468 425.094400
   1102   1103   1104     1   109.8800469 414.216000
   1102   1103   1105     1   109.8800469 414.216000
   1102   1106   1107     1   109.8800469 414.216000
   1102   1106   1108     1   109.8800469 414.216000
   1102   1109   1110     1   109.8800469 414.216000
   1102   1109   1111     1   109.8800469 414.216000
   1103   1115   1116     1   109.8000471 387.438400
   1103   1115   1117     1   109.8000471 387.438400
   1104   1103   1115     1   109.5600471 388.275200
   1104   1103   1105     1   108.4600466 328.025600
   1105   1103   1115     1   109.5600471 388.275200
   1106   1118   1119     1   109.8000471 387.438400
   1106   1118   1120     1   109.8000471 387.438400
   1107   1106   1118     1   109.5600471 388.275200
   1107   1106   1108     1   108.4600466 328.025600
   1108   1106   1118     1   109.5600471 388.275200
   1109   1112   1113     1   109.8000471 387.438400
   1109   1112   1114     1   109.8000471 387.438400
   1110   1109   1112     1   109.5600471 388.275200
   1110   1109   1111     1   108.4600466 328.025600
   1111   1109   1112     1   109.5600471 388.275200
   1112   1121   1122     1   109.5600471 388.275200
   1112   1121   1123     1   109.5600471 388.275200
   1113   1112   1121     1   109.8000471 387.438400
   1113   1112   1114     1   107.5800459 329.699200
   1114   1112   1121     1   109.8000471 387.438400
   1115   1127   1128     1   109.5600471 388.275200
   1115   1127   1129     1   109.5600471 388.275200
   1116   1115   1127     1   109.8000471 387.438400
   1116   1115   1117     1   107.5800459 329.699200
   1117   1115   1127     1   109.8000471 387.438400
   1118   1124   1125     1   109.5600471 388.275200
   1118   1124   1126     1   109.5600471 388.275200
   1119   1118   1124     1   109.8000471 387.438400
   1119   1118   1120     1   107.5800459 329.699200
   1120   1118   1124     1   109.8000471 387.438400
   1122   1121   1130     1   109.7800468 425.094400
   1122   1121   1123     1   108.4600466 328.025600
   1123   1121   1130     1   109.7800468 425.094400
   1125   1124   2356     1   109.7800468 425.094400
   1125   1124   1126     1   108.4600466 328.025600
   1126   1124   2356     1   109.7800468 425.094400
   1128   1127   2387     1   109.7800468 425.094400
   1128   1127   1129     1   108.4600466 328.025600
   1129   1127   2387     1   109.7800468 425.094400
   1131   1132   1133     1   109.8800469 414.216000
   1131   1132   1134     1   109.8800469 414.216000
   1131   1135   1136     1   109.8800469 414.216000
   1131   1135   1137     1   109.8800469 414.216000
   1131   1138   1139     1   109.8800469 414.216000
   1131   1138   1140     1   109.8800469 414.216000
   1132   1144   1145     1   109.8000471 387.438400
   1132   1144   1146     1   109.8000471 387.438400
   1133   1132   1144     1   109.5600471 388.275200
   1133   1132   1134     1   108.4600466 328.025600
   1134   1132   1144     1   109.5600471 388.275200
   1135   1147   1148     1   109.8000471 387.438400
   1135   1147   1149     1   109.8000471 387.438400
   1136   1135   1147     1   109.5600471 388.275200
   1136   1135   1137     1   108.4600466 328.025600
   1137   1135   1147     1   109.5600471 388.275200
   1138   1141   1142     1   109.8000471 387.438400
   1138   1141   1143     1   109.8000471 387.438400
   1139   1138   1141     1   109.5600471 388.275200
   1139   1138   1140     1   108.4600466 328.025600
   1140   1138   1141     1   109.5600471 388.275200
   1141   1150   1151     1   109.5600471 388.275200
   1141   1150   1152     1   109.5600471 388.275200
   1142   1141   1150     1   109.8000471 387.438400
   1142   1141   1143     1   107.5800459 329.699200
   1143   1141   1150     1   109.8000471 387.438400
   1144   1156   1157     1   109.5600471 388.275200
   1144   1156   1158     1   109.5600471 388.275200
   1145   1144   1156     1   109.8000471 387.438400
   1145   1144   1146     1   107.5800459 329.699200
   1146   1144   1156     1   109.8000471 387.438400
   1147   1153   1154     1   109.5600471 388.275200
   1147   1153   1155     1   109.5600471 388.275200
   1148   1147   1153     1   109.8000471 387.438400
   1148   1147   1149     1   107.5800459 329.699200
   1149   1147   1153     1   109.8000471 387.438400
   1151   1150   1159     1   109.7800468 425.094400
   1151   1150   1152     1   108.4600466 328.025600
   1152   1150   1159     1   109.7800468 425.094400
   1154   1153   2418     1   109.7800468 425.094400
   1154   1153   1155     1   108.4600466 328.025600
   1155   1153   2418     1   109.7800468 425.094400
   1157   1156   2449     1   109.7800468 425.094400
   1157   1156   1158     1   108.4600466 328.025600
   1158   1156   2449     1   109.7800468 425.094400
   1160   1161   1162     1   109.8800469 414.216000
   1160   1161   1163     1   109.8800469 414.216000
   1160   1164   1165     1   109.8800469 414.216000
   1160   1164   1166     1   109.8800469 414.216000
   1160   1167   1168     1   109.8800469 414.216000
   1160   1167   1169     1   109.8800469 414.216000
   1161   1173   1174     1   109.8000471 387.438400
   1161   1173   1175     1   109.8000471 387.438400
   1162   1161   1173     1   109.5600471 388.275200
   1162   1161   1163     1   108.4600466 328.025600
   1163   1161   1173     1   109.5600471 388.275200
   1164   1176   1177     1   109.8000471 387.438400
   1164   1176   1178     1   109.8000471 387.438400
   1165   1164   1176     1   109.5600471 388.275200
   1165   1164   1166     1   108.4600466 328.025600
   1166   1164   1176     1   109.5600471 388.275200
   1167   1170   1171     1   109.8000471 387.438400
   1167   1170   1172     1   109.8000471 387.438400
   1168   1167   1170     1   109.5600471 388.275200
   1168   1167   1169     1   108.4600466 328.025600
   1169   1167   1170     1   109.5600471 388.275200
   1170   1179   1180     1   109.5600471 388.275200
   1170   1179   1181     1   109.5600471 388.275200
   1171   1170   1179     1   109.8000471 387.438400
   1171   1170   1172     1   107.5800459 329.699200
   1172   1170   1179     1   109.8000471 387.438400
   1173   1185   1186     1   109.5600471 388.275200
   1173   1185   1187     1   109.5600471 388.275200
   1174   1173   1185     1   109.8000471 387.438400
   1174   1173   1175     1   107.5800459 329.699200
   1175   1173   1185     1   109.8000471 387.438400
   1176   1182   1183     1   109.5600471 388.275200
   1176   1182   1184     1   109.5600471 388.275200
   1177   1176   1182     1   109.8000471 387.438400
   1177   1176   1178     1   107.5800459 329.699200
   1178   1176   1182     1   109.8000471 387.438400
   1180   1179   1188     1   109.7800468 425.094400
   1180   1179   1181     1   108.4600466 328.025600
   1181   1179   1188     1   109.7800468 425.094400
   1183   1182   2480     1   109.7800468 425.094400
   1183   1182   1184     1   108.4600466 328.025600
   1184   1182   2480     1   109.7800468 425.094400
   1186   1185   2511     1   109.7800468 425.094400
   1186   1185   1187     1   108.4600466 328.025600
   1187   1185   2511     1   109.7800468 425.094400
   1189   1190   1191     1   109.8800469 414.216000
   1189   1190   1192     1   109.8800469 414.216000
   1189   1193   1194     1   109.8800469 414.216000
   1189   1193   1195     1   109.8800469 414.216000
   1189   1196   1197     1   109.8800469 414.216000
   1189   1196   1198     1   109.8800469 414.216000
   1190   1202   1203     1   109.8000471 387.438400
   1190   1202   1204     1   109.8000471 387.438400
   1191   1190   1202     1   109.5600471 388.275200
   1191   1190   1192     1   108.4600466 328.025600
   1192   1190   1202     1   109.5600471 388.275200
   1193   1205   1206     1   109.8000471 387.438400
   1193   1205   1207     1   109.8000471 387.438400
   1194   1193   1205     1   109.5600471 388.275200
   1194   1193   1195     1   108.4600466 328.025600
   1195   1193   1205     1   109.5600471 388.275200
   1196   1199   1200     1   109.8000471 387.438400
   1196   1199   1201     1   109.8000471 387.438400
   1197   1196   1199     1   109.5600471 388.275200
   1197   1196   1198     1   108.4600466 328.025600
   1198   1196   1199     1   109.5600471 388.275200
   1199   1208   1209     1   109.5600471 388.275200
   1199   1208   1210     1   109.5600471 388.275200
   1200   1199   1208     1   109.8000471 387.438400
   1200   1199   1201     1   107.5800459 329.699200
   1201   1199   1208     1   109.8000471 387.438400
   1202   1214   1215     1   109.5600471 388.275200
   1202   1214   1216     1   109.5600471 388.275200
   1203   1202   1214     1   109.8000471 387.438400
   1203   1202   1204     1   107.5800459 329.699200
   1204   1202   1214     1   109.8000471 387.438400
   1205   1211   1212     1   109.5600471 388.275200
   1205   1211   1213     1   109.5600471 388.275200
   1206   1205   1211     1   109.8000471 387.438400
   1206   1205   1207     1   107.5800459 329.699200
   1207   1205   1211     1   109.8000471 387.438400
   1209   1208   1217     1   109.7800468 425.094400
   1209   1208   1210     1   108.4600466 328.025600
   1210   1208   1217     1   109.7800468 425.094400
   1212   1211   2542     1   109.7800468 425.094400
   1212   1211   1213     1   108.4600466 328.025600
   1213   1211   2542     1   109.7800468 425.094400
   1215   1214   2573     1   109.7800468 425.094400
   1215   1214   1216     1   108.4600466 328.025600
   1216   1214   2573     1   109.7800468 425.094400
   1218   1219   1220     1   109.8800469 414.216000
   1218   1219   1221     1   109.8800469 414.216000
   1218   1222   1223     1   109.8800469 414.216000
   1218   1222   1224     1   109.8800469 414.216000
   1218   1225   1226     1   109.8800469 414.216000
   1218   1225   1227     1   109.8800469 414.216000
   1219   1231   1232     1   109.8000471 387.438400
   1219   1231   1233     1   109.8000471 387.438400
   1220   1219   1231     1   109.5600471 388.275200
   1220   1219   1221     1   108.4600466 328.025600
   1221   1219   1231     1   109.5600471 388.275200
   1222   1234   1235     1   109.8000471 387.438400
   1222   1234   1236     1   109.8000471 387.438400
   1223   1222   1234     1   109.5600471 388.275200
   1223   1222   1224     1   108.4600466 328.025600
   1224   1222   1234     1   109.5600471 388.275200
   1225   1228   1229     1   109.8000471 387.438400
   1225   1228   1230     1   109.8000471 387.438400
   1226   1225   1228     1   109.5600471 388.275200
   1226   1225   1227     1   108.4600466 328.025600
   1227   1225   1228     1   109.5600471 388.275200
   1228   1237   1238     1   109.5600471 388.275200
   1228   1237   1239     1   109.5600471 388.275200
   1229   1228   1237     1   109.8000471 387.438400
   1229   1228   1230     1   107.5800459 329.699200
   1230   1228   1237     1   109.8000471 387.438400
   1231   1243   1244     1   109.5600471 388.275200
   1231   1243   1245     1   109.5600471 388.275200
   1232   1231   1243     1   109.8000471 387.438400
   1232   1231   1233     1   107.5800459 329.699200
   1233   1231   1243     1   109.8000471 387.438400
   1234   1240   1241     1   109.5600471 388.275200
   1234   1240   1242     1   109.5600471 388.275200
   1235   1234   1240     1   109.8000471 387.438400
   1235   1234   1236     1   107.5800459 329.699200
   1236   1234   1240     1   109.8000471 387.438400
   1238   1237   1246     1   109.7800468 425.094400
   1238   1237   1239     1   108.4600466 328.025600
   1239   1237   1246     1   109.7800468 425.094400
   1241   1240   2604     1   109.7800468 425.094400
   1241   1240   1242     1   108.4600466 328.025600
   1242   1240   2604     1   109.7800468 425.094400
   1244   1243   2635     1   109.7800468 425.094400
   1244   1243   1245     1   108.4600466 328.025600
   1245   1243   2635     1   109.7800468 425.094400
   1247   1248   1249     1   109.8800469 414.216000
   1247   1248   1250     1   109.8800469 414.216000
   1247   1251   1252     1   109.8800469 414.216000
   1247   1251   1253     1   109.8800469 414.216000
   1247   1254   1255     1   109.8800469 414.216000
   1247   1254   1256     1   109.8800469 414.216000
   1248   1260   1261     1   109.8000471 387.438400
   1248   1260   1262     1   109.8000471 387.438400
   1249   1248   1260     1   109.5600471 388.275200
   1249   1248   1250     1   108.4600466 328.025600
   1250   1248   1260     1   109.5600471 388.275200
   1251   1263   1264     1   109.8000471 387.438400
   1251   1263   1265     1   109.8000471 387.438400
   1252   1251   1263     1   109.5600471 388.275200
   1252   1251   1253     1   108.4600466 328.025600
   1253   1251   1263     1   109.5600471 388.275200
   1254   1257   1258     1   109.8000471 387.438400
   1254   1257   1259     1   109.8000471 387.438400
   1255   1254   1257     1   109.5600471 388.275200
   1255   1254   1256     1   108.4600466 328.025600
   1256   1254   1257     1   109.5600471 388.275200
   1257   1266   1267     1   109.5600471 388.275200
   1257   1266   1268     1   109.5600471 388.275200
   1258   1257   1266     1   109.8000471 387.438400
   1258   1257   1259     1   107.5800459 329.699200
   1259   1257   1266     1   109.8000471 387.438400
   1260   1272   1273     1   109.5600471 388.275200
   1260   1272   1274     1   109.5600471 388.275200
   1261   1260   1272     1   109.8000471 387.438400
   1261   1260   1262     1   107.5800459 329.699200
   1262   1260   1272     1   109.8000471 387.438400
   1263   1269   1270     1   109.5600471 388.275200
   1263   1269   1271     1   109.5600471 388.275200
   1264   1263   1269     1   109.8000471 387.438400
   1264   1263   1265     1   107.5800459 329.699200
   1265   1263   1269     1   109.8000471 387.438400
   1267   1266   1275     1   109.7800468 425.094400
   1267   1266   1268     1   108.4600466 328.025600
   1268   1266   1275     1   109.7800468 425.094400
   1270   1269   2666     1   109.7800468 425.094400
   1270   1269   1271     1   108.4600466 328.025600
   1271   1269   2666     1   109.7800468 425.094400
   1273   1272   2697     1   109.7800468 425.094400
   1273   1272   1274     1   108.4600466 328.025600
   1274   1272   2697     1   109.7800468 425.094400
   1276   1277   1278     1   109.8800469 414.216000
   1276   1277   1279     1   109.8800469 414.216000
   1276   1280   1281     1   109.8800469 414.216000
   1276   1280   1282     1   109.8800469 414.216000
   1276   1283   1284     1   109.8800469 414.216000
   1276   1283   1285     1   109.8800469 414.216000
   1277   1289   1290     1   109.8000471 387.438400
   1277   1289   1291     1   109.8000471 387.438400
   1278   1277   1289     1   109.5600471 388.275200
   1278   1277   1279     1   108.4600466 328.025600
   1279   1277   1289     1   109.5600471 388.275200
   1280   1292   1293     1   109.8000471 387.438400
   1280   1292   1294     1   109.8000471 387.438400
   1281   1280   1292     1   109.5600471 388.275200
   1281   1280   1282     1   108.4600466 328.025600
   1282   1280   1292     1   109.5600471 388.275200
   1283   1286   1287     1   109.8000471 387.438400
   1283   1286   1288     1   109.8000471 387.438400
   1284   1283   1286     1   109.5600471 388.275200
   1284   1283   1285     1   108.4600466 328.025600
   1285   1283   1286     1   109.5600471 388.275200
   1286   1295   1296     1   109.5600471 388.275200
   1286   1295   1297     1   109.5600471 388.275200
   1287   1286   1295     1   109.8000471 387.438400
   1287   1286   1288     1   107.5800459 329.699200
   1288   1286   1295     1   109.8000471 387.438400
   1289   1301   1302     1   109.5600471 388.275200
   1289   1301   1303     1   109.5600471 388.275200
   1290   1289   1301     1   109.8000471 387.438400
   1290   1289   1291     1   107.5800459 329.699200
   1291   1289   1301     1   109.8000471 387.438400
   1292   1298   1299     1   109.5600471 388.275200
   1292   1298   1300     1   109.5600471 388.275200
   1293   1292   1298     1   109.8000471 387.438400
   1293   1292   1294     1   107.5800459 329.699200
   1294   1292   1298     1   109.8000471 387.438400
   1296   1295   1304     1   109.7800468 425.094400
   1296   1295   1297     1   108.4600466 328.025600
   1297   1295   1304     1   109.7800468 425.094400
   1299   1298   2728     1   109.7800468 425.094400
   1299   1298   1300     1   108.4600466 328.025600
   1300   1298   2728     1   109.7800468 425.094400
   1302   1301   2759     1   109.7800468 425.094400
   1302   1301   1303     1   108.4600466 328.025600
   1303   1301   2759     1   109.7800468 425.094400
   1305   1306   1307     1   109.8800469 414.216000
   1305   1306   1308     1   109.8800469 414.216000
   1305   1309   1310     1   109.8800469 414.216000
   1305   1309   1311     1   109.8800469 414.216000
   1305   1312   1313     1   109.8800469 414.216000
   1305   1312   1314     1   109.8800469 414.216000
   1306   1318   1319     1   109.8000471 387.438400
   1306   1318   1320     1   109.8000471 387.438400
   1307   1306   1318     1   109.5600471 388.275200
   1307   1306   1308     1   108.4600466 328.025600
   1308   1306   1318     1   109.5600471 388.275200
   1309   1321   1322     1   109.8000471 387.438400
   1309   1321   1323     1   109.8000471 387.438400
   1310   1309   1321     1   109.5600471 388.275200
   1310   1309   1311     1   108.4600466 328.025600
   1311   1309   1321     1   109.5600471 388.275200
   1312   1315   1316     1   109.8000471 387.438400
   1312   1315   1317     1   109.8000471 387.438400
   1313   1312   1315     1   109.5600471 388.275200
   1313   1312   1314     1   108.4600466 328.025600
   1314   1312   1315     1   109.5600471 388.275200
   1315   1324   1325     1   109.5600471 388.275200
   1315   1324   1326     1   109.5600471 388.275200
   1316   1315   1324     1   109.8000471 387.438400
   1316   1315   1317     1   107.5800459 329.699200
   1317   1315   1324     1   109.8000471 387.438400
   1318   1330   1331     1   109.5600471 388.275200
   1318   1330   1332     1   109.5600471 388.275200
   1319   1318   1330     1   109.8000471 387.438400
   1319   1318   1320     1   107.5800459 329.699200
   1320   1318   1330     1   109.8000471 387.438400
   1321   1327   1328     1   109.5600471 388.275200
   1321   1327   1329     1   109.5600471 388.275200
   1322   1321   1327     1   109.8000471 387.438400
   1322   1321   1323     1   107.5800459 329.699200
   1323   1321   1327     1   109.8000471 387.438400
   1325   1324   1333     1   109.7800468 425.094400
   1325   1324   1326     1   108.4600466 328.025600
   1326   1324   1333     1   109.7800468 425.094400
   1328   1327   2790     1   109.7800468 425.094400
   1328   1327   1329     1   108.4600466 328.025600
   1329   1327   2790     1   109.7800468 425.094400
   1331   1330   2821     1   109.7800468 425.094400
   1331   1330   1332     1   108.4600466 328.025600
   1332   1330   2821     1   109.7800468 425.094400
   1334   1337   1338     1   109.8000471 387.438400
   1334   1337   1339     1   109.8000471 387.438400
   1335   1334   1337     1   109.5600471 388.275200
   1335   1334   1364     1   109.7800468 425.094400
   1335   1334   1336     1   108.4600466 328.025600
   1336   1334   1337     1   109.5600471 388.275200
   1336   1334   1364     1   109.7800468 425.094400
   1337   1340   1341     1   109.5600471 388.275200
   1337   1340   1342     1   109.5600471 388.275200
   1338   1337   1340     1   109.8000471 387.438400
   1338   1337   1339     1   107.5800459 329.699200
   1339   1337   1340     1   109.8000471 387.438400
   1341   1340   1343     1   109.8800469 414.216000
   1341   1340   1342     1   108.4600466 328.025600
   1342   1340   1343     1   109.8800469 414.216000
   1343   1344   1345     1   109.8800469 414.216000
   1343   1344   1346     1   109.8800469 414.216000
   1343   1354   1355     1   109.8800469 414.216000
   1343   1354   1356     1   109.8800469 414.216000
   1344   1347   1348     1   109.8000471 387.438400
   1344   1347   1349     1   109.8000471 387.438400
   1345   1344   1347     1   109.5600471 388.275200
   1345   1344   1346     1   108.4600466 328.025600
   1346   1344   1347     1   109.5600471 388.275200
   1348   1347   1350     1   108.7700466 392.459200
   1348   1347   1349     1   107.5800459 329.699200
   1349   1347   1350     1   108.7700466 392.459200
   1350   1352   1353     1   106.5500460 417.563200
   1354   1357   1358     1   109.8000471 387.438400
   1354   1357   1359     1   109.8000471 387.438400
   1355   1354   1357     1   109.5600471 388.275200
   1355   1354   1356     1   108.4600466 328.025600
   1356   1354   1357     1   109.5600471 388.275200
   1358   1357   1360     1   108.7700466 392.459200
   1358   1357   1359     1   107.5800459 329.699200
   1359   1357   1360     1   108.7700466 392.459200
   1360   1362   1363     1   106.5500460 417.563200
   1365   1368   1369     1   109.8000471 387.438400
   1365   1368   1370     1   109.8000471 387.438400
   1366   1365   1368     1   109.5600471 388.275200
   1366   1365   1395     1   109.7800468 425.094400
   1366   1365   1367     1   108.4600466 328.025600
   1367   1365   1368     1   109.5600471 388.275200
   1367   1365   1395     1   109.7800468 425.094400
   1368   1371   1372     1   109.5600471 388.275200
   1368   1371   1373     1   109.5600471 388.275200
   1369   1368   1371     1   109.8000471 387.438400
   1369   1368   1370     1   107.5800459 329.699200
   1370   1368   1371     1   109.8000471 387.438400
   1372   1371   1374     1   109.8800469 414.216000
   1372   1371   1373     1   108.4600466 328.025600
   1373   1371   1374     1   109.8800469 414.216000
   1374   1375   1376     1   109.8800469 414.216000
   1374   1375   1377     1   109.8800469 414.216000
   1374   1385   1386     1   109.8800469 414.216000
   1374   1385   1387     1   109.8800469 414.216000
   1375   1378   1379     1   109.8000471 387.438400
   1375   1378   1380     1   109.8000471 387.438400
   1376   1375   1378     1   109.5600471 388.275200
   1376   1375   1377     1   108.4600466 328.025600
   1377   1375   1378     1   109.5600471 388.275200
   1379   1378   1381     1   108.7700466 392.459200
   1379   1378   1380     1   107.5800459 329.699200
   1380   1378   1381     1   108.7700466 392.459200
   1381   1383   1384     1   106.5500460 417.563200
   1385   1388   1389     1   109.8000471 387.438400
   1385   1388   1390     1   109.8000471 387.438400
   1386   1385   1388     1   109.5600471 388.275200
   1386   1385   1387     1   108.4600466 328.025600
   1387   1385   1388     1   109.5600471 388.275200
   1389   1388   1391     1   108.7700466 392.459200
   1389   1388   1390     1   107.5800459 329.699200
   1390   1388   1391     1   108.7700466 392.459200
   1391   1393   1394     1   106.5500460 417.563200
   1396   1399   1400     1   109.8000471 387.438400
   1396   1399   1401     1   109.8000471 387.438400
   1397   1396   1399     1   109.5600471 388.275200
   1397   1396   1426     1   109.7800468 425.094400
   1397   1396   1398     1   108.4600466 328.025600
   1398   1396   1399     1   109.5600471 388.275200
   1398   1396   1426     1   109.7800468 425.094400
   1399   1402   1403     1   109.5600471 388.275200
   1399   1402   1404     1   109.5600471 388.275200
   1400   1399   1402     1   109.8000471 387.438400
   1400   1399   1401     1   107.5800459 329.699200
   1401   1399   1402     1   109.8000471 387.438400
   1403   1402   1405     1   109.8800469 414.216000
   1403   1402   1404     1   108.4600466 328.025600
   1404   1402   1405     1   109.8800469 414.216000
   1405   1406   1407     1   109.8800469 414.216000
   1405   1406   1408     1   109.8800469 414.216000
   1405   1416   1417     1   109.8800469 414.216000
   1405   1416   1418     1   109.8800469 414.216000
   1406   1409   1410     1   109.8000471 387.438400
   1406   1409   1411     1   109.8000471 387.438400
   1407   1406   1409     1   109.5600471 388.275200
   1407   1406   1408     1   108.4600466 328.025600
   1408   1406   1409     1   109.5600471 388.275200
   1410   1409   1412     1   108.7700466 392.459200
   1410   1409   1411     1   107.5800459 329.699200
   1411   1409   1412     1   108.7700466 392.459200
   1412   1414   1415     1   106.5500460 417.563200
   1416   1419   1420     1   109.8000471 387.438400
   1416   1419   1421     1   109.8000471 387.438400
   1417   1416   1419     1   109.5600471 388.275200
   1417   1416   1418     1   108.4600466 328.025600
   1418   1416   1419     1   109.5600471 388.275200
   1420   1419   1422     1   108.7700466 392.459200
   1420   1419   1421     1   107.5800459 329.699200
   1421   1419   1422     1   108.7700466 392.459200
   1422   1424   1425     1   106.5500460 417.563200
   1427   1430   1431     1   109.8000471 387.438400
   1427   1430   1432     1   109.8000471 387.438400
   1428   1427   1430     1   109.5600471 388.275200
   1428   1427   1457     1   109.7800468 425.094400
   1428   1427   1429     1   108.4600466 328.025600
   1429   1427   1430     1   109.5600471 388.275200
   1429   1427   1457     1   109.7800468 425.094400
   1430   1433   1434     1   109.5600471 388.275200
   1430   1433   1435     1   109.5600471 388.275200
   1431   1430   1433     1   109.8000471 387.438400
   1431   1430   1432     1   107.5800459 329.699200
   1432   1430   1433     1   109.8000471 387.438400
   1434   1433   1436     1   109.8800469 414.216000
   1434   1433   1435     1   108.4600466 328.025600
   1435   1433   1436     1   109.8800469 414.216000
   1436   1437   1438     1   109.8800469 414.216000
   1436   1437   1439     1   109.8800469 414.216000
   1436   1447   1448     1   109.8800469 414.216000
   1436   1447   1449     1   109.8800469 414.216000
   1437   1440   1441     1   109.8000471 387.438400
   1437   1440   1442     1   109.8000471 387.438400
   1438   1437   1440     1   109.5600471 388.275200
   1438   1437   1439     1   108.4600466 328.025600
   1439   1437   1440     1   109.5600471 388.275200
   1441   1440   1443     1   108.7700466 392.459200
   1441   1440   1442     1   107.5800459 329.699200
   1442   1440   1443     1   108.7700466 392.459200
   1443   1445   1446     1   106.5500460 417.563200
   1447   1450   1451     1   109.8000471 387.438400
   1447   1450   1452     1   109.8000471 387.438400
   1448   1447   1450     1   109.5600471 388.275200
   1448   1447   1449     1   108.4600466 328.025600
   1449   1447   1450     1   109.5600471 388.275200
   1451   1450   1453     1   108.7700466 392.459200
   1451   1450   1452     1   107.5800459 329.699200
   1452   1450   1453     1   108.7700466 392.459200
   1453   1455   1456     1   106.5500460 417.563200
   1458   1461   1462     1   109.8000471 387.438400
   1458   1461   1463     1   109.8000471 387.438400
   1459   1458   1461     1   109.5600471 388.275200
   1459   1458   1488     1   109.7800468 425.094400
   1459   1458   1460     1   108.4600466 328.025600
   1460   1458   1461     1   109.5600471 388.275200
   1460   1458   1488     1   109.7800468 425.094400
   1461   1464   1465     1   109.5600471 388.275200
   1461   1464   1466     1   109.5600471 388.275200
   1462   1461   1464     1   109.8000471 387.438400
   1462   1461   1463     1   107.5800459 329.699200
   1463   1461   1464     1   109.8000471 387.438400
   1465   1464   1467     1   109.8800469 414.216000
   1465   1464   1466     1   108.4600466 328.025600
   1466   1464   1467     1   109.8800469 414.216000
   1467   1468   1469     1   109.8800469 414.216000
   1467   1468   1470     1   109.8800469 414.216000
   1467   1478   1479     1   109.8800469 414.216000
   1467   1478   1480     1   109.8800469 414.216000
   1468   1471   1472     1   109.8000471 387.438400
   1468   1471   1473     1   109.8000471 387.438400
   1469   1468   1471     1   109.5600471 388.275200
   1469   1468   1470     1   108.4600466 328.025600
   1470   1468   1471     1   109.5600471 388.275200
   1472   1471   1474     1   108.7700466 392.459200
   1472   1471   1473     1   107.5800459 329.699200
   1473   1471   1474     1   108.7700466 392.459200
   1474   1476   1477     1   106.5500460 417.563200
   1478   1481   1482     1   109.8000471 387.438400
   1478   1481   1483     1   109.8000471 387.438400
   1479   1478   1481     1   109.5600471 388.275200
   1479   1478   1480     1   108.4600466 328.025600
   1480   1478   1481     1   109.5600471 388.275200
   1482   1481   1484     1   108.7700466 392.459200
   1482   1481   1483     1   107.5800459 329.699200
   1483   1481   1484     1   108.7700466 392.459200
   1484   1486   1487     1   106.5500460 417.563200
   1489   1492   1493     1   109.8000471 387.438400
   1489   1492   1494     1   109.8000471 387.438400
   1490   1489   1492     1   109.5600471 388.275200
   1490   1489   1519     1   109.7800468 425.094400
   1490   1489   1491     1   108.4600466 328.025600
   1491   1489   1492     1   109.5600471 388.275200
   1491   1489   1519     1   109.7800468 425.094400
   1492   1495   1496     1   109.5600471 388.275200
   1492   1495   1497     1   109.5600471 388.275200
   1493   1492   1495     1   109.8000471 387.438400
   1493   1492   1494     1   107.5800459 329.699200
   1494   1492   1495     1   109.8000471 387.438400
   1496   1495   1498     1   109.8800469 414.216000
   1496   1495   1497     1   108.4600466 328.025600
   1497   1495   1498     1   109.8800469 414.216000
   1498   1499   1500     1   109.8800469 414.216000
   1498   1499   1501     1   109.8800469 414.216000
   1498   1509   1510     1   109.8800469 414.216000
   1498   1509   1511     1   109.8800469 414.216000
   1499   1502   1503     1   109.8000471 387.438400
   1499   1502   1504     1   109.8000471 387.438400
   1500   1499   1502     1   109.5600471 388.275200
   1500   1499   1501     1   108.4600466 328.025600
   1501   1499   1502     1   109.5600471 388.275200
   1503   1502   1505     1   108.7700466 392.459200
   1503   1502   1504     1   107.5800459 329.699200
   1504   1502   1505     1   108.7700466 392.459200
   1505   1507   1508     1   106.5500460 417.563200
   1509   1512   1513     1   109.8000471 387.438400
   1509   1512   1514     1   109.8000471 387.438400
   1510   1509   1512     1   109.5600471 388.275200
   1510   1509   1511     1   108.4600466 328.025600
   1511   1509   1512     1   109.5600471 388.275200
   1513   1512   1515     1   108.7700466 392.459200
   1513   1512   1514     1   107.5800459 329.699200
   1514   1512   1515     1   108.7700466 392.459200
   1515   1517   1518     1   106.5500460 417.563200
   1520   1523   1524     1   109.8000471 387.438400
   1520   1523   1525     1   109.8000471 387.438400
   1521   1520   1523     1   109.5600471 388.275200
   1521   1520   1550     1   109.7800468 425.094400
   1521   1520   1522     1   108.4600466 328.025600
   1522   1520   1523     1   109.5600471 388.275200
   1522   1520   1550     1   109.7800468 425.094400
   1523   1526   1527     1   109.5600471 388.275200
   1523   1526   1528     1   109.5600471 388.275200
   1524   1523   1526     1   109.8000471 387.438400
   1524   1523   1525     1   107.5800459 329.699200
   1525   1523   1526     1   109.8000471 387.438400
   1527   1526   1529     1   109.8800469 414.216000
   1527   1526   1528     1   108.4600466 328.025600
   1528   1526   1529     1   109.8800469 414.216000
   1529   1530   1531     1   109.8800469 414.216000
   1529   1530   1532     1   109.8800469 414.216000
   1529   1540   1541     1   109.8800469 414.216000
   1529   1540   1542     1   109.8800469 414.216000
   1530   1533   1534     1   109.8000471 387.438400
   1530   1533   1535     1   109.8000471 387.438400
   1531   1530   1533     1   109.5600471 388.275200
   1531   1530   1532     1   108.4600466 328.025600
   1532   1530   1533     1   109.5600471 388.275200
   1534   1533   1536     1   108.7700466 392.459200
   1534   1533   1535     1   107.5800459 329.699200
   1535   1533   1536     1   108.7700466 392.459200
   1536   1538   1539     1   106.5500460 417.563200
   1540   1543   1544     1   109.8000471 387.438400
   1540   1543   1545     1   109.8000471 387.438400
   1541   1540   1543     1   109.5600471 388.275200
   1541   1540   1542     1   108.4600466 328.025600
   1542   1540   1543     1   109.5600471 388.275200
   1544   1543   1546     1   108.7700466 392.459200
   1544   1543   1545     1   107.5800459 329.699200
   1545   1543   1546     1   108.7700466 392.459200
   1546   1548   1549     1   106.5500460 417.563200
   1551   1554   1555     1   109.8000471 387.438400
   1551   1554   1556     1   109.8000471 387.438400
   1552   1551   1554     1   109.5600471 388.275200
   1552   1551   1581     1   109.7800468 425.094400
   1552   1551   1553     1   108.4600466 328.025600
   1553   1551   1554     1   109.5600471 388.275200
   1553   1551   1581     1   109.7800468 425.094400
   1554   1557   1558     1   109.5600471 388.275200
   1554   1557   1559     1   109.5600471 388.275200
   1555   1554   1557     1   109.8000471 387.438400
   1555   1554   1556     1   107.5800459 329.699200
   1556   1554   1557     1   109.8000471 387.438400
   1558   1557   1560     1   109.8800469 414.216000
   1558   1557   1559     1   108.4600466 328.025600
   1559   1557   1560     1   109.8800469 414.216000
   1560   1561   1562     1   109.8800469 414.216000
   1560   1561   1563     1   109.8800469 414.216000
   1560   1571   1572     1   109.8800469 414.216000
   1560   1571   1573     1   109.8800469 414.216000
   1561   1564   1565     1   109.8000471 387.438400
   1561   1564   1566     1   109.8000471 387.438400
   1562   1561   1564     1   109.5600471 388.275200
   1562   1561   1563     1   108.4600466 328.025600
   1563   1561   1564     1   109.5600471 388.275200
   1565   1564   1567     1   108.7700466 392.459200
   1565   1564   1566     1   107.5800459 329.699200
   1566   1564   1567     1   108.7700466 392.459200
   1567   1569   1570     1   106.5500460 417.563200
   1571   1574   1575     1   109.8000471 387.438400
   1571   1574   1576     1   109.8000471 387.438400
   1572   1571   1574     1   109.5600471 388.275200
   1572   1571   1573     1   108.4600466 328.025600
   1573   1571   1574     1   109.5600471 388.275200
   1575   1574   1577     1   108.7700466 392.459200
   1575   1574   1576     1   107.5800459 329.699200
   1576   1574   1577     1   108.7700466 392.459200
   1577   1579   1580     1   106.5500460 417.563200
   1582   1585   1586     1   109.8000471 387.438400
   1582   1585   1587     1   109.8000471 387.438400
   1583   1582   1585     1   109.5600471 388.275200
   1583   1582   1612     1   109.7800468 425.094400
   1583   1582   1584     1   108.4600466 328.025600
   1584   1582   1585     1   109.5600471 388.275200
   1584   1582   1612     1   109.7800468 425.094400
   1585   1588   1589     1   109.5600471 388.275200
   1585   1588   1590     1   109.5600471 388.275200
   1586   1585   1588     1   109.8000471 387.438400
   1586   1585   1587     1   107.5800459 329.699200
   1587   1585   1588     1   109.8000471 387.438400
   1589   1588   1591     1   109.8800469 414.216000
   1589   1588   1590     1   108.4600466 328.025600
   1590   1588   1591     1   109.8800469 414.216000
   1591   1592   1593     1   109.8800469 414.216000
   1591   1592   1594     1   109.8800469 414.216000
   1591   1602   1603     1   109.8800469 414.216000
   1591   1602   1604     1   109.8800469 414.216000
   1592   1595   1596     1   109.8000471 387.438400
   1592   1595   1597     1   109.8000471 387.438400
   1593   1592   1595     1   109.5600471 388.275200
   1593   1592   1594     1   108.4600466 328.025600
   1594   1592   1595     1   109.5600471 388.275200
   1596   1595   1598     1   108.7700466 392.459200
   1596   1595   1597     1   107.5800459 329.699200
   1597   1595   1598     1   108.7700466 392.459200
   1598   1600   1601     1   106.5500460 417.563200
   1602   1605   1606     1   109.8000471 387.438400
   1602   1605   1607     1   109.8000471 387.438400
   1603   1602   1605     1   109.5600471 388.275200
   1603   1602   1604     1   108.4600466 328.025600
   1604   1602   1605     1   109.5600471 388.275200
   1606   1605   1608     1   108.7700466 392.459200
   1606   1605   1607     1   107.5800459 329.699200
   1607   1605   1608     1   108.7700466 392.459200
   1608   1610   1611     1   106.5500460 417.563200
   1613   1616   1617     1   109.8000471 387.438400
   1613   1616   1618     1   109.8000471 387.438400
   1614   1613   1616     1   109.5600471 388.275200
   1614   1613   1643     1   109.7800468 425.094400
   1614   1613   1615     1   108.4600466 328.025600
   1615   1613   1616     1   109.5600471 388.275200
   1615   1613   1643     1   109.7800468 425.094400
   1616   1619   1620     1   109.5600471 388.275200
   1616   1619   1621     1   109.5600471 388.275200
   1617   1616   1619     1   109.8000471 387.438400
   1617   1616   1618     1   107.5800459 329.699200
   1618   1616   1619     1   109.8000471 387.438400
   1620   1619   1622     1   109.8800469 414.216000
   1620   1619   1621     1   108.4600466 328.025600
   1621   1619   1622     1   109.8800469 414.216000
   1622   1623   1624     1   109.8800469 414.216000
   1622   1623   1625     1   109.8800469 414.216000
   1622   1633   1634     1   109.8800469 414.216000
   1622   1633   1635     1   109.8800469 414.216000
   1623   1626   1627     1   109.8000471 387.438400
   1623   1626   1628     1   109.8000471 387.438400
   1624   1623   1626     1   109.5600471 388.275200
   1624   1623   1625     1   108.4600466 328.025600
   1625   1623   1626     1   109.5600471 388.275200
   1627   1626   1629     1   108.7700466 392.459200
   1627   1626   1628     1   107.5800459 329.699200
   1628   1626   1629     1   108.7700466 392.459200
   1629   1631   1632     1   106.5500460 417.563200
   1633   1636   1637     1   109.8000471 387.438400
   1633   1636   1638     1   109.8000471 387.438400
   1634   1633   1636     1   109.5600471 388.275200
   1634   1633   1635     1   108.4600466 328.025600
   1635   1633   1636     1   109.5600471 388.275200
   1637   1636   1639     1   108.7700466 392.459200
   1637   1636   1638     1   107.5800459 329.699200
   1638   1636   1639     1   108.7700466 392.459200
   1639   1641   1642     1   106.5500460 417.563200
   1644   1647   1648     1   109.8000471 387.438400
   1644   1647   1649     1   109.8000471 387.438400
   1645   1644   1647     1   109.5600471 388.275200
   1645   1644   1674     1   109.7800468 425.094400
   1645   1644   1646     1   108.4600466 328.025600
   1646   1644   1647     1   109.5600471 388.275200
   1646   1644   1674     1   109.7800468 425.094400
   1647   1650   1651     1   109.5600471 388.275200
   1647   1650   1652     1   109.5600471 388.275200
   1648   1647   1650     1   109.8000471 387.438400
   1648   1647   1649     1   107.5800459 329.699200
   1649   1647   1650     1   109.8000471 387.438400
   1651   1650   1653     1   109.8800469 414.216000
   1651   1650   1652     1   108.4600466 328.025600
   1652   1650   1653     1   109.8800469 414.216000
   1653   1654   1655     1   109.8800469 414.216000
   1653   1654   1656     1   109.8800469 414.216000
   1653   1664   1665     1   109.8800469 414.216000
   1653   1664   1666     1   109.8800469 414.216000
   1654   1657   1658     1   109.8000471 387.438400
   1654   1657   1659     1   109.8000471 387.438400
   1655   1654   1657     1   109.5600471 388.275200
   1655   1654   1656     1   108.4600466 328.025600
   1656   1654   1657     1   109.5600471 388.275200
   1658   1657   1660     1   108.7700466 392.459200
   1658   1657   1659     1   107.5800459 329.699200
   1659   1657   1660     1   108.7700466 392.459200
   1660   1662   1663     1   106.5500460 417.563200
   1664   1667   1668     1   109.8000471 387.438400
   1664   1667   1669     1   109.8000471 387.438400
   1665   1664   1667     1   109.5600471 388.275200
   1665   1664   1666     1   108.4600466 328.025600
   1666   1664   1667     1   109.5600471 388.275200
   1668   1667   1670     1   108.7700466 392.459200
   1668   1667   1669     1   107.5800459 329.699200
   1669   1667   1670     1   108.7700466 392.459200
   1670   1672   1673     1   106.5500460 417.563200
   1675   1678   1679     1   109.8000471 387.438400
   1675   1678   1680     1   109.8000471 387.438400
   1676   1675   1678     1   109.5600471 388.275200
   1676   1675   1705     1   109.7800468 425.094400
   1676   1675   1677     1   108.4600466 328.025600
   1677   1675   1678     1   109.5600471 388.275200
   1677   1675   1705     1   109.7800468 425.094400
   1678   1681   1682     1   109.5600471 388.275200
   1678   1681   1683     1   109.5600471 388.275200
   1679   1678   1681     1   109.8000471 387.438400
   1679   1678   1680     1   107.5800459 329.699200
   1680   1678   1681     1   109.8000471 387.438400
   1682   1681   1684     1   109.8800469 414.216000
   1682   1681   1683     1   108.4600466 328.025600
   1683   1681   1684     1   109.8800469 414.216000
   1684   1685   1686     1   109.8800469 414.216000
   1684   1685   1687     1   109.8800469 414.216000
   1684   1695   1696     1   109.8800469 414.216000
   1684   1695   1697     1   109.8800469 414.216000
   1685   1688   1689     1   109.8000471 387.438400
   1685   1688   1690     1   109.8000471 387.438400
   1686   1685   1688     1   109.5600471 388.275200
   1686   1685   1687     1   108.4600466 328.025600
   1687   1685   1688     1   109.5600471 388.275200
   1689   1688   1691     1   108.7700466 392.459200
   1689   1688   1690     1   107.5800459 329.699200
   1690   1688   1691     1   108.7700466 392.459200
   1691   1693   1694     1   106.5500460 417.563200
   1695   1698   1699     1   109.8000471 387.438400
   1695   1698   1700     1   109.8000471 387.438400
   1696   1695   1698     1   109.5600471 388.275200
   1696   1695   1697     1   108.4600466 328.025600
   1697   1695   1698     1   109.5600471 388.275200
   1699   1698   1701     1   108.7700466 392.459200
   1699   1698   1700     1   107.5800459 329.699200
   1700   1698   1701     1   108.7700466 392.459200
   1701   1703   1704     1   106.5500460 417.563200
   1706   1709   1710     1   109.8000471 387.438400
   1706   1709   1711     1   109.8000471 387.438400
   1707   1706   1709     1   109.5600471 388.275200
   1707   1706   1736     1   109.7800468 425.094400
   1707   1706   1708     1   108.4600466 328.025600
   1708   1706   1709     1   109.5600471 388.275200
   1708   1706   1736     1   109.7800468 425.094400
   1709   1712   1713     1   109.5600471 388.275200
   1709   1712   1714     1   109.5600471 388.275200
   1710   1709   1712     1   109.8000471 387.438400
   1710   1709   1711     1   107.5800459 329.699200
   1711   1709   1712     1   109.8000471 387.438400
   1713   1712   1715     1   109.8800469 414.216000
   1713   1712   1714     1   108.4600466 328.025600
   1714   1712   1715     1   109.8800469 414.216000
   1715   1716   1717     1   109.8800469 414.216000
   1715   1716   1718     1   109.8800469 414.216000
   1715   1726   1727     1   109.8800469 414.216000
   1715   1726   1728     1   109.8800469 414.216000
   1716   1719   1720     1   109.8000471 387.438400
   1716   1719   1721     1   109.8000471 387.438400
   1717   1716   1719     1   109.5600471 388.275200
   1717   1716   1718     1   108.4600466 328.025600
   1718   1716   1719     1   109.5600471 388.275200
   1720   1719   1722     1   108.7700466 392.459200
   1720   1719   1721     1   107.5800459 329.699200
   1721   1719   1722     1   108.7700466 392.459200
   1722   1724   1725     1   106.5500460 417.563200
   1726   1729   1730     1   109.8000471 387.438400
   1726   1729   1731     1   109.8000471 387.438400
   1727   1726   1729     1   109.5600471 388.275200
   1727   1726   1728     1   108.4600466 328.025600
   1728   1726   1729     1   109.5600471 388.275200
   1730   1729   1732     1   108.7700466 392.459200
   1730   1729   1731     1   107.5800459 329.699200
   1731   1729   1732     1   108.7700466 392.459200
   1732   1734   1735     1   106.5500460 417.563200
   1737   1740   1741     1   109.8000471 387.438400
   1737   1740   1742     1   109.8000471 387.438400
   1738   1737   1740     1   109.5600471 388.275200
   1738   1737   1767     1   109.7800468 425.094400
   1738   1737   1739     1   108.4600466 328.025600
   1739   1737   1740     1   109.5600471 388.275200
   1739   1737   1767     1   109.7800468 425.094400
   1740   1743   1744     1   109.5600471 388.275200
   1740   1743   1745     1   109.5600471 388.275200
   1741   1740   1743     1   109.8000471 387.438400
   1741   1740   1742     1   107.5800459 329.699200
   1742   1740   1743     1   109.8000471 387.438400
   1744   1743   1746     1   109.8800469 414.216000
   1744   1743   1745     1   108.4600466 328.025600
   1745   1743   1746     1   109.8800469 414.216000
   1746   1747   1748     1   109.8800469 414.216000
   1746   1747   1749     1   109.8800469 414.216000
   1746   1757   1758     1   109.8800469 414.216000
   1746   1757   1759     1   109.8800469 414.216000
   1747   1750   1751     1   109.8000471 387.438400
   1747   1750   1752     1   109.8000471 387.438400
   1748   1747   1750     1   109.5600471 388.275200
   1748   1747   1749     1   108.4600466 328.025600
   1749   1747   1750     1   109.5600471 388.275200
   1751   1750   1753     1   108.7700466 392.459200
   1751   1750   1752     1   107.5800459 329.699200
   1752   1750   1753     1   108.7700466 392.459200
   1753   1755   1756     1   106.5500460 417.563200
   1757   1760   1761     1   109.8000471 387.438400
   1757   1760   1762     1   109.8000471 387.438400
   1758   1757   1760     1   109.5600471 388.275200
   1758   1757   1759     1   108.4600466 328.025600
   1759   1757   1760     1   109.5600471 388.275200
   1761   1760   1763     1   108.7700466 392.459200
   1761   1760   1762     1   107.5800459 329.699200
   1762   1760   1763     1   108.7700466 392.459200
   1763   1765   1766     1   106.5500460 417.563200
   1768   1771   1772     1   109.8000471 387.438400
   1768   1771   1773     1   109.8000471 387.438400
   1769   1768   1771     1   109.5600471 388.275200
   1769   1768   1798     1   109.7800468 425.094400
   1769   1768   1770     1   108.4600466 328.025600
   1770   1768   1771     1   109.5600471 388.275200
   1770   1768   1798     1   109.7800468 425.094400
   1771   1774   1775     1   109.5600471 388.275200
   1771   1774   1776     1   109.5600471 388.275200
   1772   1771   1774     1   109.8000471 387.438400
   1772   1771   1773     1   107.5800459 329.699200
   1773   1771   1774     1   109.8000471 387.438400
   1775   1774   1777     1   109.8800469 414.216000
   1775   1774   1776     1   108.4600466 328.025600
   1776   1774   1777     1   109.8800469 414.216000
   1777   1778   1779     1   109.8800469 414.216000
   1777   1778   1780     1   109.8800469 414.216000
   1777   1788   1789     1   109.8800469 414.216000
   1777   1788   1790     1   109.8800469 414.216000
   1778   1781   1782     1   109.8000471 387.438400
   1778   1781   1783     1   109.8000471 387.438400
   1779   1778   1781     1   109.5600471 388.275200
   1779   1778   1780     1   108.4600466 328.025600
   1780   1778   1781     1   109.5600471 388.275200
   1782   1781   1784     1   108.7700466 392.459200
   1782   1781   1783     1   107.5800459 329.699200
   1783   1781   1784     1   108.7700466 392.459200
   1784   1786   1787     1   106.5500460 417.563200
   1788   1791   1792     1   109.8000471 387.438400
   1788   1791   1793     1   109.8000471 387.438400
   1789   1788   1791     1   109.5600471 388.275200
   1789   1788   1790     1   108.4600466 328.025600
   1790   1788   1791     1   109.5600471 388.275200
   1792   1791   1794     1   108.7700466 392.459200
   1792   1791   1793     1   107.5800459 329.699200
   1793   1791   1794     1   108.7700466 392.459200
   1794   1796   1797     1   106.5500460 417.563200
   1799   1802   1803     1   109.8000471 387.438400
   1799   1802   1804     1   109.8000471 387.438400
   1800   1799   1802     1   109.5600471 388.275200
   1800   1799   1829     1   109.7800468 425.094400
   1800   1799   1801     1   108.4600466 328.025600
   1801   1799   1802     1   109.5600471 388.275200
   1801   1799   1829     1   109.7800468 425.094400
   1802   1805   1806     1   109.5600471 388.275200
   1802   1805   1807     1   109.5600471 388.275200
   1803   1802   1805     1   109.8000471 387.438400
   1803   1802   1804     1   107.5800459 329.699200
   1804   1802   1805     1   109.8000471 387.438400
   1806   1805   1808     1   109.8800469 414.216000
   1806   1805   1807     1   108.4600466 328.025600
   1807   1805   1808     1   109.8800469 414.216000
   1808   1809   1810     1   109.8800469 414.216000
   1808   1809   1811     1   109.8800469 414.216000
   1808   1819   1820     1   109.8800469 414.216000
   1808   1819   1821     1   109.8800469 414.216000
   1809   1812   1813     1   109.8000471 387.438400
   1809   1812   1814     1   109.8000471 387.438400
   1810   1809   1812     1   109.5600471 388.275200
   1810   1809   1811     1   108.4600466 328.025600
   1811   1809   1812     1   109.5600471 388.275200
   1813   1812   1815     1   108.7700466 392.459200
   1813   1812   1814     1   107.5800459 329.699200
   1814   1812   1815     1   108.7700466 392.459200
   1815   1817   1818     1   106.5500460 417.563200
   1819   1822   1823     1   109.8000471 387.438400
   1819   1822   1824     1   109.8000471 387.438400
   1820   1819   1822     1   109.5600471 388.275200
   1820   1819   1821     1   108.4600466 328.025600
   1821   1819   1822     1   109.5600471 388.275200
   1823   1822   1825     1   108.7700466 392.459200
   1823   1822   1824     1   107.5800459 329.699200
   1824   1822   1825     1   108.7700466 392.459200
   1825   1827   1828     1   106.5500460 417.563200
   1830   1833   1834     1   109.8000471 387.438400
   1830   1833   1835     1   109.8000471 387.438400
   1831   1830   1833     1   109.5600471 388.275200
   1831   1830   1860     1   109.7800468 425.094400
   1831   1830   1832     1   108.4600466 328.025600
   1832   1830   1833     1   109.5600471 388.275200
   1832   1830   1860     1   109.7800468 425.094400
   1833   1836   1837     1   109.5600471 388.275200
   1833   1836   1838     1   109.5600471 388.275200
   1834   1833   1836     1   109.8000471 387.438400
   1834   1833   1835     1   107.5800459 329.699200
   1835   1833   1836     1   109.8000471 387.438400
   1837   1836   1839     1   109.8800469 414.216000
   1837   1836   1838     1   108.4600466 328.025600
   1838   1836   1839     1   109.8800469 414.216000
   1839   1840   1841     1   109.8800469 414.216000
   1839   1840   1842     1   109.8800469 414.216000
   1839   1850   1851     1   109.8800469 414.216000
   1839   1850   1852     1   109.8800469 414.216000
   1840   1843   1844     1   109.8000471 387.438400
   1840   1843   1845     1   109.8000471 387.438400
   1841   1840   1843     1   109.5600471 388.275200
   1841   1840   1842     1   108.4600466 328.025600
   1842   1840   1843     1   109.5600471 388.275200
   1844   1843   1846     1   108.7700466 392.459200
   1844   1843   1845     1   107.5800459 329.699200
   1845   1843   1846     1   108.7700466 392.459200
   1846   1848   1849     1   106.5500460 417.563200
   1850   1853   1854     1   109.8000471 387.438400
   1850   1853   1855     1   109.8000471 387.438400
   1851   1850   1853     1   109.5600471 388.275200
   1851   1850   1852     1   108.4600466 328.025600
   1852   1850   1853     1   109.5600471 388.275200
   1854   1853   1856     1   108.7700466 392.459200
   1854   1853   1855     1   107.5800459 329.699200
   1855   1853   1856     1   108.7700466 392.459200
   1856   1858   1859     1   106.5500460 417.563200
   1861   1864   1865     1   109.8000471 387.438400
   1861   1864   1866     1   109.8000471 387.438400
   1862   1861   1864     1   109.5600471 388.275200
   1862   1861   1891     1   109.7800468 425.094400
   1862   1861   1863     1   108.4600466 328.025600
   1863   1861   1864     1   109.5600471 388.275200
   1863   1861   1891     1   109.7800468 425.094400
   1864   1867   1868     1   109.5600471 388.275200
   1864   1867   1869     1   109.5600471 388.275200
   1865   1864   1867     1   109.8000471 387.438400
   1865   1864   1866     1   107.5800459 329.699200
   1866   1864   1867     1   109.8000471 387.438400
   1868   1867   1870     1   109.8800469 414.216000
   1868   1867   1869     1   108.4600466 328.025600
   1869   1867   1870     1   109.8800469 414.216000
   1870   1871   1872     1   109.8800469 414.216000
   1870   1871   1873     1   109.8800469 414.216000
   1870   1881   1882     1   109.8800469 414.216000
   1870   1881   1883     1   109.8800469 414.216000
   1871   1874   1875     1   109.8000471 387.438400
   1871   1874   1876     1   109.8000471 387.438400
   1872   1871   1874     1   109.5600471 388.275200
   1872   1871   1873     1   108.4600466 328.025600
   1873   1871   1874     1   109.5600471 388.275200
   1875   1874   1877     1   108.7700466 392.459200
   1875   1874   1876     1   107.5800459 329.699200
   1876   1874   1877     1   108.7700466 392.459200
   1877   1879   1880     1   106.5500460 417.563200
   1881   1884   1885     1   109.8000471 387.438400
   1881   1884   1886     1   109.8000471 387.438400
   1882   1881   1884     1   109.5600471 388.275200
   1882   1881   1883     1   108.4600466 328.025600
   1883   1881   1884     1   109.5600471 388.275200
   1885   1884   1887     1   108.7700466 392.459200
   1885   1884   1886     1   107.5800459 329.699200
   1886   1884   1887     1   108.7700466 392.459200
   1887   1889   1890     1   106.5500460 417.563200
   1892   1895   1896     1   109.8000471 387.438400
   1892   1895   1897     1   109.8000471 387.438400
   1893   1892   1895     1   109.5600471 388.275200
   1893   1892   1922     1   109.7800468 425.094400
   1893   1892   1894     1   108.4600466 328.025600
   1894   1892   1895     1   109.5600471 388.275200
   1894   1892   1922     1   109.7800468 425.094400
   1895   1898   1899     1   109.5600471 388.275200
   1895   1898   1900     1   109.5600471 388.275200
   1896   1895   1898     1   109.8000471 387.438400
   1896   1895   1897     1   107.5800459 329.699200
   1897   1895   1898     1   109.8000471 387.438400
   1899   1898   1901     1   109.8800469 414.216000
   1899   1898   1900     1   108.4600466 328.025600
   1900   1898   1901     1   109.8800469 414.216000
   1901   1902   1903     1   109.8800469 414.216000
   1901   1902   1904     1   109.8800469 414.216000
   1901   1912   1913     1   109.8800469 414.216000
   1901   1912   1914     1   109.8800469 414.216000
   1902   1905   1906     1   109.8000471 387.438400
   1902   1905   1907     1   109.8000471 387.438400
   1903   1902   1905     1   109.5600471 388.275200
   1903   1902   1904     1   108.4600466 328.025600
   1904   1902   1905     1   109.5600471 388.275200
   1906   1905   1908     1   108.7700466 392.459200
   1906   1905   1907     1   107.5800459 329.699200
   1907   1905   1908     1   108.7700466 392.459200
   1908   1910   1911     1   106.5500460 417.563200
   1912   1915   1916     1   109.8000471 387.438400
   1912   1915   1917     1   109.8000471 387.438400
   1913   1912   1915     1   109.5600471 388.275200
   1913   1912   1914     1   108.4600466 328.025600
   1914   1912   1915     1   109.5600471 388.275200
   1916   1915   1918     1   108.7700466 392.459200
   1916   1915   1917     1   107.5800459 329.699200
   1917   1915   1918     1   108.7700466 392.459200
   1918   1920   1921     1   106.5500460 417.563200
   1923   1926   1927     1   109.8000471 387.438400
   1923   1926   1928     1   109.8000471 387.438400
   1924   1923   1926     1   109.5600471 388.275200
   1924   1923   1953     1   109.7800468 425.094400
   1924   1923   1925     1   108.4600466 328.025600
   1925   1923   1926     1   109.5600471 388.275200
   1925   1923   1953     1   109.7800468 425.094400
   1926   1929   1930     1   109.5600471 388.275200
   1926   1929   1931     1   109.5600471 388.275200
   1927   1926   1929     1   109.8000471 387.438400
   1927   1926   1928     1   107.5800459 329.699200
   1928   1926   1929     1   109.8000471 387.438400
   1930   1929   1932     1   109.8800469 414.216000
   1930   1929   1931     1   108.4600466 328.025600
   1931   1929   1932     1   109.8800469 414.216000
   1932   1933   1934     1   109.8800469 414.216000
   1932   1933   1935     1   109.8800469 414.216000
   1932   1943   1944     1   109.8800469 414.216000
   1932   1943   1945     1   109.8800469 414.216000
   1933   1936   1937     1   109.8000471 387.438400
   1933   1936   1938     1   109.8000471 387.438400
   1934   1933   1936     1   109.5600471 388.275200
   1934   1933   1935     1   108.4600466 328.025600
   1935   1933   1936     1   109.5600471 388.275200
   1937   1936   1939     1   108.7700466 392.459200
   1937   1936   1938     1   107.5800459 329.699200
   1938   1936   1939     1   108.7700466 392.459200
   1939   1941   1942     1   106.5500460 417.563200
   1943   1946   1947     1   109.8000471 387.438400
   1943   1946   1948     1   109.8000471 387.438400
   1944   1943   1946     1   109.5600471 388.275200
   1944   1943   1945     1   108.4600466 328.025600
   1945   1943   1946     1   109.5600471 388.275200
   1947   1946   1949     1   108.7700466 392.459200
   1947   1946   1948     1   107.5800459 329.699200
   1948   1946   1949     1   108.7700466 392.459200
   1949   1951   1952     1   106.5500460 417.563200
   1954   1957   1958     1   109.8000471 387.438400
   1954   1957   1959     1   109.8000471 387.438400
   1955   1954   1957     1   109.5600471 388.275200
   1955   1954   1984     1   109.7800468 425.094400
   1955   1954   1956     1   108.4600466 328.025600
   1956   1954   1957     1   109.5600471 388.275200
   1956   1954   1984     1   109.7800468 425.094400
   1957   1960   1961     1   109.5600471 388.275200
   1957   1960   1962     1   109.5600471 388.275200
   1958   1957   1960     1   109.8000471 387.438400
   1958   1957   1959     1   107.5800459 329.699200
   1959   1957   1960     1   109.8000471 387.438400
   1961   1960   1963     1   109.8800469 414.216000
   1961   1960   1962     1   108.4600466 328.025600
   1962   1960   1963     1   109.8800469 414.216000
   1963   1964   1965     1   109.8800469 414.216000
   1963   1964   1966     1   109.8800469 414.216000
   1963   1974   1975     1   109.8800469 414.216000
   1963   1974   1976     1   109.8800469 414.216000
   1964   1967   1968     1   109.8000471 387.438400
   1964   1967   1969     1   109.8000471 387.438400
   1965   1964   1967     1   109.5600471 388.275200
   1965   1964   1966     1   108.4600466 328.025600
   1966   1964   1967     1   109.5600471 388.275200
   1968   1967   1970     1   108.7700466 392.459200
   1968   1967   1969     1   107.5800459 329.699200
   1969   1967   1970     1   108.7700466 392.459200
   1970   1972   1973     1   106.5500460 417.563200
   1974   1977   1978     1   109.8000471 387.438400
   1974   1977   1979     1   109.8000471 387.438400
   1975   1974   1977     1   109.5600471 388.275200
   1975   1974   1976     1   108.4600466 328.025600
   1976   1974   1977     1   109.5600471 388.275200
   1978   1977   1980     1   108.7700466 392.459200
   1978   1977   1979     1   107.5800459 329.699200
   1979   1977   1980     1   108.7700466 392.459200
   1980   1982   1983     1   106.5500460 417.563200
   1985   1988   1989     1   109.8000471 387.438400
   1985   1988   1990     1   109.8000471 387.438400
   1986   1985   1988     1   109.5600471 388.275200
   1986   1985   2015     1   109.7800468 425.094400
   1986   1985   1987     1   108.4600466 328.025600
   1987   1985   1988     1   109.5600471 388.275200
   1987   1985   2015     1   109.7800468 425.094400
   1988   1991   1992     1   109.5600471 388.275200
   1988   1991   1993     1   109.5600471 388.275200
   1989   1988   1991     1   109.8000471 387.438400
   1989   1988   1990     1   107.5800459 329.699200
   1990   1988   1991     1   109.8000471 387.438400
   1992   1991   1994     1   109.8800469 414.216000
   1992   1991   1993     1   108.4600466 328.025600
   1993   1991   1994     1   109.8800469 414.216000
   1994   1995   1996     1   109.8800469 414.216000
   1994   1995   1997     1   109.8800469 414.216000
   1994   2005   2006     1   109.8800469 414.216000
   1994   2005   2007     1   109.8800469 414.216000
   1995   1998   1999     1   109.8000471 387.438400
   1995   1998   2000     1   109.8000471 387.438400
   1996   1995   1998     1   109.5600471 388.275200
   1996   1995   1997     1   108.4600466 328.025600
   1997   1995   1998     1   109.5600471 388.275200
   1999   1998   2001     1   108.7700466 392.459200
   1999   1998   2000     1   107.5800459 329.699200
   2000   1998   2001     1   108.7700466 392.459200
   2001   2003   2004     1   106.5500460 417.563200
   2005   2008   2009     1   109.8000471 387.438400
   2005   2008   2010     1   109.8000471 387.438400
   2006   2005   2008     1   109.5600471 388.275200
   2006   2005   2007     1   108.4600466 328.025600
   2007   2005   2008     1   109.5600471 388.275200
   2009   2008   2011     1   108.7700466 392.459200
   2009   2008   2010     1   107.5800459 329.699200
   2010   2008   2011     1   108.7700466 392.459200
   2011   2013   2014     1   106.5500460 417.563200
   2016   2019   2020     1   109.8000471 387.438400
   2016   2019   2021     1   109.8000471 387.438400
   2017   2016   2019     1   109.5600471 388.275200
   2017   2016   2046     1   109.7800468 425.094400
   2017   2016   2018     1   108.4600466 328.025600
   2018   2016   2019     1   109.5600471 388.275200
   2018   2016   2046     1   109.7800468 425.094400
   2019   2022   2023     1   109.5600471 388.275200
   2019   2022   2024     1   109.5600471 388.275200
   2020   2019   2022     1   109.8000471 387.438400
   2020   2019   2021     1   107.5800459 329.699200
   2021   2019   2022     1   109.8000471 387.438400
   2023   2022   2025     1   109.8800469 414.216000
   2023   2022   2024     1   108.4600466 328.025600
   2024   2022   2025     1   109.8800469 414.216000
   2025   2026   2027     1   109.8800469 414.216000
   2025   2026   2028     1   109.8800469 414.216000
   2025   2036   2037     1   109.8800469 414.216000
   2025   2036   2038     1   109.8800469 414.216000
   2026   2029   2030     1   109.8000471 387.438400
   2026   2029   2031     1   109.8000471 387.438400
   2027   2026   2029     1   109.5600471 388.275200
   2027   2026   2028     1   108.4600466 328.025600
   2028   2026   2029     1   109.5600471 388.275200
   2030   2029   2032     1   108.7700466 392.459200
   2030   2029   2031     1   107.5800459 329.699200
   2031   2029   2032     1   108.7700466 392.459200
   2032   2034   2035     1   106.5500460 417.563200
   2036   2039   2040     1   109.8000471 387.438400
   2036   2039   2041     1   109.8000471 387.438400
   2037   2036   2039     1   109.5600471 388.275200
   2037   2036   2038     1   108.4600466 328.025600
   2038   2036   2039     1   109.5600471 388.275200
   2040   2039   2042     1   108.7700466 392.459200
   2040   2039   2041     1   107.5800459 329.699200
   2041   2039   2042     1   108.7700466 392.459200
   2042   2044   2045     1   106.5500460 417.563200
   2047   2050   2051     1   109.8000471 387.438400
   2047   2050   2052     1   109.8000471 387.438400
   2048   2047   2050     1   109.5600471 388.275200
   2048   2047   2077     1   109.7800468 425.094400
   2048   2047   2049     1   108.4600466 328.025600
   2049   2047   2050     1   109.5600471 388.275200
   2049   2047   2077     1   109.7800468 425.094400
   2050   2053   2054     1   109.5600471 388.275200
   2050   2053   2055     1   109.5600471 388.275200
   2051   2050   2053     1   109.8000471 387.438400
   2051   2050   2052     1   107.5800459 329.699200
   2052   2050   2053     1   109.8000471 387.438400
   2054   2053   2056     1   109.8800469 414.216000
   2054   2053   2055     1   108.4600466 328.025600
   2055   2053   2056     1   109.8800469 414.216000
   2056   2057   2058     1   109.8800469 414.216000
   2056   2057   2059     1   109.8800469 414.216000
   2056   2067   2068     1   109.8800469 414.216000
   2056   2067   2069     1   109.8800469 414.216000
   2057   2060   2061     1   109.8000471 387.438400
   2057   2060   2062     1   109.8000471 387.438400
   2058   2057   2060     1   109.5600471 388.275200
   2058   2057   2059     1   108.4600466 328.025600
   2059   2057   2060     1   109.5600471 388.275200
   2061   2060   2063     1   108.7700466 392.459200
   2061   2060   2062     1   107.5800459 329.699200
   2062   2060   2063     1   108.7700466 392.459200
   2063   2065   2066     1   106.5500460 417.563200
   2067   2070   2071     1   109.8000471 387.438400
   2067   2070   2072     1   109.8000471 387.438400
   2068   2067   2070     1   109.5600471 388.275200
   2068   2067   2069     1   108.4600466 328.025600
   2069   2067   2070     1   109.5600471 388.275200
   2071   2070   2073     1   108.7700466 392.459200
   2071   2070   2072     1   107.5800459 329.699200
   2072   2070   2073     1   108.7700466 392.459200
   2073   2075   2076     1   106.5500460 417.563200
   2078   2081   2082     1   109.8000471 387.438400
   2078   2081   2083     1   109.8000471 387.438400
   2079   2078   2081     1   109.5600471 388.275200
   2079   2078   2108     1   109.7800468 425.094400
   2079   2078   2080     1   108.4600466 328.025600
   2080   2078   2081     1   109.5600471 388.275200
   2080   2078   2108     1   109.7800468 425.094400
   2081   2084   2085     1   109.5600471 388.275200
   2081   2084   2086     1   109.5600471 388.275200
   2082   2081   2084     1   109.8000471 387.438400
   2082   2081   2083     1   107.5800459 329.699200
   2083   2081   2084     1   109.8000471 387.438400
   2085   2084   2087     1   109.8800469 414.216000
   2085   2084   2086     1   108.4600466 328.025600
   2086   2084   2087     1   109.8800469 414.216000
   2087   2088   2089     1   109.8800469 414.216000
   2087   2088   2090     1   109.8800469 414.216000
   2087   2098   2099     1   109.8800469 414.216000
   2087   2098   2100     1   109.8800469 414.216000
   2088   2091   2092     1   109.8000471 387.438400
   2088   2091   2093     1   109.8000471 387.438400
   2089   2088   2091     1   109.5600471 388.275200
   2089   2088   2090     1   108.4600466 328.025600
   2090   2088   2091     1   109.5600471 388.275200
   2092   2091   2094     1   108.7700466 392.459200
   2092   2091   2093     1   107.5800459 329.699200
   2093   2091   2094     1   108.7700466 392.459200
   2094   2096   2097     1   106.5500460 417.563200
   2098   2101   2102     1   109.8000471 387.438400
   2098   2101   2103     1   109.8000471 387.438400
   2099   2098   2101     1   109.5600471 388.275200
   2099   2098   2100     1   108.4600466 328.025600
   2100   2098   2101     1   109.5600471 388.275200
   2102   2101   2104     1   108.7700466 392.459200
   2102   2101   2103     1   107.5800459 329.699200
   2103   2101   2104     1   108.7700466 392.459200
   2104   2106   2107     1   106.5500460 417.563200
   2109   2112   2113     1   109.8000471 387.438400
   2109   2112   2114     1   109.8000471 387.438400
   2110   2109   2112     1   109.5600471 388.275200
   2110   2109   2139     1   109.7800468 425.094400
   2110   2109   2111     1   108.4600466 328.025600
   2111   2109   2112     1   109.5600471 388.275200
   2111   2109   2139     1   109.7800468 425.094400
   2112   2115   2116     1   109.5600471 388.275200
   2112   2115   2117     1   109.5600471 388.275200
   2113   2112   2115     1   109.8000471 387.438400
   2113   2112   2114     1   107.5800459 329.699200
   2114   2112   2115     1   109.8000471 387.438400
   2116   2115   2118     1   109.8800469 414.216000
   2116   2115   2117     1   108.4600466 328.025600
   2117   2115   2118     1   109.8800469 414.216000
   2118   2119   2120     1   109.8800469 414.216000
   2118   2119   2121     1   109.8800469 414.216000
   2118   2129   2130     1   109.8800469 414.216000
   2118   2129   2131     1   109.8800469 414.216000
   2119   2122   2123     1   109.8000471 387.438400
   2119   2122   2124     1   109.8000471 387.438400
   2120   2119   2122     1   109.5600471 388.275200
   2120   2119   2121     1   108.4600466 328.025600
   2121   2119   2122     1   109.5600471 388.275200
   2123   2122   2125     1   108.7700466 392.459200
   2123   2122   2124     1   107.5800459 329.699200
   2124   2122   2125     1   108.7700466 392.459200
   2125   2127   2128     1   106.5500460 417.563200
   2129   2132   2133     1   109.8000471 387.438400
   2129   2132   2134     1   109.8000471 387.438400
   2130   2129   2132     1   109.5600471 388.275200
   2130   2129   2131     1   108.4600466 328.025600
   2131   2129   2132     1   109.5600471 388.275200
   2133   2132   2135     1   108.7700466 392.459200
   2133   2132   2134     1   107.5800459 329.699200
   2134   2132   2135     1   108.7700466 392.459200
   2135   2137   2138     1   106.5500460 417.563200
   2140   2143   2144     1   109.8000471 387.438400
   2140   2143   2145     1   109.8000471 387.438400
   2141   2140   2143     1   109.5600471 388.275200
   2141   2140   2170     1   109.7800468 425.094400
   2141   2140   2142     1   108.4600466 328.025600
   2142   2140   2143     1   109.5600471 388.275200
   2142   2140   2170     1   109.7800468 425.094400
   2143   2146   2147     1   109.5600471 388.275200
   2143   2146   2148     1   109.5600471 388.275200
   2144   2143   2146     1   109.8000471 387.438400
   2144   2143   2145     1   107.5800459 329.699200
   2145   2143   2146     1   109.8000471 387.438400
   2147   2146   2149     1   109.8800469 414.216000
   2147   2146   2148     1   108.4600466 328.025600
   2148   2146   2149     1   109.8800469 414.216000
   2149   2150   2151     1   109.8800469 414.216000
   2149   2150   2152     1   109.8800469 414.216000
   2149   2160   2161     1   109.8800469 414.216000
   2149   2160   2162     1   109.8800469 414.216000
   2150   2153   2154     1   109.8000471 387.438400
   2150   2153   2155     1   109.8000471 387.438400
   2151   2150   2153     1   109.5600471 388.275200
   2151   2150   2152     1   108.4600466 328.025600
   2152   2150   2153     1   109.5600471 388.275200
   2154   2153   2156     1   108.7700466 392.459200
   2154   2153   2155     1   107.5800459 329.699200
   2155   2153   2156     1   108.7700466 392.459200
   2156   2158   2159     1   106.5500460 417.563200
   2160   2163   2164     1   109.8000471 387.438400
   2160   2163   2165     1   109.8000471 387.438400
   2161   2160   2163     1   109.5600471 388.275200
   2161   2160   2162     1   108.4600466 328.025600
   2162   2160   2163     1   109.5600471 388.275200
   2164   2163   2166     1   108.7700466 392.459200
   2164   2163   2165     1   107.5800459 329.699200
   2165   2163   2166     1   108.7700466 392.459200
   2166   2168   2169     1   106.5500460 417.563200
   2171   2174   2175     1   109.8000471 387.438400
   2171   2174   2176     1   109.8000471 387.438400
   2172   2171   2174     1   109.5600471 388.275200
   2172   2171   2201     1   109.7800468 425.094400
   2172   2171   2173     1   108.4600466 328.025600
   2173   2171   2174     1   109.5600471 388.275200
   2173   2171   2201     1   109.7800468 425.094400
   2174   2177   2178     1   109.5600471 388.275200
   2174   2177   2179     1   109.5600471 388.275200
   2175   2174   2177     1   109.8000471 387.438400
   2175   2174   2176     1   107.5800459 329.699200
   2176   2174   2177     1   109.8000471 387.438400
   2178   2177   2180     1   109.8800469 414.216000
   2178   2177   2179     1   108.4600466 328.025600
   2179   2177   2180     1   109.8800469 414.216000
   2180   2181   2182     1   109.8800469 414.216000
   2180   2181   2183     1   109.8800469 414.216000
   2180   2191   2192     1   109.8800469 414.216000
   2180   2191   2193     1   109.8800469 414.216000
   2181   2184   2185     1   109.8000471 387.438400
   2181   2184   2186     1   109.8000471 387.438400
   2182   2181   2184     1   109.5600471 388.275200
   2182   2181   2183     1   108.4600466 328.025600
   2183   2181   2184     1   109.5600471 388.275200
   2185   2184   2187     1   108.7700466 392.459200
   2185   2184   2186     1   107.5800459 329.699200
   2186   2184   2187     1   108.7700466 392.459200
   2187   2189   2190     1   106.5500460 417.563200
   2191   2194   2195     1   109.8000471 387.438400
   2191   2194   2196     1   109.8000471 387.438400
   2192   2191   2194     1   109.5600471 388.275200
   2192   2191   2193     1   108.4600466 328.025600
   2193   2191   2194     1   109.5600471 388.275200
   2195   2194   2197     1   108.7700466 392.459200
   2195   2194   2196     1   107.5800459 329.699200
   2196   2194   2197     1   108.7700466 392.459200
   2197   2199   2200     1   106.5500460 417.563200
   2202   2205   2206     1   109.8000471 387.438400
   2202   2205   2207     1   109.8000471 387.438400
   2203   2202   2205     1   109.5600471 388.275200
   2203   2202   2232     1   109.7800468 425.094400
   2203   2202   2204     1   108.4600466 328.025600
   2204   2202   2205     1   109.5600471 388.275200
   2204   2202   2232     1   109.7800468 425.094400
   2205   2208   2209     1   109.5600471 388.275200
   2205   2208   2210     1   109.5600471 388.275200
   2206   2205   2208     1   109.8000471 387.438400
   2206   2205   2207     1   107.5800459 329.699200
   2207   2205   2208     1   109.8000471 387.438400
   2209   2208   2211     1   109.8800469 414.216000
   2209   2208   2210     1   108.4600466 328.025600
   2210   2208   2211     1   109.8800469 414.216000
   2211   2212   2213     1   109.8800469 414.216000
   2211   2212   2214     1   109.8800469 414.216000
   2211   2222   2223     1   109.8800469 414.216000
   2211   2222   2224     1   109.8800469 414.216000
   2212   2215   2216     1   109.8000471 387.438400
   2212   2215   2217     1   109.8000471 387.438400
   2213   2212   2215     1   109.5600471 388.275200
   2213   2212   2214     1   108.4600466 328.025600
   2214   2212   2215     1   109.5600471 388.275200
   2216   2215   2218     1   108.7700466 392.459200
   2216   2215   2217     1   107.5800459 329.699200
   2217   2215   2218     1   108.7700466 392.459200
   2218   2220   2221     1   106.5500460 417.563200
   2222   2225   2226     1   109.8000471 387.438400
   2222   2225   2227     1   109.8000471 387.438400
   2223   2222   2225     1   109.5600471 388.275200
   2223   2222   2224     1   108.4600466 328.025600
   2224   2222   2225     1   109.5600471 388.275200
   2226   2225   2228     1   108.7700466 392.459200
   2226   2225   2227     1   107.5800459 329.699200
   2227   2225   2228     1   108.7700466 392.459200
   2228   2230   2231     1   106.5500460 417.563200
   2233   2236   2237     1   109.8000471 387.438400
   2233   2236   2238     1   109.8000471 387.438400
   2234   2233   2236     1   109.5600471 388.275200
   2234   2233   2263     1   109.7800468 425.094400
   2234   2233   2235     1   108.4600466 328.025600
   2235   2233   2236     1   109.5600471 388.275200
   2235   2233   2263     1   109.7800468 425.094400
   2236   2239   2240     1   109.5600471 388.275200
   2236   2239   2241     1   109.5600471 388.275200
   2237   2236   2239     1   109.8000471 387.438400
   2237   2236   2238     1   107.5800459 329.699200
   2238   2236   2239     1   109.8000471 387.438400
   2240   2239   2242     1   109.8800469 414.216000
   2240   2239   2241     1   108.4600466 328.025600
   2241   2239   2242     1   109.8800469 414.216000
   2242   2243   2244     1   109.8800469 414.216000
   2242   2243   2245     1   109.8800469 414.216000
   2242   2253   2254     1   109.8800469 414.216000
   2242   2253   2255     1   109.8800469 414.216000
   2243   2246   2247     1   109.8000471 387.438400
   2243   2246   2248     1   109.8000471 387.438400
   2244   2243   2246     1   109.5600471 388.275200
   2244   2243   2245     1   108.4600466 328.025600
   2245   2243   2246     1   109.5600471 388.275200
   2247   2246   2249     1   108.7700466 392.459200
   2247   2246   2248     1   107.5800459 329.699200
   2248   2246   2249     1   108.7700466 392.459200
   2249   2251   2252     1   106.5500460 417.563200
   2253   2256   2257     1   109.8000471 387.438400
   2253   2256   2258     1   109.8000471 387.438400
   2254   2253   2256     1   109.5600471 388.275200
   2254   2253   2255     1   108.4600466 328.025600
   2255   2253   2256     1   109.5600471 388.275200
   2257   2256   2259     1   108.7700466 392.459200
   2257   2256   2258     1   107.5800459 329.699200
   2258   2256   2259     1   108.7700466 392.459200
   2259   2261   2262     1   106.5500460 417.563200
   2264   2267   2268     1   109.8000471 387.438400
   2264   2267   2269     1   109.8000471 387.438400
   2265   2264   2267     1   109.5600471 388.275200
   2265   2264   2294     1   109.7800468 425.094400
   2265   2264   2266     1   108.4600466 328.025600
   2266   2264   2267     1   109.5600471 388.275200
   2266   2264   2294     1   109.7800468 425.094400
   2267   2270   2271     1   109.5600471 388.275200
   2267   2270   2272     1   109.5600471 388.275200
   2268   2267   2270     1   109.8000471 387.438400
   2268   2267   2269     1   107.5800459 329.699200
   2269   2267   2270     1   109.8000471 387.438400
   2271   2270   2273     1   109.8800469 414.216000
   2271   2270   2272     1   108.4600466 328.025600
   2272   2270   2273     1   109.8800469 414.216000
   2273   2274   2275     1   109.8800469 414.216000
   2273   2274   2276     1   109.8800469 414.216000
   2273   2284   2285     1   109.8800469 414.216000
   2273   2284   2286     1   109.8800469 414.216000
   2274   2277   2278     1   109.8000471 387.438400
   2274   2277   2279     1   109.8000471 387.438400
   2275   2274   2277     1   109.5600471 388.275200
   2275   2274   2276     1   108.4600466 328.025600
   2276   2274   2277     1   109.5600471 388.275200
   2278   2277   2280     1   108.7700466 392.459200
   2278   2277   2279     1   107.5800459 329.699200
   2279   2277   2280     1   108.7700466 392.459200
   2280   2282   2283     1   106.5500460 417.563200
   2284   2287   2288     1   109.8000471 387.438400
   2284   2287   2289     1   109.8000471 387.438400
   2285   2284   2287     1   109.5600471 388.275200
   2285   2284   2286     1   108.4600466 328.025600
   2286   2284   2287     1   109.5600471 388.275200
   2288   2287   2290     1   108.7700466 392.459200
   2288   2287   2289     1   107.5800459 329.699200
   2289   2287   2290     1   108.7700466 392.459200
   2290   2292   2293     1   106.5500460 417.563200
   2295   2298   2299     1   109.8000471 387.438400
   2295   2298   2300     1   109.8000471 387.438400
   2296   2295   2298     1   109.5600471 388.275200
   2296   2295   2325     1   109.7800468 425.094400
   2296   2295   2297     1   108.4600466 328.025600
   2297   2295   2298     1   109.5600471 388.275200
   2297   2295   2325     1   109.7800468 425.094400
   2298   2301   2302     1   109.5600471 388.275200
   2298   2301   2303     1   109.5600471 388.275200
   2299   2298   2301     1   109.8000471 387.438400
   2299   2298   2300     1   107.5800459 329.699200
   2300   2298   2301     1   109.8000471 387.438400
   2302   2301   2304     1   109.8800469 414.216000
   2302   2301   2303     1   108.4600466 328.025600
   2303   2301   2304     1   109.8800469 414.216000
   2304   2305   2306     1   109.8800469 414.216000
   2304   2305   2307     1   109.8800469 414.216000
   2304   2315   2316     1   109.8800469 414.216000
   2304   2315   2317     1   109.8800469 414.216000
   2305   2308   2309     1   109.8000471 387.438400
   2305   2308   2310     1   109.8000471 387.438400
   2306   2305   2308     1   109.5600471 388.275200
   2306   2305   2307     1   108.4600466 328.025600
   2307   2305   2308     1   109.5600471 388.275200
   2309   2308   2311     1   108.7700466 392.459200
   2309   2308   2310     1   107.5800459 329.699200
   2310   2308   2311     1   108.7700466 392.459200
   2311   2313   2314     1   106.5500460 417.563200
   2315   2318   2319     1   109.8000471 387.438400
   2315   2318   2320     1   109.8000471 387.438400
   2316   2315   2318     1   109.5600471 388.275200
   2316   2315   2317     1   108.4600466 328.025600
   2317   2315   2318     1   109.5600471 388.275200
   2319   2318   2321     1   108.7700466 392.459200
   2319   2318   2320     1   107.5800459 329.699200
   2320   2318   2321     1   108.7700466 392.459200
   2321   2323   2324     1   106.5500460 417.563200
   2326   2329   2330     1   109.8000471 387.438400
   2326   2329   2331     1   109.8000471 387.438400
   2327   2326   2329     1   109.5600471 388.275200
   2327   2326   2356     1   109.7800468 425.094400
   2327   2326   2328     1   108.4600466 328.025600
   2328   2326   2329     1   109.5600471 388.275200
   2328   2326   2356     1   109.7800468 425.094400
   2329   2332   2333     1   109.5600471 388.275200
   2329   2332   2334     1   109.5600471 388.275200
   2330   2329   2332     1   109.8000471 387.438400
   2330   2329   2331     1   107.5800459 329.699200
   2331   2329   2332     1   109.8000471 387.438400
   2333   2332   2335     1   109.8800469 414.216000
   2333   2332   2334     1   108.4600466 328.025600
   2334   2332   2335     1   109.8800469 414.216000
   2335   2336   2337     1   109.8800469 414.216000
   2335   2336   2338     1   109.8800469 414.216000
   2335   2346   2347     1   109.8800469 414.216000
   2335   2346   2348     1   109.8800469 414.216000
   2336   2339   2340     1   109.8000471 387.438400
   2336   2339   2341     1   109.8000471 387.438400
   2337   2336   2339     1   109.5600471 388.275200
   2337   2336   2338     1   108.4600466 328.025600
   2338   2336   2339     1   109.5600471 388.275200
   2340   2339   2342     1   108.7700466 392.459200
   2340   2339   2341     1   107.5800459 329.699200
   2341   2339   2342     1   108.7700466 392.459200
   2342   2344   2345     1   106.5500460 417.563200
   2346   2349   2350     1   109.8000471 387.438400
   2346   2349   2351     1   109.8000471 387.438400
   2347   2346   2349     1   109.5600471 388.275200
   2347   2346   2348     1   108.4600466 328.025600
   2348   2346   2349     1   109.5600471 388.275200
   2350   2349   2352     1   108.7700466 392.459200
   2350   2349   2351     1   107.5800459 329.699200
   2351   2349   2352     1   108.7700466 392.459200
   2352   2354   2355     1   106.5500460 417.563200
   2357   2360   2361     1   109.8000471 387.438400
   2357   2360   2362     1   109.8000471 387.438400
   2358   2357   2360     1   109.5600471 388.275200
   2358   2357   2387     1   109.7800468 425.094400
   2358   2357   2359     1   108.4600466 328.025600
   2359   2357   2360     1   109.5600471 388.275200
   2359   2357   2387     1   109.7800468 425.094400
   2360   2363   2364     1   109.5600471 388.275200
   2360   2363   2365     1   109.5600471 388.275200
   2361   2360   2363     1   109.8000471 387.438400
   2361   2360   2362     1   107.5800459 329.699200
   2362   2360   2363     1   109.8000471 387.438400
   2364   2363   2366     1   109.8800469 414.216000
   2364   2363   2365     1   108.4600466 328.025600
   2365   2363   2366     1   109.8800469 414.216000
   2366   2367   2368     1   109.8800469 414.216000
   2366   2367   2369     1   109.8800469 414.216000
   2366   2377   2378     1   109.8800469 414.216000
   2366   2377   2379     1   109.8800469 414.216000
   2367   2370   2371     1   109.8000471 387.438400
   2367   2370   2372     1   109.8000471 387.438400
   2368   2367   2370     1   109.5600471 388.275200
   2368   2367   2369     1   108.4600466 328.025600
   2369   2367   2370     1   109.5600471 388.275200
   2371   2370   2373     1   108.7700466 392.459200
   2371   2370   2372     1   107.5800459 329.699200
   2372   2370   2373     1   108.7700466 392.459200
   2373   2375   2376     1   106.5500460 417.563200
   2377   2380   2381     1   109.8000471 387.438400
   2377   2380   2382     1   109.8000471 387.438400
   2378   2377   2380     1   109.5600471 388.275200
   2378   2377   2379     1   108.4600466 328.025600
   2379   2377   2380     1   109.5600471 388.275200
   2381   2380   2383     1   108.7700466 392.459200
   2381   2380   2382     1   107.5800459 329.699200
   2382   2380   2383     1   108.7700466 392.459200
   2383   2385   2386     1   106.5500460 417.563200
   2388   2391   2392     1   109.8000471 387.438400
   2388   2391   2393     1   109.8000471 387.438400
   2389   2388   2391     1   109.5600471 388.275200
   2389   2388   2418     1   109.7800468 425.094400
   2389   2388   2390     1   108.4600466 328.025600
   2390   2388   2391     1   109.5600471 388.275200
   2390   2388   2418     1   109.7800468 425.094400
   2391   2394   2395     1   109.5600471 388.275200
   2391   2394   2396     1   109.5600471 388.275200
   2392   2391   2394     1   109.8000471 387.438400
   2392   2391   2393     1   107.5800459 329.699200
   2393   2391   2394     1   109.8000471 387.438400
   2395   2394   2397     1   109.8800469 414.216000
   2395   2394   2396     1   108.4600466 328.025600
   2396   2394   2397     1   109.8800469 414.216000
   2397   2398   2399     1   109.8800469 414.216000
   2397   2398   2400     1   109.8800469 414.216000
   2397   2408   2409     1   109.8800469 414.216000
   2397   2408   2410     1   109.8800469 414.216000
   2398   2401   2402     1   109.8000471 387.438400
   2398   2401   2403     1   109.8000471 387.438400
   2399   2398   2401     1   109.5600471 388.275200
   2399   2398   2400     1   108.4600466 328.025600
   2400   2398   2401     1   109.5600471 388.275200
   2402   2401   2404     1   108.7700466 392.459200
   2402   2401   2403     1   107.5800459 329.699200
   2403   2401   2404     1   108.7700466 392.459200
   2404   2406   2407     1   106.5500460 417.563200
   2408   2411   2412     1   109.8000471 387.438400
   2408   2411   2413     1   109.8000471 387.438400
   2409   2408   2411     1   109.5600471 388.275200
   2409   2408   2410     1   108.4600466 328.025600
   2410   2408   2411     1   109.5600471 388.275200
   2412   2411   2414     1   108.7700466 392.459200
   2412   2411   2413     1   107.5800459 329.699200
   2413   2411   2414     1   108.7700466 392.459200
   2414   2416   2417     1   106.5500460 417.563200
   2419   2422   2423     1   109.8000471 387.438400
   2419   2422   2424     1   109.8000471 387.438400
   2420   2419   2422     1   109.5600471 388.275200
   2420   2419   2449     1   109.7800468 425.094400
   2420   2419   2421     1   108.4600466 328.025600
   2421   2419   2422     1   109.5600471 388.275200
   2421   2419   2449     1   109.7800468 425.094400
   2422   2425   2426     1   109.5600471 388.275200
   2422   2425   2427     1   109.5600471 388.275200
   2423   2422   2425     1   109.8000471 387.438400
   2423   2422   2424     1   107.5800459 329.699200
   2424   2422   2425     1   109.8000471 387.438400
   2426   2425   2428     1   109.8800469 414.216000
   2426   2425   2427     1   108.4600466 328.025600
   2427   2425   2428     1   109.8800469 414.216000
   2428   2429   2430     1   109.8800469 414.216000
   2428   2429   2431     1   109.8800469 414.216000
   2428   2439   2440     1   109.8800469 414.216000
   2428   2439   2441     1   109.8800469 414.216000
   2429   2432   2433     1   109.8000471 387.438400
   2429   2432   2434     1   109.8000471 387.438400
   2430   2429   2432     1   109.5600471 388.275200
   2430   2429   2431     1   108.4600466 328.025600
   2431   2429   2432     1   109.5600471 388.275200
   2433   2432   2435     1   108.7700466 392.459200
   2433   2432   2434     1   107.5800459 329.699200
   2434   2432   2435     1   108.7700466 392.459200
   2435   2437   2438     1   106.5500460 417.563200
   2439   2442   2443     1   109.8000471 387.438400
   2439   2442   2444     1   109.8000471 387.438400
   2440   2439   2442     1   109.5600471 388.275200
   2440   2439   2441     1   108.4600466 328.025600
   2441   2439   2442     1   109.5600471 388.275200
   2443   2442   2445     1   108.7700466 392.459200
   2443   2442   2444     1   107.5800459 329.699200
   2444   2442   2445     1   108.7700466 392.459200
   2445   2447   2448     1   106.5500460 417.563200
   2450   2453   2454     1   109.8000471 387.438400
   2450   2453   2455     1   109.8000471 387.438400
   2451   2450   2453     1   109.5600471 388.275200
   2451   2450   2480     1   109.7800468 425.094400
   2451   2450   2452     1   108.4600466 328.025600
   2452   2450   2453     1   109.5600471 388.275200
   2452   2450   2480     1   109.7800468 425.094400
   2453   2456   2457     1   109.5600471 388.275200
   2453   2456   2458     1   109.5600471 388.275200
   2454   2453   2456     1   109.8000471 387.438400
   2454   2453   2455     1   107.5800459 329.699200
   2455   2453   2456     1   109.8000471 387.438400
   2457   2456   2459     1   109.8800469 414.216000
   2457   2456   2458     1   108.4600466 328.025600
   2458   2456   2459     1   109.8800469 414.216000
   2459   2460   2461     1   109.8800469 414.216000
   2459   2460   2462     1   109.8800469 414.216000
   2459   2470   2471     1   109.8800469 414.216000
   2459   2470   2472     1   109.8800469 414.216000
   2460   2463   2464     1   109.8000471 387.438400
   2460   2463   2465     1   109.8000471 387.438400
   2461   2460   2463     1   109.5600471 388.275200
   2461   2460   2462     1   108.4600466 328.025600
   2462   2460   2463     1   109.5600471 388.275200
   2464   2463   2466     1   108.7700466 392.459200
   2464   2463   2465     1   107.5800459 329.699200
   2465   2463   2466     1   108.7700466 392.459200
   2466   2468   2469     1   106.5500460 417.563200
   2470   2473   2474     1   109.8000471 387.438400
   2470   2473   2475     1   109.8000471 387.438400
   2471   2470   2473     1   109.5600471 388.275200
   2471   2470   2472     1   108.4600466 328.025600
   2472   2470   2473     1   109.5600471 388.275200
   2474   2473   2476     1   108.7700466 392.459200
   2474   2473   2475     1   107.5800459 329.699200
   2475   2473   2476     1   108.7700466 392.459200
   2476   2478   2479     1   106.5500460 417.563200
   2481   2484   2485     1   109.8000471 387.438400
   2481   2484   2486     1   109.8000471 387.438400
   2482   2481   2484     1   109.5600471 388.275200
   2482   2481   2511     1   109.7800468 425.094400
   2482   2481   2483     1   108.4600466 328.025600
   2483   2481   2484     1   109.5600471 388.275200
   2483   2481   2511     1   109.7800468 425.094400
   2484   2487   2488     1   109.5600471 388.275200
   2484   2487   2489     1   109.5600471 388.275200
   2485   2484   2487     1   109.8000471 387.438400
   2485   2484   2486     1   107.5800459 329.699200
   2486   2484   2487     1   109.8000471 387.438400
   2488   2487   2490     1   109.8800469 414.216000
   2488   2487   2489     1   108.4600466 328.025600
   2489   2487   2490     1   109.8800469 414.216000
   2490   2491   2492     1   109.8800469 414.216000
   2490   2491   2493     1   109.8800469 414.216000
   2490   2501   2502     1   109.8800469 414.216000
   2490   2501   2503     1   109.8800469 414.216000
   2491   2494   2495     1   109.8000471 387.438400
   2491   2494   2496     1   109.8000471 387.438400
   2492   2491   2494     1   109.5600471 388.275200
   2492   2491   2493     1   108.4600466 328.025600
   2493   2491   2494     1   109.5600471 388.275200
   2495   2494   2497     1   108.7700466 392.459200
   2495   2494   2496     1   107.5800459 329.699200
   2496   2494   2497     1   108.7700466 392.459200
   2497   2499   2500     1   106.5500460 417.563200
   2501   2504   2505     1   109.8000471 387.438400
   2501   2504   2506     1   109.8000471 387.438400
   2502   2501   2504     1   109.5600471 388.275200
   2502   2501   2503     1   108.4600466 328.025600
   2503   2501   2504     1   109.5600471 388.275200
   2505   2504   2507     1   108.7700466 392.459200
   2505   2504   2506     1   107.5800459 329.699200
   2506   2504   2507     1   108.7700466 392.459200
   2507   2509   2510     1   106.5500460 417.563200
   2512   2515   2516     1   109.8000471 387.438400
   2512   2515   2517     1   109.8000471 387.438400
   2513   2512   2515     1   109.5600471 388.275200
   2513   2512   2542     1   109.7800468 425.094400
   2513   2512   2514     1   108.4600466 328.025600
   2514   2512   2515     1   109.5600471 388.275200
   2514   2512   2542     1   109.7800468 425.094400
   2515   2518   2519     1   109.5600471 388.275200
   2515   2518   2520     1   109.5600471 388.275200
   2516   2515   2518     1   109.8000471 387.438400
   2516   2515   2517     1   107.5800459 329.699200
   2517   2515   2518     1   109.8000471 387.438400
   2519   2518   2521     1   109.8800469 414.216000
   2519   2518   2520     1   108.4600466 328.025600
   2520   2518   2521     1   109.8800469 414.216000
   2521   2522   2523     1   109.8800469 414.216000
   2521   2522   2524     1   109.8800469 414.216000
   2521   2532   2533     1   109.8800469 414.216000
   2521   2532   2534     1   109.8800469 414.216000
   2522   2525   2526     1   109.8000471 387.438400
   2522   2525   2527     1   109.8000471 387.438400
   2523   2522   2525     1   109.5600471 388.275200
   2523   2522   2524     1   108.4600466 328.025600
   2524   2522   2525     1   109.5600471 388.275200
   2526   2525   2528     1   108.7700466 392.459200
   2526   2525   2527     1   107.5800459 329.699200
   2527   2525   2528     1   108.7700466 392.459200
   2528   2530   2531     1   106.5500460 417.563200
   2532   2535   2536     1   109.8000471 387.438400
   2532   2535   2537     1   109.8000471 387.438400
   2533   2532   2535     1   109.5600471 388.275200
   2533   2532   2534     1   108.4600466 328.025600
   2534   2532   2535     1   109.5600471 388.275200
   2536   2535   2538     1   108.7700466 392.459200
   2536   2535   2537     1   107.5800459 329.699200
   2537   2535   2538     1   108.7700466 392.459200
   2538   2540   2541     1   106.5500460 417.563200
   2543   2546   2547     1   109.8000471 387.438400
   2543   2546   2548     1   109.8000471 387.438400
   2544   2543   2546     1   109.5600471 388.275200
   2544   2543   2573     1   109.7800468 425.094400
   2544   2543   2545     1   108.4600466 328.025600
   2545   2543   2546     1   109.5600471 388.275200
   2545   2543   2573     1   109.7800468 425.094400
   2546   2549   2550     1   109.5600471 388.275200
   2546   2549   2551     1   109.5600471 388.275200
   2547   2546   2549     1   109.8000471 387.438400
   2547   2546   2548     1   107.5800459 329.699200
   2548   2546   2549     1   109.8000471 387.438400
   2550   2549   2552     1   109.8800469 414.216000
   2550   2549   2551     1   108.4600466 328.025600
   2551   2549   2552     1   109.8800469 414.216000
   2552   2553   2554     1   109.8800469 414.216000
   2552   2553   2555     1   109.8800469 414.216000
   2552   2563   2564     1   109.8800469 414.216000
   2552   2563   2565     1   109.8800469 414.216000
   2553   2556   2557     1   109.8000471 387.438400
   2553   2556   2558     1   109.8000471 387.438400
   2554   2553   2556     1   109.5600471 388.275200
   2554   2553   2555     1   108.4600466 328.025600
   2555   2553   2556     1   109.5600471 388.275200
   2557   2556   2559     1   108.7700466 392.459200
   2557   2556   2558     1   107.5800459 329.699200
   2558   2556   2559     1   108.7700466 392.459200
   2559   2561   2562     1   106.5500460 417.563200
   2563   2566   2567     1   109.8000471 387.438400
   2563   2566   2568     1   109.8000471 387.438400
   2564   2563   2566     1   109.5600471 388.275200
   2564   2563   2565     1   108.4600466 328.025600
   2565   2563   2566     1   109.5600471 388.275200
   2567   2566   2569     1   108.7700466 392.459200
   2567   2566   2568     1   107.5800459 329.699200
   2568   2566   2569     1   108.7700466 392.459200
   2569   2571   2572     1   106.5500460 417.563200
   2574   2577   2578     1   109.8000471 387.438400
   2574   2577   2579     1   109.8000471 387.438400
   2575   2574   2577     1   109.5600471 388.275200
   2575   2574   2604     1   109.7800468 425.094400
   2575   2574   2576     1   108.4600466 328.025600
   2576   2574   2577     1   109.5600471 388.275200
   2576   2574   2604     1   109.7800468 425.094400
   2577   2580   2581     1   109.5600471 388.275200
   2577   2580   2582     1   109.5600471 388.275200
   2578   2577   2580     1   109.8000471 387.438400
   2578   2577   2579     1   107.5800459 329.699200
   2579   2577   2580     1   109.8000471 387.438400
   2581   2580   2583     1   109.8800469 414.216000
   2581   2580   2582     1   108.4600466 328.025600
   2582   2580   2583     1   109.8800469 414.216000
   2583   2584   2585     1   109.8800469 414.216000
   2583   2584   2586     1   109.8800469 414.216000
   2583   2594   2595     1   109.8800469 414.216000
   2583   2594   2596     1   109.8800469 414.216000
   2584   2587   2588     1   109.8000471 387.438400
   2584   2587   2589     1   109.8000471 387.438400
   2585   2584   2587     1   109.5600471 388.275200
   2585   2584   2586     1   108.4600466 328.025600
   2586   2584   2587     1   109.5600471 388.275200
   2588   2587   2590     1   108.7700466 392.459200
   2588   2587   2589     1   107.5800459 329.699200
   2589   2587   2590     1   108.7700466 392.459200
   2590   2592   2593     1   106.5500460 417.563200
   2594   2597   2598     1   109.8000471 387.438400
   2594   2597   2599     1   109.8000471 387.438400
   2595   2594   2597     1   109.5600471 388.275200
   2595   2594   2596     1   108.4600466 328.025600
   2596   2594   2597     1   109.5600471 388.275200
   2598   2597   2600     1   108.7700466 392.459200
   2598   2597   2599     1   107.5800459 329.699200
   2599   2597   2600     1   108.7700466 392.459200
   2600   2602   2603     1   106.5500460 417.563200
   2605   2608   2609     1   109.8000471 387.438400
   2605   2608   2610     1   109.8000471 387.438400
   2606   2605   2608     1   109.5600471 388.275200
   2606   2605   2635     1   109.7800468 425.094400
   2606   2605   2607     1   108.4600466 328.025600
   2607   2605   2608     1   109.5600471 388.275200
   2607   2605   2635     1   109.7800468 425.094400
   2608   2611   2612     1   109.5600471 388.275200
   2608   2611   2613     1   109.5600471 388.275200
   2609   2608   2611     1   109.8000471 387.438400
   2609   2608   2610     1   107.5800459 329.699200
   2610   2608   2611     1   109.8000471 387.438400
   2612   2611   2614     1   109.8800469 414.216000
   2612   2611   2613     1   108.4600466 328.025600
   2613   2611   2614     1   109.8800469 414.216000
   2614   2615   2616     1   109.8800469 414.216000
   2614   2615   2617     1   109.8800469 414.216000
   2614   2625   2626     1   109.8800469 414.216000
   2614   2625   2627     1   109.8800469 414.216000
   2615   2618   2619     1   109.8000471 387.438400
   2615   2618   2620     1   109.8000471 387.438400
   2616   2615   2618     1   109.5600471 388.275200
   2616   2615   2617     1   108.4600466 328.025600
   2617   2615   2618     1   109.5600471 388.275200
   2619   2618   2621     1   108.7700466 392.459200
   2619   2618   2620     1   107.5800459 329.699200
   2620   2618   2621     1   108.7700466 392.459200
   2621   2623   2624     1   106.5500460 417.563200
   2625   2628   2629     1   109.8000471 387.438400
   2625   2628   2630     1   109.8000471 387.438400
   2626   2625   2628     1   109.5600471 388.275200
   2626   2625   2627     1   108.4600466 328.025600
   2627   2625   2628     1   109.5600471 388.275200
   2629   2628   2631     1   108.7700466 392.459200
   2629   2628   2630     1   107.5800459 329.699200
   2630   2628   2631     1   108.7700466 392.459200
   2631   2633   2634     1   106.5500460 417.563200
   2636   2639   2640     1   109.8000471 387.438400
   2636   2639   2641     1   109.8000471 387.438400
   2637   2636   2639     1   109.5600471 388.275200
   2637   2636   2666     1   109.7800468 425.094400
   2637   2636   2638     1   108.4600466 328.025600
   2638   2636   2639     1   109.5600471 388.275200
   2638   2636   2666     1   109.7800468 425.094400
   2639   2642   2643     1   109.5600471 388.275200
   2639   2642   2644     1   109.5600471 388.275200
   2640   2639   2642     1   109.8000471 387.438400
   2640   2639   2641     1   107.5800459 329.699200
   2641   2639   2642     1   109.8000471 387.438400
   2643   2642   2645     1   109.8800469 414.216000
   2643   2642   2644     1   108.4600466 328.025600
   2644   2642   2645     1   109.8800469 414.216000
   2645   2646   2647     1   109.8800469 414.216000
   2645   2646   2648     1   109.8800469 414.216000
   2645   2656   2657     1   109.8800469 414.216000
   2645   2656   2658     1   109.8800469 414.216000
   2646   2649   2650     1   109.8000471 387.438400
   2646   2649   2651     1   109.8000471 387.438400
   2647   2646   2649     1   109.5600471 388.275200
   2647   2646   2648     1   108.4600466 328.025600
   2648   2646   2649     1   109.5600471 388.275200
   2650   2649   2652     1   108.7700466 392.459200
   2650   2649   2651     1   107.5800459 329.699200
   2651   2649   2652     1   108.7700466 392.459200
   2652   2654   2655     1   106.5500460 417.563200
   2656   2659   2660     1   109.8000471 387.438400
   2656   2659   2661     1   109.8000471 387.438400
   2657   2656   2659     1   109.5600471 388.275200
   2657   2656   2658     1   108.4600466 328.025600
   2658   2656   2659     1   109.5600471 388.275200
   2660   2659   2662     1   108.7700466 392.459200
   2660   2659   2661     1   107.5800459 329.699200
   2661   2659   2662     1   108.7700466 392.459200
   2662   2664   2665     1   106.5500460 417.563200
   2667   2670   2671     1   109.8000471 387.438400
   2667   2670   2672     1   109.8000471 387.438400
   2668   2667   2670     1   109.5600471 388.275200
   2668   2667   2697     1   109.7800468 425.094400
   2668   2667   2669     1   108.4600466 328.025600
   2669   2667   2670     1   109.5600471 388.275200
   2669   2667   2697     1   109.7800468 425.094400
   2670   2673   2674     1   109.5600471 388.275200
   2670   2673   2675     1   109.5600471 388.275200
   2671   2670   2673     1   109.8000471 387.438400
   2671   2670   2672     1   107.5800459 329.699200
   2672   2670   2673     1   109.8000471 387.438400
   2674   2673   2676     1   109.8800469 414.216000
   2674   2673   2675     1   108.4600466 328.025600
   2675   2673   2676     1   109.8800469 414.216000
   2676   2677   2678     1   109.8800469 414.216000
   2676   2677   2679     1   109.8800469 414.216000
   2676   2687   2688     1   109.8800469 414.216000
   2676   2687   2689     1   109.8800469 414.216000
   2677   2680   2681     1   109.8000471 387.438400
   2677   2680   2682     1   109.8000471 387.438400
   2678   2677   2680     1   109.5600471 388.275200
   2678   2677   2679     1   108.4600466 328.025600
   2679   2677   2680     1   109.5600471 388.275200
   2681   2680   2683     1   108.7700466 392.459200
   2681   2680   2682     1   107.5800459 329.699200
   2682   2680   2683     1   108.7700466 392.459200
   2683   2685   2686     1   106.5500460 417.563200
   2687   2690   2691     1   109.8000471 387.438400
   2687   2690   2692     1   109.8000471 387.438400
   2688   2687   2690     1   109.5600471 388.275200
   2688   2687   2689     1   108.4600466 328.025600
   2689   2687   2690     1   109.5600471 388.275200
   2691   2690   2693     1   108.7700466 392.459200
   2691   2690   2692     1   107.5800459 329.699200
   2692   2690   2693     1   108.7700466 392.459200
   2693   2695   2696     1   106.5500460 417.563200
   2698   2701   2702     1   109.8000471 387.438400
   2698   2701   2703     1   109.8000471 387.438400
   2699   2698   2701     1   109.5600471 388.275200
   2699   2698   2728     1   109.7800468 425.094400
   2699   2698   2700     1   108.4600466 328.025600
   2700   2698   2701     1   109.5600471 388.275200
   2700   2698   2728     1   109.7800468 425.094400
   2701   2704   2705     1   109.5600471 388.275200
   2701   2704   2706     1   109.5600471 388.275200
   2702   2701   2704     1   109.8000471 387.438400
   2702   2701   2703     1   107.5800459 329.699200
   2703   2701   2704     1   109.8000471 387.438400
   2705   2704   2707     1   109.8800469 414.216000
   2705   2704   2706     1   108.4600466 328.025600
   2706   2704   2707     1   109.8800469 414.216000
   2707   2708   2709     1   109.8800469 414.216000
   2707   2708   2710     1   109.8800469 414.216000
   2707   2718   2719     1   109.8800469 414.216000
   2707   2718   2720     1   109.8800469 414.216000
   2708   2711   2712     1   109.8000471 387.438400
   2708   2711   2713     1   109.8000471 387.438400
   2709   2708   2711     1   109.5600471 388.275200
   2709   2708   2710     1   108.4600466 328.025600
   2710   2708   2711     1   109.5600471 388.275200
   2712   2711   2714     1   108.7700466 392.459200
   2712   2711   2713     1   107.5800459 329.699200
   2713   2711   2714     1   108.7700466 392.459200
   2714   2716   2717     1   106.5500460 417.563200
   2718   2721   2722     1   109.8000471 387.438400
   2718   2721   2723     1   109.8000471 387.438400
   2719   2718   2721     1   109.5600471 388.275200
   2719   2718   2720     1   108.4600466 328.025600
   2720   2718   2721     1   109.5600471 388.275200
   2722   2721   2724     1   108.7700466 392.459200
   2722   2721   2723     1   107.5800459 329.699200
   2723   2721   2724     1   108.7700466 392.459200
   2724   2726   2727     1   106.5500460 417.563200
   2729   2732   2733     1   109.8000471 387.438400
   2729   2732   2734     1   109.8000471 387.438400
   2730   2729   2732     1   109.5600471 388.275200
   2730   2729   2759     1   109.7800468 425.094400
   2730   2729   2731     1   108.4600466 328.025600
   2731   2729   2732     1   109.5600471 388.275200
   2731   2729   2759     1   109.7800468 425.094400
   2732   2735   2736     1   109.5600471 388.275200
   2732   2735   2737     1   109.5600471 388.275200
   2733   2732   2735     1   109.8000471 387.438400
   2733   2732   2734     1   107.5800459 329.699200
   2734   2732   2735     1   109.8000471 387.438400
   2736   2735   2738     1   109.8800469 414.216000
   2736   2735   2737     1   108.4600466 328.025600
   2737   2735   2738     1   109.8800469 414.216000
   2738   2739   2740     1   109.8800469 414.216000
   2738   2739   2741     1   109.8800469 414.216000
   2738   2749   2750     1   109.8800469 414.216000
   2738   2749   2751     1   109.8800469 414.216000
   2739   2742   2743     1   109.8000471 387.438400
   2739   2742   2744     1   109.8000471 387.438400
   2740   2739   2742     1   109.5600471 388.275200
   2740   2739   2741     1   108.4600466 328.025600
   2741   2739   2742     1   109.5600471 388.275200
   2743   2742   2745     1   108.7700466 392.459200
   2743   2742   2744     1   107.5800459 329.699200
   2744   2742   2745     1   108.7700466 392.459200
   2745   2747   2748     1   106.5500460 417.563200
   2749   2752   2753     1   109.8000471 387.438400
   2749   2752   2754     1   109.8000471 387.438400
   2750   2749   2752     1   109.5600471 388.275200
   2750   2749   2751     1   108.4600466 328.025600
   2751   2749   2752     1   109.5600471 388.275200
   2753   2752   2755     1   108.7700466 392.459200
   2753   2752   2754     1   107.5800459 329.699200
   2754   2752   2755     1   108.7700466 392.459200
   2755   2757   2758     1   106.5500460 417.563200
   2760   2763   2764     1   109.8000471 387.438400
   2760   2763   2765     1   109.8000471 387.438400
   2761   2760   2763     1   109.5600471 388.275200
   2761   2760   2790     1   109.7800468 425.094400
   2761   2760   2762     1   108.4600466 328.025600
   2762   2760   2763     1   109.5600471 388.275200
   2762   2760   2790     1   109.7800468 425.094400
   2763   2766   2767     1   109.5600471 388.275200
   2763   2766   2768     1   109.5600471 388.275200
   2764   2763   2766     1   109.8000471 387.438400
   2764   2763   2765     1   107.5800459 329.699200
   2765   2763   2766     1   109.8000471 387.438400
   2767   2766   2769     1   109.8800469 414.216000
   2767   2766   2768     1   108.4600466 328.025600
   2768   2766   2769     1   109.8800469 414.216000
   2769   2770   2771     1   109.8800469 414.216000
   2769   2770   2772     1   109.8800469 414.216000
   2769   2780   2781     1   109.8800469 414.216000
   2769   2780   2782     1   109.8800469 414.216000
   2770   2773   2774     1   109.8000471 387.438400
   2770   2773   2775     1   109.8000471 387.438400
   2771   2770   2773     1   109.5600471 388.275200
   2771   2770   2772     1   108.4600466 328.025600
   2772   2770   2773     1   109.5600471 388.275200
   2774   2773   2776     1   108.7700466 392.459200
   2774   2773   2775     1   107.5800459 329.699200
   2775   2773   2776     1   108.7700466 392.459200
   2776   2778   2779     1   106.5500460 417.563200
   2780   2783   2784     1   109.8000471 387.438400
   2780   2783   2785     1   109.8000471 387.438400
   2781   2780   2783     1   109.5600471 388.275200
   2781   2780   2782     1   108.4600466 328.025600
   2782   2780   2783     1   109.5600471 388.275200
   2784   2783   2786     1   108.7700466 392.459200
   2784   2783   2785     1   107.5800459 329.699200
   2785   2783   2786     1   108.7700466 392.459200
   2786   2788   2789     1   106.5500460 417.563200
   2791   2794   2795     1   109.8000471 387.438400
   2791   2794   2796     1   109.8000471 387.438400
   2792   2791   2794     1   109.5600471 388.275200
   2792   2791   2821     1   109.7800468 425.094400
   2792   2791   2793     1   108.4600466 328.025600
   2793   2791   2794     1   109.5600471 388.275200
   2793   2791   2821     1   109.7800468 425.094400
   2794   2797   2798     1   109.5600471 388.275200
   2794   2797   2799     1   109.5600471 388.275200
   2795   2794   2797     1   109.8000471 387.438400
   2795   2794   2796     1   107.5800459 329.699200
   2796   2794   2797     1   109.8000471 387.438400
   2798   2797   2800     1   109.8800469 414.216000
   2798   2797   2799     1   108.4600466 328.025600
   2799   2797   2800     1   109.8800469 414.216000
   2800   2801   2802     1   109.8800469 414.216000
   2800   2801   2803     1   109.8800469 414.216000
   2800   2811   2812     1   109.8800469 414.216000
   2800   2811   2813     1   109.8800469 414.216000
   2801   2804   2805     1   109.8000471 387.438400
   2801   2804   2806     1   109.8000471 387.438400
   2802   2801   2804     1   109.5600471 388.275200
   2802   2801   2803     1   108.4600466 328.025600
   2803   2801   2804     1   109.5600471 388.275200
   2805   2804   2807     1   108.7700466 392.459200
   2805   2804   2806     1   107.5800459 329.699200
   2806   2804   2807     1   108.7700466 392.459200
   2807   2809   2810     1   106.5500460 417.563200
   2811   2814   2815     1   109.8000471 387.438400
   2811   2814   2816     1   109.8000471 387.438400
   2812   2811   2814     1   109.5600471 388.275200
   2812   2811   2813     1   108.4600466 328.025600
   2813   2811   2814     1   109.5600471 388.275200
   2815   2814   2817     1   108.7700466 392.459200
   2815   2814   2816     1   107.5800459 329.699200
   2816   2814   2817     1   108.7700466 392.459200
   2817   2819   2820     1   106.5500460 417.563200

[ dihedrals ]
;    ai     aj     ak     al funct         c0         c1         c2         c3         c4         c5
      1      2     14     26     1  0.0000000  0.6508444  3
      1      5     17     20     1  0.0000000  0.6508444  3
      1      8     11     23     1  0.0000000  0.6508444  3
      2      1      5     17     1  180.0000771  2.0083200  2
      2      1      5     17     1  0.0000000  1.2552000  3
      2      1      8     11     1  180.0000771  2.0083200  2
      2      1      8     11     1  0.0000000  1.2552000  3
      2     14     26    115     1  0.0000000  0.6508444  3
      5      1      2     14     1  180.0000771  2.0083200  2
      5      1      2     14     1  0.0000000  1.2552000  3
      5      1      8     11     1  180.0000771  2.0083200  2
      5      1      8     11     1  0.0000000  1.2552000  3
      5     17     20     57     1  0.0000000  0.6508444  3
      8      1      2     14     1  180.0000771  2.0083200  2
      8      1      2     14     1  0.0000000  1.2552000  3
      8      1      5     17     1  180.0000771  2.0083200  2
      8      1      5     17     1  0.0000000  1.2552000  3
      8     11     23     86     1  0.0000000  0.6508444  3
     11     23     86     77     1  180.0000771  0.4184000  2
     11     23     86     77     1  0.0000000  1.6024720  3
     14     26    115    106     1  180.0000771  0.4184000  2
     14     26    115    106     1  0.0000000  1.6024720  3
     17     20     57     48     1  180.0000771  0.4184000  2
     17     20     57     48     1  0.0000000  1.6024720  3
     20     57     48     39     1  180.0000771  0.4184000  2
     20     57     48     39     1  0.0000000  1.6024720  3
     23     86     77     68     1  180.0000771  0.4184000  2
     23     86     77     68     1  0.0000000  1.6024720  3
     26    115    106     97     1  180.0000771  0.4184000  2
     26    115    106     97     1  0.0000000  1.6024720  3
     29     30     42     54     1  0.0000000  0.6508444  3
     29     33     45     51     1  0.0000000  0.6508444  3
     29     36     39     48     1  0.0000000  0.6508444  3
     30     29     33     45     1  180.0000771  2.0083200  2
     30     29     33     45     1  0.0000000  1.2552000  3
     30     29     36     39     1  180.0000771  2.0083200  2
     30     29     36     39     1  0.0000000  1.2552000  3
     30     42     54    173     1  0.0000000  0.6508444  3
     33     29     30     42     1  180.0000771  2.0083200  2
     33     29     30     42     1  0.0000000  1.2552000  3
     33     29     36     39     1  180.0000771  2.0083200  2
     33     29     36     39     1  0.0000000  1.2552000  3
     33     45     51    144     1  0.0000000  0.6508444  3
     36     29     30     42     1  180.0000771  2.0083200  2
     36     29     30     42     1  0.0000000  1.2552000  3
     36     29     33     45     1  180.0000771  2.0083200  2
     36     29     33     45     1  0.0000000  1.2552000  3
     36     39     48     57     1  0.0000000  0.6508444  3
     42     54    173    164     1  180.0000771  0.4184000  2
     42     54    173    164     1  0.0000000  1.6024720  3
     45     51    144    135     1  180.0000771  0.4184000  2
     45     51    144    135     1  0.0000000  1.6024720  3
     51    144    135    126     1  180.0000771  0.4184000  2
     51    144    135    126     1  0.0000000  1.6024720  3
     54    173    164    155     1  180.0000771  0.4184000  2
     54    173    164    155     1  0.0000000  1.6024720  3
     58     59     71     83     1  0.0000000  0.6508444  3
     58     62     74     80     1  0.0000000  0.6508444  3
     58     65     68     77     1  0.0000000  0.6508444  3
     59     58     62     74     1  180.0000771  2.0083200  2
     59     58     62     74     1  0.0000000  1.2552000  3
     59     58     65     68     1  180.0000771  2.0083200  2
     59     58     65     68     1  0.0000000  1.2552000  3
     59     71     83    231     1  0.0000000  0.6508444  3
     62     58     59     71     1  180.0000771  2.0083200  2
     62     58     59     71     1  0.0000000  1.2552000  3
     62     58     65     68     1  180.0000771  2.0083200  2
     62     58     65     68     1  0.0000000  1.2552000  3
     62     74     80    202     1  0.0000000  0.6508444  3
     65     58     59     71     1  180.0000771  2.0083200  2
     65     58     59     71     1  0.0000000  1.2552000  3
     65     58     62     74     1  180.0000771  2.0083200  2
     65     58     62     74     1  0.0000000  1.2552000  3
     65     68     77     86     1  0.0000000  0.6508444  3
     71     83    231    222     1  180.0000771  0.4184000  2
     71     83    231    222     1  0.0000000  1.6024720  3
     74     80    202    193     1  180.0000771  0.4184000  2
     74     80    202    193     1  0.0000000  1.6024720  3
     80    202    193    184     1  180.0000771  0.4184000  2
     80    202    193    184     1  0.0000000  1.6024720  3
     83    231    222    213     1  180.0000771  0.4184000  2
     83    231    222    213     1  0.0000000  1.6024720  3
     87     88    100    112     1  0.0000000  0.6508444  3
     87     91    103    109     1  0.0000000  0.6508444  3
     87     94     97    106     1  0.0000000  0.6508444  3
     88     87     91    103     1  180.0000771  2.0083200  2
     88     87     91    103     1  0.0000000  1.2552000  3
     88     87     94     97     1  180.0000771  2.0083200  2
     88     87     94     97     1  0.0000000  1.2552000  3
     88    100    112    289     1  0.0000000  0.6508444  3
     91     87     88    100     1  180.0000771  2.0083200  2
     91     87     88    100     1  0.0000000  1.2552000  3
     91     87     94     97     1  180.0000771  2.0083200  2
     91     87     94     97     1  0.0000000  1.2552000  3
     91    103    109    260     1  0.0000000  0.6508444  3
     94     87     88    100     1  180.0000771  2.0083200  2
     94     87     88    100     1  0.0000000  1.2552000  3
     94     87     91    103     1  180.0000771  2.0083200  2
     94     87     91    103     1  0.0000000  1.2552000  3
     94     97    106    115     1  0.0000000  0.6508444  3
    100    112    289    280     1  180.0000771  0.4184000  2
    100    112    289    280     1  0.0000000  1.6024720  3
    103    109    260    251     1  180.0000771  0.4184000  2
    103    109    260    251     1  0.0000000  1.6024720  3
    109    260    251    242     1  180.0000771  0.4184000  2
    109    260    251    242     1  0.0000000  1.6024720  3
    112    289    280    271     1  180.0000771  0.4184000  2
    112    289    280    271     1  0.0000000  1.6024720  3
    116    117    129    141     1  0.0000000  0.6508444  3
    116    120    132    138     1  0.0000000  0.6508444  3
    116    123    126    135     1  0.0000000  0.6508444  3
    117    116    120    132     1  180.0000771  2.0083200  2
    117    116    120    132     1  0.0000000  1.2552000  3
    117    116    123    126     1  180.0000771  2.0083200  2
    117    116    123    126     1  0.0000000  1.2552000  3
    117    129    141    347     1  0.0000000  0.6508444  3
    120    116    117    129     1  180.0000771  2.0083200  2
    120    116    117    129     1  0.0000000  1.2552000  3
    120    116    123    126     1  180.0000771  2.0083200  2
    120    116    123    126     1  0.0000000  1.2552000  3
    120    132    138    318     1  0.0000000  0.6508444  3
    123    116    117    129     1  180.0000771  2.0083200  2
    123    116    117    129     1  0.0000000  1.2552000  3
    123    116    120    132     1  180.0000771  2.0083200  2
    123    116    120    132     1  0.0000000  1.2552000  3
    123    126    135    144     1  0.0000000  0.6508444  3
    129    141    347    338     1  180.0000771  0.4184000  2
    129    141    347    338     1  0.0000000  1.6024720  3
    132    138    318    309     1  180.0000771  0.4184000  2
    132    138    318    309     1  0.0000000  1.6024720  3
    138    318    309    300     1  180.0000771  0.4184000  2
    138    318    309    300     1  0.0000000  1.6024720  3
    141    347    338    329     1  180.0000771  0.4184000  2
    141    347    338    329     1  0.0000000  1.6024720  3
    145    146    158    170     1  0.0000000  0.6508444  3
    145    149    161    167     1  0.0000000  0.6508444  3
    145    152    155    164     1  0.0000000  0.6508444  3
    146    145    149    161     1  180.0000771  2.0083200  2
    146    145    149    161     1  0.0000000  1.2552000  3
    146    145    152    155     1  180.0000771  2.0083200  2
    146    145    152    155     1  0.0000000  1.2552000  3
    146    158    170    405     1  0.0000000  0.6508444  3
    149    145    146    158     1  180.0000771  2.0083200  2
    149    145    146    158     1  0.0000000  1.2552000  3
    149    145    152    155     1  180.0000771  2.0083200  2
    149    145    152    155     1  0.0000000  1.2552000  3
    149    161    167    376     1  0.0000000  0.6508444  3
    152    145    146    158     1  180.0000771  2.0083200  2
    152    145    146    158     1  0.0000000  1.2552000  3
    152    145    149    161     1  180.0000771  2.0083200  2
    152    145    149    161     1  0.0000000  1.2552000  3
    152    155    164    173     1  0.0000000  0.6508444  3
    158    170    405    396     1  180.0000771  0.4184000  2
    158    170    405    396     1  0.0000000  1.6024720  3
    161    167    376    367     1  180.0000771  0.4184000  2
    161    167    376    367     1  0.0000000  1.6024720  3
    167    376    367    358     1  180.0000771  0.4184000  2
    167    376    367    358     1  0.0000000  1.6024720  3
    170    405    396    387     1  180.0000771  0.4184000  2
    170    405    396    387     1  0.0000000  1.6024720  3
    174    175    187    199     1  0.0000000  0.6508444  3
    174    178    190    196     1  0.0000000  0.6508444  3
    174    181    184    193     1  0.0000000  0.6508444  3
    175    174    178    190     1  180.0000771  2.0083200  2
    175    174    178    190     1  0.0000000  1.2552000  3
    175    174    181    184     1  180.0000771  2.0083200  2
    175    174    181    184     1  0.0000000  1.2552000  3
    175    187    199    463     1  0.0000000  0.6508444  3
    178    174    175    187     1  180.0000771  2.0083200  2
    178    174    175    187     1  0.0000000  1.2552000  3
    178    174    181    184     1  180.0000771  2.0083200  2
    178    174    181    184     1  0.0000000  1.2552000  3
    178    190    196    434     1  0.0000000  0.6508444  3
    181    174    175    187     1  180.0000771  2.0083200  2
    181    174    175    187     1  0.0000000  1.2552000  3
    181    174    178    190     1  180.0000771  2.0083200  2
    181    174    178    190     1  0.0000000  1.2552000  3
    181    184    193    202     1  0.0000000  0.6508444  3
    187    199    463    454     1  180.0000771  0.4184000  2
    187    199    463    454     1  0.0000000  1.6024720  3
    190    196    434    425     1  180.0000771  0.4184000  2
    190    196    434    425     1  0.0000000  1.6024720  3
    196    434    425    416     1  180.0000771  0.4184000  2
    196    434    425    416     1  0.0000000  1.6024720  3
    199    463    454    445     1  180.0000771  0.4184000  2
    199    463    454    445     1  0.0000000  1.6024720  3
    203    204    216    228     1  0.0000000  0.6508444  3
    203    207    219    225     1  0.0000000  0.6508444  3
    203    210    213    222     1  0.0000000  0.6508444  3
    204    203    207    219     1  180.0000771  2.0083200  2
    204    203    207    219     1  0.0000000  1.2552000  3
    204    203    210    213     1  180.0000771  2.0083200  2
    204    203    210    213     1  0.0000000  1.2552000  3
    204    216    228    521     1  0.0000000  0.6508444  3
    207    203    204    216     1  180.0000771  2.0083200  2
    207    203    204    216     1  0.0000000  1.2552000  3
    207    203    210    213     1  180.0000771  2.0083200  2
    207    203    210    213     1  0.0000000  1.2552000  3
    207    219    225    492     1  0.0000000  0.6508444  3
    210    203    204    216     1  180.0000771  2.0083200  2
    210    203    204    216     1  0.0000000  1.2552000  3
    210    203    207    219     1  180.0000771  2.0083200  2
    210    203    207    219     1  0.0000000  1.2552000  3
    210    213    222    231     1  0.0000000  0.6508444  3
    216    228    521    512     1  180.0000771  0.4184000  2
    216    228    521    512     1  0.0000000  1.6024720  3
    219    225    492    483     1  180.0000771  0.4184000  2
    219    225    492    483     1  0.0000000  1.6024720  3
    225    492    483    474     1  180.0000771  0.4184000  2
    225    492    483    474     1  0.0000000  1.6024720  3
    228    521    512    503     1  180.0000771  0.4184000  2
    228    521    512    503     1  0.0000000  1.6024720  3
    232    233    245    257     1  0.0000000  0.6508444  3
    232    236    248    254     1  0.0000000  0.6508444  3
    232    239    242    251     1  0.0000000  0.6508444  3
    233    232    236    248     1  180.0000771  2.0083200  2
    233    232    236    248     1  0.0000000  1.2552000  3
    233    232    239    242     1  180.0000771  2.0083200  2
    233    232    239    242     1  0.0000000  1.2552000  3
    233    245    257    579     1  0.0000000  0.6508444  3
    236    232    233    245     1  180.0000771  2.0083200  2
    236    232    233    245     1  0.0000000  1.2552000  3
    236    232    239    242     1  180.0000771  2.0083200  2
    236    232    239    242     1  0.0000000  1.2552000  3
    236    248    254    550     1  0.0000000  0.6508444  3
    239    232    233    245     1  180.0000771  2.0083200  2
    239    232    233    245     1  0.0000000  1.2552000  3
    239    232    236    248     1  180.0000771  2.0083200  2
    239    232    236    248     1  0.0000000  1.2552000  3
    239    242    251    260     1  0.0000000  0.6508444  3
    245    257    579    570     1  180.0000771  0.4184000  2
    245    257    579    570     1  0.0000000  1.6024720  3
    248    254    550    541     1  180.0000771  0.4184000  2
    248    254    550    541     1  0.0000000  1.6024720  3
    254    550    541    532     1  180.0000771  0.4184000  2
    254    550    541    532     1  0.0000000  1.6024720  3
    257    579    570    561     1  180.0000771  0.4184000  2
    257    579    570    561     1  0.0000000  1.6024720  3
    261    262    274    286     1  0.0000000  0.6508444  3
    261    265    277    283     1  0.0000000  0.6508444  3
    261    268    271    280     1  0.0000000  0.6508444  3
    262    261    265    277     1  180.0000771  2.0083200  2
    262    261    265    277     1  0.0000000  1.2552000  3
    262    261    268    271     1  180.0000771  2.0083200  2
    262    261    268    271     1  0.0000000  1.2552000  3
    262    274    286    637     1  0.0000000  0.6508444  3
    265    261    262    274     1  180.0000771  2.0083200  2
    265    261    262    274     1  0.0000000  1.2552000  3
    265    261    268    271     1  180.0000771  2.0083200  2
    265    261    268    271     1  0.0000000  1.2552000  3
    265    277    283    608     1  0.0000000  0.6508444  3
    268    261    262    274     1  180.0000771  2.0083200  2
    268    261    262    274     1  0.0000000  1.2552000  3
    268    261    265    277     1  180.0000771  2.0083200  2
    268    261    265    277     1  0.0000000  1.2552000  3
    268    271    280    289     1  0.0000000  0.6508444  3
    274    286    637    628     1  180.0000771  0.4184000  2
    274    286    637    628     1  0.0000000  1.6024720  3
    277    283    608    599     1  180.0000771  0.4184000  2
    277    283    608    599     1  0.0000000  1.6024720  3
    283    608    599    590     1  180.0000771  0.4184000  2
    283    608    599    590     1  0.0000000  1.6024720  3
    286    637    628    619     1  180.0000771  0.4184000  2
    286    637    628    619     1  0.0000000  1.6024720  3
    290    291    303    315     1  0.0000000  0.6508444  3
    290    294    306    312     1  0.0000000  0.6508444  3
    290    297    300    309     1  0.0000000  0.6508444  3
    291    290    294    306     1  180.0000771  2.0083200  2
    291    290    294    306     1  0.0000000  1.2552000  3
    291    290    297    300     1  180.0000771  2.0083200  2
    291    290    297    300     1  0.0000000  1.2552000  3
    291    303    315    695     1  0.0000000  0.6508444  3
    294    290    291    303     1  180.0000771  2.0083200  2
    294    290    291    303     1  0.0000000  1.2552000  3
    294    290    297    300     1  180.0000771  2.0083200  2
    294    290    297    300     1  0.0000000  1.2552000  3
    294    306    312    666     1  0.0000000  0.6508444  3
    297    290    291    303     1  180.0000771  2.0083200  2
    297    290    291    303     1  0.0000000  1.2552000  3
    297    290    294    306     1  180.0000771  2.0083200  2
    297    290    294    306     1  0.0000000  1.2552000  3
    297    300    309    318     1  0.0000000  0.6508444  3
    303    315    695    686     1  180.0000771  0.4184000  2
    303    315    695    686     1  0.0000000  1.6024720  3
    306    312    666    657     1  180.0000771  0.4184000  2
    306    312    666    657     1  0.0000000  1.6024720  3
    312    666    657    648     1  180.0000771  0.4184000  2
    312    666    657    648     1  0.0000000  1.6024720  3
    315    695    686    677     1  180.0000771  0.4184000  2
    315    695    686    677     1  0.0000000  1.6024720  3
    319    320    332    344     1  0.0000000  0.6508444  3
    319    323    335    341     1  0.0000000  0.6508444  3
    319    326    329    338     1  0.0000000  0.6508444  3
    320    319    323    335     1  180.0000771  2.0083200  2
    320    319    323    335     1  0.0000000  1.2552000  3
    320    319    326    329     1  180.0000771  2.0083200  2
    320    319    326    329     1  0.0000000  1.2552000  3
    320    332    344    753     1  0.0000000  0.6508444  3
    323    319    320    332     1  180.0000771  2.0083200  2
    323    319    320    332     1  0.0000000  1.2552000  3
    323    319    326    329     1  180.0000771  2.0083200  2
    323    319    326    329     1  0.0000000  1.2552000  3
    323    335    341    724     1  0.0000000  0.6508444  3
    326    319    320    332     1  180.0000771  2.0083200  2
    326    319    320    332     1  0.0000000  1.2552000  3
    326    319    323    335     1  180.0000771  2.0083200  2
    326    319    323    335     1  0.0000000  1.2552000  3
    326    329    338    347     1  0.0000000  0.6508444  3
    332    344    753    744     1  180.0000771  0.4184000  2
    332    344    753    744     1  0.0000000  1.6024720  3
    335    341    724    715     1  180.0000771  0.4184000  2
    335    341    724    715     1  0.0000000  1.6024720  3
    341    724    715    706     1  180.0000771  0.4184000  2
    341    724    715    706     1  0.0000000  1.6024720  3
    344    753    744    735     1  180.0000771  0.4184000  2
    344    753    744    735     1  0.0000000  1.6024720  3
    348    349    361    373     1  0.0000000  0.6508444  3
    348    352    364    370     1  0.0000000  0.6508444  3
    348    355    358    367     1  0.0000000  0.6508444  3
    349    348    352    364     1  180.0000771  2.0083200  2
    349    348    352    364     1  0.0000000  1.2552000  3
    349    348    355    358     1  180.0000771  2.0083200  2
    349    348    355    358     1  0.0000000  1.2552000  3
    349    361    373    811     1  0.0000000  0.6508444  3
    352    348    349    361     1  180.0000771  2.0083200  2
    352    348    349    361     1  0.0000000  1.2552000  3
    352    348    355    358     1  180.0000771  2.0083200  2
    352    348    355    358     1  0.0000000  1.2552000  3
    352    364    370    782     1  0.0000000  0.6508444  3
    355    348    349    361     1  180.0000771  2.0083200  2
    355    348    349    361     1  0.0000000  1.2552000  3
    355    348    352    364     1  180.0000771  2.0083200  2
    355    348    352    364     1  0.0000000  1.2552000  3
    355    358    367    376     1  0.0000000  0.6508444  3
    361    373    811    802     1  180.0000771  0.4184000  2
    361    373    811    802     1  0.0000000  1.6024720  3
    364    370    782    773     1  180.0000771  0.4184000  2
    364    370    782    773     1  0.0000000  1.6024720  3
    370    782    773    764     1  180.0000771  0.4184000  2
    370    782    773    764     1  0.0000000  1.6024720  3
    373    811    802    793     1  180.0000771  0.4184000  2
    373    811    802    793     1  0.0000000  1.6024720  3
    377    378    390    402     1  0.0000000  0.6508444  3
    377    381    393    399     1  0.0000000  0.6508444  3
    377    384    387    396     1  0.0000000  0.6508444  3
    378    377    381    393     1  180.0000771  2.0083200  2
    378    377    381    393     1  0.0000000  1.2552000  3
    378    377    384    387     1  180.0000771  2.0083200  2
    378    377    384    387     1  0.0000000  1.2552000  3
    378    390    402    869     1  0.0000000  0.6508444  3
    381    377    378    390     1  180.0000771  2.0083200  2
    381    377    378    390     1  0.0000000  1.2552000  3
    381    377    384    387     1  180.0000771  2.0083200  2
    381    377    384    387     1  0.0000000  1.2552000  3
    381    393    399    840     1  0.0000000  0.6508444  3
    384    377    378    390     1  180.0000771  2.0083200  2
    384    377    378    390     1  0.0000000  1.2552000  3
    384    377    381    393     1  180.0000771  2.0083200  2
    384    377    381    393     1  0.0000000  1.2552000  3
    384    387    396    405     1  0.0000000  0.6508444  3
    390    402    869    860     1  180.0000771  0.4184000  2
    390    402    869    860     1  0.0000000  1.6024720  3
    393    399    840    831     1  180.0000771  0.4184000  2
    393    399    840    831     1  0.0000000  1.6024720  3
    399    840    831    822     1  180.0000771  0.4184000  2
    399    840    831    822     1  0.0000000  1.6024720  3
    402    869    860    851     1  180.0000771  0.4184000  2
    402    869    860    851     1  0.0000000  1.6024720  3
    406    407    419    431     1  0.0000000  0.6508444  3
    406    410    422    428     1  0.0000000  0.6508444  3
    406    413    416    425     1  0.0000000  0.6508444  3
    407    406    410    422     1  180.0000771  2.0083200  2
    407    406    410    422     1  0.0000000  1.2552000  3
    407    406    413    416     1  180.0000771  2.0083200  2
    407    406    413    416     1  0.0000000  1.2552000  3
    407    419    431    927     1  0.0000000  0.6508444  3
    410    406    407    419     1  180.0000771  2.0083200  2
    410    406    407    419     1  0.0000000  1.2552000  3
    410    406    413    416     1  180.0000771  2.0083200  2
    410    406    413    416     1  0.0000000  1.2552000  3
    410    422    428    898     1  0.0000000  0.6508444  3
    413    406    407    419     1  180.0000771  2.0083200  2
    413    406    407    419     1  0.0000000  1.2552000  3
    413    406    410    422     1  180.0000771  2.0083200  2
    413    406    410    422     1  0.0000000  1.2552000  3
    413    416    425    434     1  0.0000000  0.6508444  3
    419    431    927    918     1  180.0000771  0.4184000  2
    419    431    927    918     1  0.0000000  1.6024720  3
    422    428    898    889     1  180.0000771  0.4184000  2
    422    428    898    889     1  0.0000000  1.6024720  3
    428    898    889    880     1  180.0000771  0.4184000  2
    428    898    889    880     1  0.0000000  1.6024720  3
    431    927    918    909     1  180.0000771  0.4184000  2
    431    927    918    909     1  0.0000000  1.6024720  3
    435    436    448    460     1  0.0000000  0.6508444  3
    435    439    451    457     1  0.0000000  0.6508444  3
    435    442    445    454     1  0.0000000  0.6508444  3
    436    435    439    451     1  180.0000771  2.0083200  2
    436    435    439    451     1  0.0000000  1.2552000  3
    436    435    442    445     1  180.0000771  2.0083200  2
    436    435    442    445     1  0.0000000  1.2552000  3
    436    448    460    985     1  0.0000000  0.6508444  3
    439    435    436    448     1  180.0000771  2.0083200  2
    439    435    436    448     1  0.0000000  1.2552000  3
    439    435    442    445     1  180.0000771  2.0083200  2
    439    435    442    445     1  0.0000000  1.2552000  3
    439    451    457    956     1  0.0000000  0.6508444  3
    442    435    436    448     1  180.0000771  2.0083200  2
    442    435    436    448     1  0.0000000  1.2552000  3
    442    435    439    451     1  180.0000771  2.0083200  2
    442    435    439    451     1  0.0000000  1.2552000  3
    442    445    454    463     1  0.0000000  0.6508444  3
    448    460    985    976     1  180.0000771  0.4184000  2
    448    460    985    976     1  0.0000000  1.6024720  3
    451    457    956    947     1  180.0000771  0.4184000  2
    451    457    956    947     1  0.0000000  1.6024720  3
    457    956    947    938     1  180.0000771  0.4184000  2
    457    956    947    938     1  0.0000000  1.6024720  3
    460    985    976    967     1  180.0000771  0.4184000  2
    460    985    976    967     1  0.0000000  1.6024720  3
    464    465    477    489     1  0.0000000  0.6508444  3
    464    468    480    486     1  0.0000000  0.6508444  3
    464    471    474    483     1  0.0000000  0.6508444  3
    465    464    468    480     1  180.0000771  2.0083200  2
    465    464    468    480     1  0.0000000  1.2552000  3
    465    464    471    474     1  180.0000771  2.0083200  2
    465    464    471    474     1  0.0000000  1.2552000  3
    465    477    489   1043     1  0.0000000  0.6508444  3
    468    464    465    477     1  180.0000771  2.0083200  2
    468    464    465    477     1  0.0000000  1.2552000  3
    468    464    471    474     1  180.0000771  2.0083200  2
    468    464    471    474     1  0.0000000  1.2552000  3
    468    480    486   1014     1  0.0000000  0.6508444  3
    471    464    465    477     1  180.0000771  2.0083200  2
    471    464    465    477     1  0.0000000  1.2552000  3
    471    464    468    480     1  180.0000771  2.0083200  2
    471    464    468    480     1  0.0000000  1.2552000  3
    471    474    483    492     1  0.0000000  0.6508444  3
    477    489   1043   1034     1  180.0000771  0.4184000  2
    477    489   1043   1034     1  0.0000000  1.6024720  3
    480    486   1014   1005     1  180.0000771  0.4184000  2
    480    486   1014   1005     1  0.0000000  1.6024720  3
    486   1014   1005    996     1  180.0000771  0.4184000  2
    486   1014   1005    996     1  0.0000000  1.6024720  3
    489   1043   1034   1025     1  180.0000771  0.4184000  2
    489   1043   1034   1025     1  0.0000000  1.6024720  3
    493    494    506    518     1  0.0000000  0.6508444  3
    493    497    509    515     1  0.0000000  0.6508444  3
    493    500    503    512     1  0.0000000  0.6508444  3
    494    493    497    509     1  180.0000771  2.0083200  2
    494    493    497    509     1  0.0000000  1.2552000  3
    494    493    500    503     1  180.0000771  2.0083200  2
    494    493    500    503     1  0.0000000  1.2552000  3
    494    506    518   1101     1  0.0000000  0.6508444  3
    497    493    494    506     1  180.0000771  2.0083200  2
    497    493    494    506     1  0.0000000  1.2552000  3
    497    493    500    503     1  180.0000771  2.0083200  2
    497    493    500    503     1  0.0000000  1.2552000  3
    497    509    515   1072     1  0.0000000  0.6508444  3
    500    493    494    506     1  180.0000771  2.0083200  2
    500    493    494    506     1  0.0000000  1.2552000  3
    500    493    497    509     1  180.0000771  2.0083200  2
    500    493    497    509     1  0.0000000  1.2552000  3
    500    503    512    521     1  0.0000000  0.6508444  3
    506    518   1101   1092     1  180.0000771  0.4184000  2
    506    518   1101   1092     1  0.0000000  1.6024720  3
    509    515   1072   1063     1  180.0000771  0.4184000  2
    509    515   1072   1063     1  0.0000000  1.6024720  3
    515   1072   1063   1054     1  180.0000771  0.4184000  2
    515   1072   1063   1054     1  0.0000000  1.6024720  3
    518   1101   1092   1083     1  180.0000771  0.4184000  2
    518   1101   1092   1083     1  0.0000000  1.6024720  3
    522    523    535    547     1  0.0000000  0.6508444  3
    522    526    538    544     1  0.0000000  0.6508444  3
    522    529    532    541     1  0.0000000  0.6508444  3
    523    522    526    538     1  180.0000771  2.0083200  2
    523    522    526    538     1  0.0000000  1.2552000  3
    523    522    529    532     1  180.0000771  2.0083200  2
    523    522    529    532     1  0.0000000  1.2552000  3
    523    535    547   1159     1  0.0000000  0.6508444  3
    526    522    523    535     1  180.0000771  2.0083200  2
    526    522    523    535     1  0.0000000  1.2552000  3
    526    522    529    532     1  180.0000771  2.0083200  2
    526    522    529    532     1  0.0000000  1.2552000  3
    526    538    544   1130     1  0.0000000  0.6508444  3
    529    522    523    535     1  180.0000771  2.0083200  2
    529    522    523    535     1  0.0000000  1.2552000  3
    529    522    526    538     1  180.0000771  2.0083200  2
    529    522    526    538     1  0.0000000  1.2552000  3
    529    532    541    550     1  0.0000000  0.6508444  3
    535    547   1159   1150     1  180.0000771  0.4184000  2
    535    547   1159   1150     1  0.0000000  1.6024720  3
    538    544   1130   1121     1  180.0000771  0.4184000  2
    538    544   1130   1121     1  0.0000000  1.6024720  3
    544   1130   1121   1112     1  180.0000771  0.4184000  2
    544   1130   1121   1112     1  0.0000000  1.6024720  3
    547   1159   1150   1141     1  180.0000771  0.4184000  2
    547   1159   1150   1141     1  0.0000000  1.6024720  3
    551    552    564    576     1  0.0000000  0.6508444  3
    551    555    567    573     1  0.0000000  0.6508444  3
    551    558    561    570     1  0.0000000  0.6508444  3
    552    551    555    567     1  180.0000771  2.0083200  2
    552    551    555    567     1  0.0000000  1.2552000  3
    552    551    558    561     1  180.0000771  2.0083200  2
    552    551    558    561     1  0.0000000  1.2552000  3
    552    564    576   1217     1  0.0000000  0.6508444  3
    555    551    552    564     1  180.0000771  2.0083200  2
    555    551    552    564     1  0.0000000  1.2552000  3
    555    551    558    561     1  180.0000771  2.0083200  2
    555    551    558    561     1  0.0000000  1.2552000  3
    555    567    573   1188     1  0.0000000  0.6508444  3
    558    551    552    564     1  180.0000771  2.0083200  2
    558    551    552    564     1  0.0000000  1.2552000  3
    558    551    555    567     1  180.0000771  2.0083200  2
    558    551    555    567     1  0.0000000  1.2552000  3
    558    561    570    579     1  0.0000000  0.6508444  3
    564    576   1217   1208     1  180.0000771  0.4184000  2
    564    576   1217   1208     1  0.0000000  1.6024720  3
    567    573   1188   1179     1  180.0000771  0.4184000  2
    567    573   1188   1179     1  0.0000000  1.6024720  3
    573   1188   1179   1170     1  180.0000771  0.4184000  2
    573   1188   1179   1170     1  0.0000000  1.6024720  3
    576   1217   1208   1199     1  180.0000771  0.4184000  2
    576   1217   1208   1199     1  0.0000000  1.6024720  3
    580    581    593    605     1  0.0000000  0.6508444  3
    580    584    596    602     1  0.0000000  0.6508444  3
    580    587    590    599     1  0.0000000  0.6508444  3
    581    580    584    596     1  180.0000771  2.0083200  2
    581    580    584    596     1  0.0000000  1.2552000  3
    581    580    587    590     1  180.0000771  2.0083200  2
    581    580    587    590     1  0.0000000  1.2552000  3
    581    593    605   1275     1  0.0000000  0.6508444  3
    584    580    581    593     1  180.0000771  2.0083200  2
    584    580    581    593     1  0.0000000  1.2552000  3
    584    580    587    590     1  180.0000771  2.0083200  2
    584    580    587    590     1  0.0000000  1.2552000  3
    584    596    602   1246     1  0.0000000  0.6508444  3
    587    580    581    593     1  180.0000771  2.0083200  2
    587    580    581    593     1  0.0000000  1.2552000  3
    587    580    584    596     1  180.0000771  2.0083200  2
    587    580    584    596     1  0.0000000  1.2552000  3
    587    590    599    608     1  0.0000000  0.6508444  3
    593    605   1275   1266     1  180.0000771  0.4184000  2
    593    605   1275   1266     1  0.0000000  1.6024720  3
    596    602   1246   1237     1  180.0000771  0.4184000  2
    596    602   1246   1237     1  0.0000000  1.6024720  3
    602   1246   1237   1228     1  180.0000771  0.4184000  2
    602   1246   1237   1228     1  0.0000000  1.6024720  3
    605   1275   1266   1257     1  180.0000771  0.4184000  2
    605   1275   1266   1257     1  0.0000000  1.6024720  3
    609    610    622    634     1  0.0000000  0.6508444  3
    609    613    625    631     1  0.0000000  0.6508444  3
    609    616    619    628     1  0.0000000  0.6508444  3
    610    609    613    625     1  180.0000771  2.0083200  2
    610    609    613    625     1  0.0000000  1.2552000  3
    610    609    616    619     1  180.0000771  2.0083200  2
    610    609    616    619     1  0.0000000  1.2552000  3
    610    622    634   1333     1  0.0000000  0.6508444  3
    613    609    610    622     1  180.0000771  2.0083200  2
    613    609    610    622     1  0.0000000  1.2552000  3
    613    609    616    619     1  180.0000771  2.0083200  2
    613    609    616    619     1  0.0000000  1.2552000  3
    613    625    631   1304     1  0.0000000  0.6508444  3
    616    609    610    622     1  180.0000771  2.0083200  2
    616    609    610    622     1  0.0000000  1.2552000  3
    616    609    613    625     1  180.0000771  2.0083200  2
    616    609    613    625     1  0.0000000  1.2552000  3
    616    619    628    637     1  0.0000000  0.6508444  3
    622    634   1333   1324     1  180.0000771  0.4184000  2
    622    634   1333   1324     1  0.0000000  1.6024720  3
    625    631   1304   1295     1  180.0000771  0.4184000  2
    625    631   1304   1295     1  0.0000000  1.6024720  3
    631   1304   1295   1286     1  180.0000771  0.4184000  2
    631   1304   1295   1286     1  0.0000000  1.6024720  3
    634   1333   1324   1315     1  180.0000771  0.4184000  2
    634   1333   1324   1315     1  0.0000000  1.6024720  3
    638    639    651    663     1  0.0000000  0.6508444  3
    638    642    654    660     1  0.0000000  0.6508444  3
    638    645    648    657     1  0.0000000  0.6508444  3
    639    638    642    654     1  180.0000771  2.0083200  2
    639    638    642    654     1  0.0000000  1.2552000  3
    639    638    645    648     1  180.0000771  2.0083200  2
    639    638    645    648     1  0.0000000  1.2552000  3
    639    651    663   1395     1  0.0000000  0.6508444  3
    642    638    639    651     1  180.0000771  2.0083200  2
    642    638    639    651     1  0.0000000  1.2552000  3
    642    638    645    648     1  180.0000771  2.0083200  2
    642    638    645    648     1  0.0000000  1.2552000  3
    642    654    660   1364     1  0.0000000  0.6508444  3
    645    638    639    651     1  180.0000771  2.0083200  2
    645    638    639    651     1  0.0000000  1.2552000  3
    645    638    642    654     1  180.0000771  2.0083200  2
    645    638    642    654     1  0.0000000  1.2552000  3
    645    648    657    666     1  0.0000000  0.6508444  3
    651    663   1395   1365     1  180.0000771  0.4184000  2
    651    663   1395   1365     1  0.0000000  1.6024720  3
    654    660   1364   1334     1  180.0000771  0.4184000  2
    654    660   1364   1334     1  0.0000000  1.6024720  3
    660   1364   1334   1337     1  180.0000771  0.4184000  2
    660   1364   1334   1337     1  0.0000000  1.6024720  3
    663   1395   1365   1368     1  180.0000771  0.4184000  2
    663   1395   1365   1368     1  0.0000000  1.6024720  3
    667    668    680    692     1  0.0000000  0.6508444  3
    667    671    683    689     1  0.0000000  0.6508444  3
    667    674    677    686     1  0.0000000  0.6508444  3
    668    667    671    683     1  180.0000771  2.0083200  2
    668    667    671    683     1  0.0000000  1.2552000  3
    668    667    674    677     1  180.0000771  2.0083200  2
    668    667    674    677     1  0.0000000  1.2552000  3
    668    680    692   1457     1  0.0000000  0.6508444  3
    671    667    668    680     1  180.0000771  2.0083200  2
    671    667    668    680     1  0.0000000  1.2552000  3
    671    667    674    677     1  180.0000771  2.0083200  2
    671    667    674    677     1  0.0000000  1.2552000  3
    671    683    689   1426     1  0.0000000  0.6508444  3
    674    667    668    680     1  180.0000771  2.0083200  2
    674    667    668    680     1  0.0000000  1.2552000  3
    674    667    671    683     1  180.0000771  2.0083200  2
    674    667    671    683     1  0.0000000  1.2552000  3
    674    677    686    695     1  0.0000000  0.6508444  3
    680    692   1457   1427     1  180.0000771  0.4184000  2
    680    692   1457   1427     1  0.0000000  1.6024720  3
    683    689   1426   1396     1  180.0000771  0.4184000  2
    683    689   1426   1396     1  0.0000000  1.6024720  3
    689   1426   1396   1399     1  180.0000771  0.4184000  2
    689   1426   1396   1399     1  0.0000000  1.6024720  3
    692   1457   1427   1430     1  180.0000771  0.4184000  2
    692   1457   1427   1430     1  0.0000000  1.6024720  3
    696    697    709    721     1  0.0000000  0.6508444  3
    696    700    712    718     1  0.0000000  0.6508444  3
    696    703    706    715     1  0.0000000  0.6508444  3
    697    696    700    712     1  180.0000771  2.0083200  2
    697    696    700    712     1  0.0000000  1.2552000  3
    697    696    703    706     1  180.0000771  2.0083200  2
    697    696    703    706     1  0.0000000  1.2552000  3
    697    709    721   1519     1  0.0000000  0.6508444  3
    700    696    697    709     1  180.0000771  2.0083200  2
    700    696    697    709     1  0.0000000  1.2552000  3
    700    696    703    706     1  180.0000771  2.0083200  2
    700    696    703    706     1  0.0000000  1.2552000  3
    700    712    718   1488     1  0.0000000  0.6508444  3
    703    696    697    709     1  180.0000771  2.0083200  2
    703    696    697    709     1  0.0000000  1.2552000  3
    703    696    700    712     1  180.0000771  2.0083200  2
    703    696    700    712     1  0.0000000  1.2552000  3
    703    706    715    724     1  0.0000000  0.6508444  3
    709    721   1519   1489     1  180.0000771  0.4184000  2
    709    721   1519   1489     1  0.0000000  1.6024720  3
    712    718   1488   1458     1  180.0000771  0.4184000  2
    712    718   1488   1458     1  0.0000000  1.6024720  3
    718   1488   1458   1461     1  180.0000771  0.4184000  2
    718   1488   1458   1461     1  0.0000000  1.6024720  3
    721   1519   1489   1492     1  180.0000771  0.4184000  2
    721   1519   1489   1492     1  0.0000000  1.6024720  3
    725    726    738    750     1  0.0000000  0.6508444  3
    725    729    741    747     1  0.0000000  0.6508444  3
    725    732    735    744     1  0.0000000  0.6508444  3
    726    725    729    741     1  180.0000771  2.0083200  2
    726    725    729    741     1  0.0000000  1.2552000  3
    726    725    732    735     1  180.0000771  2.0083200  2
    726    725    732    735     1  0.0000000  1.2552000  3
    726    738    750   1581     1  0.0000000  0.6508444  3
    729    725    726    738     1  180.0000771  2.0083200  2
    729    725    726    738     1  0.0000000  1.2552000  3
    729    725    732    735     1  180.0000771  2.0083200  2
    729    725    732    735     1  0.0000000  1.2552000  3
    729    741    747   1550     1  0.0000000  0.6508444  3
    732    725    726    738     1  180.0000771  2.0083200  2
    732    725    726    738     1  0.0000000  1.2552000  3
    732    725    729    741     1  180.0000771  2.0083200  2
    732    725    729    741     1  0.0000000  1.2552000  3
    732    735    744    753     1  0.0000000  0.6508444  3
    738    750   1581   1551     1  180.0000771  0.4184000  2
    738    750   1581   1551     1  0.0000000  1.6024720  3
    741    747   1550   1520     1  180.0000771  0.4184000  2
    741    747   1550   1520     1  0.0000000  1.6024720  3
    747   1550   1520   1523     1  180.0000771  0.4184000  2
    747   1550   1520   1523     1  0.0000000  1.6024720  3
    750   1581   1551   1554     1  180.0000771  0.4184000  2
    750   1581   1551   1554     1  0.0000000  1.6024720  3
    754    755    767    779     1  0.0000000  0.6508444  3
    754    758    770    776     1  0.0000000  0.6508444  3
    754    761    764    773     1  0.0000000  0.6508444  3
    755    754    758    770     1  180.0000771  2.0083200  2
    755    754    758    770     1  0.0000000  1.2552000  3
    755    754    761    764     1  180.0000771  2.0083200  2
    755    754    761    764     1  0.0000000  1.2552000  3
    755    767    779   1643     1  0.0000000  0.6508444  3
    758    754    755    767     1  180.0000771  2.0083200  2
    758    754    755    767     1  0.0000000  1.2552000  3
    758    754    761    764     1  180.0000771  2.0083200  2
    758    754    761    764     1  0.0000000  1.2552000  3
    758    770    776   1612     1  0.0000000  0.6508444  3
    761    754    755    767     1  180.0000771  2.0083200  2
    761    754    755    767     1  0.0000000  1.2552000  3
    761    754    758    770     1  180.0000771  2.0083200  2
    761    754    758    770     1  0.0000000  1.2552000  3
    761    764    773    782     1  0.0000000  0.6508444  3
    767    779   1643   1613     1  180.0000771  0.4184000  2
    767    779   1643   1613     1  0.0000000  1.6024720  3
    770    776   1612   1582     1  180.0000771  0.4184000  2
    770    776   1612   1582     1  0.0000000  1.6024720  3
    776   1612   1582   1585     1  180.0000771  0.4184000  2
    776   1612   1582   1585     1  0.0000000  1.6024720  3
    779   1643   1613   1616     1  180.0000771  0.4184000  2
    779   1643   1613   1616     1  0.0000000  1.6024720  3
    783    784    796    808     1  0.0000000  0.6508444  3
    783    787    799    805     1  0.0000000  0.6508444  3
    783    790    793    802     1  0.0000000  0.6508444  3
    784    783    787    799     1  180.0000771  2.0083200  2
    784    783    787    799     1  0.0000000  1.2552000  3
    784    783    790    793     1  180.0000771  2.0083200  2
    784    783    790    793     1  0.0000000  1.2552000  3
    784    796    808   1705     1  0.0000000  0.6508444  3
    787    783    784    796     1  180.0000771  2.0083200  2
    787    783    784    796     1  0.0000000  1.2552000  3
    787    783    790    793     1  180.0000771  2.0083200  2
    787    783    790    793     1  0.0000000  1.2552000  3
    787    799    805   1674     1  0.0000000  0.6508444  3
    790    783    784    796     1  180.0000771  2.0083200  2
    790    783    784    796     1  0.0000000  1.2552000  3
    790    783    787    799     1  180.0000771  2.0083200  2
    790    783    787    799     1  0.0000000  1.2552000  3
    790    793    802    811     1  0.0000000  0.6508444  3
    796    808   1705   1675     1  180.0000771  0.4184000  2
    796    808   1705   1675     1  0.0000000  1.6024720  3
    799    805   1674   1644     1  180.0000771  0.4184000  2
    799    805   1674   1644     1  0.0000000  1.6024720  3
    805   1674   1644   1647     1  180.0000771  0.4184000  2
    805   1674   1644   1647     1  0.0000000  1.6024720  3
    808   1705   1675   1678     1  180.0000771  0.4184000  2
    808   1705   1675   1678     1  0.0000000  1.6024720  3
    812    813    825    837     1  0.0000000  0.6508444  3
    812    816    828    834     1  0.0000000  0.6508444  3
    812    819    822    831     1  0.0000000  0.6508444  3
    813    812    816    828     1  180.0000771  2.0083200  2
    813    812    816    828     1  0.0000000  1.2552000  3
    813    812    819    822     1  180.0000771  2.0083200  2
    813    812    819    822     1  0.0000000  1.2552000  3
    813    825    837   1767     1  0.0000000  0.6508444  3
    816    812    813    825     1  180.0000771  2.0083200  2
    816    812    813    825     1  0.0000000  1.2552000  3
    816    812    819    822     1  180.0000771  2.0083200  2
    816    812    819    822     1  0.0000000  1.2552000  3
    816    828    834   1736     1  0.0000000  0.6508444  3
    819    812    813    825     1  180.0000771  2.0083200  2
    819    812    813    825     1  0.0000000  1.2552000  3
    819    812    816    828     1  180.0000771  2.0083200  2
    819    812    816    828     1  0.0000000  1.2552000  3
    819    822    831    840     1  0.0000000  0.6508444  3
    825    837   1767   1737     1  180.0000771  0.4184000  2
    825    837   1767   1737     1  0.0000000  1.6024720  3
    828    834   1736   1706     1  180.0000771  0.4184000  2
    828    834   1736   1706     1  0.0000000  1.6024720  3
    834   1736   1706   1709     1  180.0000771  0.4184000  2
    834   1736   1706   1709     1  0.0000000  1.6024720  3
    837   1767   1737   1740     1  180.0000771  0.4184000  2
    837   1767   1737   1740     1  0.0000000  1.6024720  3
    841    842    854    866     1  0.0000000  0.6508444  3
    841    845    857    863     1  0.0000000  0.6508444  3
    841    848    851    860     1  0.0000000  0.6508444  3
    842    841    845    857     1  180.0000771  2.0083200  2
    842    841    845    857     1  0.0000000  1.2552000  3
    842    841    848    851     1  180.0000771  2.0083200  2
    842    841    848    851     1  0.0000000  1.2552000  3
    842    854    866   1829     1  0.0000000  0.6508444  3
    845    841    842    854     1  180.0000771  2.0083200  2
    845    841    842    854     1  0.0000000  1.2552000  3
    845    841    848    851     1  180.0000771  2.0083200  2
    845    841    848    851     1  0.0000000  1.2552000  3
    845    857    863   1798     1  0.0000000  0.6508444  3
    848    841    842    854     1  180.0000771  2.0083200  2
    848    841    842    854     1  0.0000000  1.2552000  3
    848    841    845    857     1  180.0000771  2.0083200  2
    848    841    845    857     1  0.0000000  1.2552000  3
    848    851    860    869     1  0.0000000  0.6508444  3
    854    866   1829   1799     1  180.0000771  0.4184000  2
    854    866   1829   1799     1  0.0000000  1.6024720  3
    857    863   1798   1768     1  180.0000771  0.4184000  2
    857    863   1798   1768     1  0.0000000  1.6024720  3
    863   1798   1768   1771     1  180.0000771  0.4184000  2
    863   1798   1768   1771     1  0.0000000  1.6024720  3
    866   1829   1799   1802     1  180.0000771  0.4184000  2
    866   1829   1799   1802     1  0.0000000  1.6024720  3
    870    871    883    895     1  0.0000000  0.6508444  3
    870    874    886    892     1  0.0000000  0.6508444  3
    870    877    880    889     1  0.0000000  0.6508444  3
    871    870    874    886     1  180.0000771  2.0083200  2
    871    870    874    886     1  0.0000000  1.2552000  3
    871    870    877    880     1  180.0000771  2.0083200  2
    871    870    877    880     1  0.0000000  1.2552000  3
    871    883    895   1891     1  0.0000000  0.6508444  3
    874    870    871    883     1  180.0000771  2.0083200  2
    874    870    871    883     1  0.0000000  1.2552000  3
    874    870    877    880     1  180.0000771  2.0083200  2
    874    870    877    880     1  0.0000000  1.2552000  3
    874    886    892   1860     1  0.0000000  0.6508444  3
    877    870    871    883     1  180.0000771  2.0083200  2
    877    870    871    883     1  0.0000000  1.2552000  3
    877    870    874    886     1  180.0000771  2.0083200  2
    877    870    874    886     1  0.0000000  1.2552000  3
    877    880    889    898     1  0.0000000  0.6508444  3
    883    895   1891   1861     1  180.0000771  0.4184000  2
    883    895   1891   1861     1  0.0000000  1.6024720  3
    886    892   1860   1830     1  180.0000771  0.4184000  2
    886    892   1860   1830     1  0.0000000  1.6024720  3
    892   1860   1830   1833     1  180.0000771  0.4184000  2
    892   1860   1830   1833     1  0.0000000  1.6024720  3
    895   1891   1861   1864     1  180.0000771  0.4184000  2
    895   1891   1861   1864     1  0.0000000  1.6024720  3
    899    900    912    924     1  0.0000000  0.6508444  3
    899    903    915    921     1  0.0000000  0.6508444  3
    899    906    909    918     1  0.0000000  0.6508444  3
    900    899    903    915     1  180.0000771  2.0083200  2
    900    899    903    915     1  0.0000000  1.2552000  3
    900    899    906    909     1  180.0000771  2.0083200  2
    900    899    906    909     1  0.0000000  1.2552000  3
    900    912    924   1953     1  0.0000000  0.6508444  3
    903    899    900    912     1  180.0000771  2.0083200  2
    903    899    900    912     1  0.0000000  1.2552000  3
    903    899    906    909     1  180.0000771  2.0083200  2
    903    899    906    909     1  0.0000000  1.2552000  3
    903    915    921   1922     1  0.0000000  0.6508444  3
    906    899    900    912     1  180.0000771  2.0083200  2
    906    899    900    912     1  0.0000000  1.2552000  3
    906    899    903    915     1  180.0000771  2.0083200  2
    906    899    903    915     1  0.0000000  1.2552000  3
    906    909    918    927     1  0.0000000  0.6508444  3
    912    924   1953   1923     1  180.0000771  0.4184000  2
    912    924   1953   1923     1  0.0000000  1.6024720  3
    915    921   1922   1892     1  180.0000771  0.4184000  2
    915    921   1922   1892     1  0.0000000  1.6024720  3
    921   1922   1892   1895     1  180.0000771  0.4184000  2
    921   1922   1892   1895     1  0.0000000  1.6024720  3
    924   1953   1923   1926     1  180.0000771  0.4184000  2
    924   1953   1923   1926     1  0.0000000  1.6024720  3
    928    929    941    953     1  0.0000000  0.6508444  3
    928    932    944    950     1  0.0000000  0.6508444  3
    928    935    938    947     1  0.0000000  0.6508444  3
    929    928    932    944     1  180.0000771  2.0083200  2
    929    928    932    944     1  0.0000000  1.2552000  3
    929    928    935    938     1  180.0000771  2.0083200  2
    929    928    935    938     1  0.0000000  1.2552000  3
    929    941    953   2015     1  0.0000000  0.6508444  3
    932    928    929    941     1  180.0000771  2.0083200  2
    932    928    929    941     1  0.0000000  1.2552000  3
    932    928    935    938     1  180.0000771  2.0083200  2
    932    928    935    938     1  0.0000000  1.2552000  3
    932    944    950   1984     1  0.0000000  0.6508444  3
    935    928    929    941     1  180.0000771  2.0083200  2
    935    928    929    941     1  0.0000000  1.2552000  3
    935    928    932    944     1  180.0000771  2.0083200  2
    935    928    932    944     1  0.0000000  1.2552000  3
    935    938    947    956     1  0.0000000  0.6508444  3
    941    953   2015   1985     1  180.0000771  0.4184000  2
    941    953   2015   1985     1  0.0000000  1.6024720  3
    944    950   1984   1954     1  180.0000771  0.4184000  2
    944    950   1984   1954     1  0.0000000  1.6024720  3
    950   1984   1954   1957     1  180.0000771  0.4184000  2
    950   1984   1954   1957     1  0.0000000  1.6024720  3
    953   2015   1985   1988     1  180.0000771  0.4184000  2
    953   2015   1985   1988     1  0.0000000  1.6024720  3
    957    958    970    982     1  0.0000000  0.6508444  3
    957    961    973    979     1  0.0000000  0.6508444  3
    957    964    967    976     1  0.0000000  0.6508444  3
    958    957    961    973     1  180.0000771  2.0083200  2
    958    957    961    973     1  0.0000000  1.2552000  3
    958    957    964    967     1  180.0000771  2.0083200  2
    958    957    964    967     1  0.0000000  1.2552000  3
    958    970    982   2077     1  0.0000000  0.6508444  3
    961    957    958    970     1  180.0000771  2.0083200  2
    961    957    958    970     1  0.0000000  1.2552000  3
    961    957    964    967     1  180.0000771  2.0083200  2
    961    957    964    967     1  0.0000000  1.2552000  3
    961    973    979   2046     1  0.0000000  0.6508444  3
    964    957    958    970     1  180.0000771  2.0083200  2
    964    957    958    970     1  0.0000000  1.2552000  3
    964    957    961    973     1  180.0000771  2.0083200  2
    964    957    961    973     1  0.0000000  1.2552000  3
    964    967    976    985     1  0.0000000  0.6508444  3
    970    982   2077   2047     1  180.0000771  0.4184000  2
    970    982   2077   2047     1  0.0000000  1.6024720  3
    973    979   2046   2016     1  180.0000771  0.4184000  2
    973    979   2046   2016     1  0.0000000  1.6024720  3
    979   2046   2016   2019     1  180.0000771  0.4184000  2
    979   2046   2016   2019     1  0.0000000  1.6024720  3
    982   2077   2047   2050     1  180.0000771  0.4184000  2
    982   2077   2047   2050     1  0.0000000  1.6024720  3
    986    987    999   1011     1  0.0000000  0.6508444  3
    986    990   1002   1008     1  0.0000000  0.6508444  3
    986    993    996   1005     1  0.0000000  0.6508444  3
    987    986    990   1002     1  180.0000771  2.0083200  2
    987    986    990   1002     1  0.0000000  1.2552000  3
    987    986    993    996     1  180.0000771  2.0083200  2
    987    986    993    996     1  0.0000000  1.2552000  3
    987    999   1011   2139     1  0.0000000  0.6508444  3
    990    986    987    999     1  180.0000771  2.0083200  2
    990    986    987    999     1  0.0000000  1.2552000  3
    990    986    993    996     1  180.0000771  2.0083200  2
    990    986    993    996     1  0.0000000  1.2552000  3
    990   1002   1008   2108     1  0.0000000  0.6508444  3
    993    986    987    999     1  180.0000771  2.0083200  2
    993    986    987    999     1  0.0000000  1.2552000  3
    993    986    990   1002     1  180.0000771  2.0083200  2
    993    986    990   1002     1  0.0000000  1.2552000  3
    993    996   1005   1014     1  0.0000000  0.6508444  3
    999   1011   2139   2109     1  180.0000771  0.4184000  2
    999   1011   2139   2109     1  0.0000000  1.6024720  3
   1002   1008   2108   2078     1  180.0000771  0.4184000  2
   1002   1008   2108   2078     1  0.0000000  1.6024720  3
   1008   2108   2078   2081     1  180.0000771  0.4184000  2
   1008   2108   2078   2081     1  0.0000000  1.6024720  3
   1011   2139   2109   2112     1  180.0000771  0.4184000  2
   1011   2139   2109   2112     1  0.0000000  1.6024720  3
   1015   1016   1028   1040     1  0.0000000  0.6508444  3
   1015   1019   1031   1037     1  0.0000000  0.6508444  3
   1015   1022   1025   1034     1  0.0000000  0.6508444  3
   1016   1015   1019   1031     1  180.0000771  2.0083200  2
   1016   1015   1019   1031     1  0.0000000  1.2552000  3
   1016   1015   1022   1025     1  180.0000771  2.0083200  2
   1016   1015   1022   1025     1  0.0000000  1.2552000  3
   1016   1028   1040   2201     1  0.0000000  0.6508444  3
   1019   1015   1016   1028     1  180.0000771  2.0083200  2
   1019   1015   1016   1028     1  0.0000000  1.2552000  3
   1019   1015   1022   1025     1  180.0000771  2.0083200  2
   1019   1015   1022   1025     1  0.0000000  1.2552000  3
   1019   1031   1037   2170     1  0.0000000  0.6508444  3
   1022   1015   1016   1028     1  180.0000771  2.0083200  2
   1022   1015   1016   1028     1  0.0000000  1.2552000  3
   1022   1015   1019   1031     1  180.0000771  2.0083200  2
   1022   1015   1019   1031     1  0.0000000  1.2552000  3
   1022   1025   1034   1043     1  0.0000000  0.6508444  3
   1028   1040   2201   2171     1  180.0000771  0.4184000  2
   1028   1040   2201   2171     1  0.0000000  1.6024720  3
   1031   1037   2170   2140     1  180.0000771  0.4184000  2
   1031   1037   2170   2140     1  0.0000000  1.6024720  3
   1037   2170   2140   2143     1  180.0000771  0.4184000  2
   1037   2170   2140   2143     1  0.0000000  1.6024720  3
   1040   2201   2171   2174     1  180.0000771  0.4184000  2
   1040   2201   2171   2174     1  0.0000000  1.6024720  3
   1044   1045   1057   1069     1  0.0000000  0.6508444  3
   1044   1048   1060   1066     1  0.0000000  0.6508444  3
   1044   1051   1054   1063     1  0.0000000  0.6508444  3
   1045   1044   1048   1060     1  180.0000771  2.0083200  2
   1045   1044   1048   1060     1  0.0000000  1.2552000  3
   1045   1044   1051   1054     1  180.0000771  2.0083200  2
   1045   1044   1051   1054     1  0.0000000  1.2552000  3
   1045   1057   1069   2263     1  0.0000000  0.6508444  3
   1048   1044   1045   1057     1  180.0000771  2.0083200  2
   1048   1044   1045   1057     1  0.0000000  1.2552000  3
   1048   1044   1051   1054     1  180.0000771  2.0083200  2
   1048   1044   1051   1054     1  0.0000000  1.2552000  3
   1048   1060   1066   2232     1  0.0000000  0.6508444  3
   1051   1044   1045   1057     1  180.0000771  2.0083200  2
   1051   1044   1045   1057     1  0.0000000  1.2552000  3
   1051   1044   1048   1060     1  180.0000771  2.0083200  2
   1051   1044   1048   1060     1  0.0000000  1.2552000  3
   1051   1054   1063   1072     1  0.0000000  0.6508444  3
   1057   1069   2263   2233     1  180.0000771  0.4184000  2
   1057   1069   2263   2233     1  0.0000000  1.6024720  3
   1060   1066   2232   2202     1  180.0000771  0.4184000  2
   1060   1066   2232   2202     1  0.0000000  1.6024720  3
   1066   2232   2202   2205     1  180.0000771  0.4184000  2
   1066   2232   2202   2205     1  0.0000000  1.6024720  3
   1069   2263   2233   2236     1  180.0000771  0.4184000  2
   1069   2263   2233   2236     1  0.0000000  1.6024720  3
   1073   1074   1086   1098     1  0.0000000  0.6508444  3
   1073   1077   1089   1095     1  0.0000000  0.6508444  3
   1073   1080   1083   1092     1  0.0000000  0.6508444  3
   1074   1073   1077   1089     1  180.0000771  2.0083200  2
   1074   1073   1077   1089     1  0.0000000  1.2552000  3
   1074   1073   1080   1083     1  180.0000771  2.0083200  2
   1074   1073   1080   1083     1  0.0000000  1.2552000  3
   1074   1086   1098   2325     1  0.0000000  0.6508444  3
   1077   1073   1074   1086     1  180.0000771  2.0083200  2
   1077   1073   1074   1086     1  0.0000000  1.2552000  3
   1077   1073   1080   1083     1  180.0000771  2.0083200  2
   1077   1073   1080   1083     1  0.0000000  1.2552000  3
   1077   1089   1095   2294     1  0.0000000  0.6508444  3
   1080   1073   1074   1086     1  180.0000771  2.0083200  2
   1080   1073   1074   1086     1  0.0000000  1.2552000  3
   1080   1073   1077   1089     1  180.0000771  2.0083200  2
   1080   1073   1077   1089     1  0.0000000  1.2552000  3
   1080   1083   1092   1101     1  0.0000000  0.6508444  3
   1086   1098   2325   2295     1  180.0000771  0.4184000  2
   1086   1098   2325   2295     1  0.0000000  1.6024720  3
   1089   1095   2294   2264     1  180.0000771  0.4184000  2
   1089   1095   2294   2264     1  0.0000000  1.6024720  3
   1095   2294   2264   2267     1  180.0000771  0.4184000  2
   1095   2294   2264   2267     1  0.0000000  1.6024720  3
   1098   2325   2295   2298     1  180.0000771  0.4184000  2
   1098   2325   2295   2298     1  0.0000000  1.6024720  3
   1102   1103   1115   1127     1  0.0000000  0.6508444  3
   1102   1106   1118   1124     1  0.0000000  0.6508444  3
   1102   1109   1112   1121     1  0.0000000  0.6508444  3
   1103   1102   1106   1118     1  180.0000771  2.0083200  2
   1103   1102   1106   1118     1  0.0000000  1.2552000  3
   1103   1102   1109   1112     1  180.0000771  2.0083200  2
   1103   1102   1109   1112     1  0.0000000  1.2552000  3
   1103   1115   1127   2387     1  0.0000000  0.6508444  3
   1106   1102   1103   1115     1  180.0000771  2.0083200  2
   1106   1102   1103   1115     1  0.0000000  1.2552000  3
   1106   1102   1109   1112     1  180.0000771  2.0083200  2
   1106   1102   1109   1112     1  0.0000000  1.2552000  3
   1106   1118   1124   2356     1  0.0000000  0.6508444  3
   1109   1102   1103   1115     1  180.0000771  2.0083200  2
   1109   1102   1103   1115     1  0.0000000  1.2552000  3
   1109   1102   1106   1118     1  180.0000771  2.0083200  2
   1109   1102   1106   1118     1  0.0000000  1.2552000  3
   1109   1112   1121   1130     1  0.0000000  0.6508444  3
   1115   1127   2387   2357     1  180.0000771  0.4184000  2
   1115   1127   2387   2357     1  0.0000000  1.6024720  3
   1118   1124   2356   2326     1  180.0000771  0.4184000  2
   1118   1124   2356   2326     1  0.0000000  1.6024720  3
   1124   2356   2326   2329     1  180.0000771  0.4184000  2
   1124   2356   2326   2329     1  0.0000000  1.6024720  3
   1127   2387   2357   2360     1  180.0000771  0.4184000  2
   1127   2387   2357   2360     1  0.0000000  1.6024720  3
   1131   1132   1144   1156     1  0.0000000  0.6508444  3
   1131   1135   1147   1153     1  0.0000000  0.6508444  3
   1131   1138   1141   1150     1  0.0000000  0.6508444  3
   1132   1131   1135   1147     1  180.0000771  2.0083200  2
   1132   1131   1135   1147     1  0.0000000  1.2552000  3
   1132   1131   1138   1141     1  180.0000771  2.0083200  2
   1132   1131   1138   1141     1  0.0000000  1.2552000  3
   1132   1144   1156   2449     1  0.0000000  0.6508444  3
   1135   1131   1132   1144     1  180.0000771  2.0083200  2
   1135   1131   1132   1144     1  0.0000000  1.2552000  3
   1135   1131   1138   1141     1  180.0000771  2.0083200  2
   1135   1131   1138   1141     1  0.0000000  1.2552000  3
   1135   1147   1153   2418     1  0.0000000  0.6508444  3
   1138   1131   1132   1144     1  180.0000771  2.0083200  2
   1138   1131   1132   1144     1  0.0000000  1.2552000  3
   1138   1131   1135   1147     1  180.0000771  2.0083200  2
   1138   1131   1135   1147     1  0.0000000  1.2552000  3
   1138   1141   1150   1159     1  0.0000000  0.6508444  3
   1144   1156   2449   2419     1  180.0000771  0.4184000  2
   1144   1156   2449   2419     1  0.0000000  1.6024720  3
   1147   1153   2418   2388     1  180.0000771  0.4184000  2
   1147   1153   2418   2388     1  0.0000000  1.6024720  3
   1153   2418   2388   2391     1  180.0000771  0.4184000  2
   1153   2418   2388   2391     1  0.0000000  1.6024720  3
   1156   2449   2419   2422     1  180.0000771  0.4184000  2
   1156   2449   2419   2422     1  0.0000000  1.6024720  3
   1160   1161   1173   1185     1  0.0000000  0.6508444  3
   1160   1164   1176   1182     1  0.0000000  0.6508444  3
   1160   1167   1170   1179     1  0.0000000  0.6508444  3
   1161   1160   1164   1176     1  180.0000771  2.0083200  2
   1161   1160   1164   1176     1  0.0000000  1.2552000  3
   1161   1160   1167   1170     1  180.0000771  2.0083200  2
   1161   1160   1167   1170     1  0.0000000  1.2552000  3
   1161   1173   1185   2511     1  0.0000000  0.6508444  3
   1164   1160   1161   1173     1  180.0000771  2.0083200  2
   1164   1160   1161   1173     1  0.0000000  1.2552000  3
   1164   1160   1167   1170     1  180.0000771  2.0083200  2
   1164   1160   1167   1170     1  0.0000000  1.2552000  3
   1164   1176   1182   2480     1  0.0000000  0.6508444  3
   1167   1160   1161   1173     1  180.0000771  2.0083200  2
   1167   1160   1161   1173     1  0.0000000  1.2552000  3
   1167   1160   1164   1176     1  180.0000771  2.0083200  2
   1167   1160   1164   1176     1  0.0000000  1.2552000  3
   1167   1170   1179   1188     1  0.0000000  0.6508444  3
   1173   1185   2511   2481     1  180.0000771  0.4184000  2
   1173   1185   2511   2481     1  0.0000000  1.6024720  3
   1176   1182   2480   2450     1  180.0000771  0.4184000  2
   1176   1182   2480   2450     1  0.0000000  1.6024720  3
   1182   2480   2450   2453     1  180.0000771  0.4184000  2
   1182   2480   2450   2453     1  0.0000000  1.6024720  3
   1185   2511   2481   2484     1  180.0000771  0.4184000  2
   1185   2511   2481   2484     1  0.0000000  1.6024720  3
   1189   1190   1202   1214     1  0.0000000  0.6508444  3
   1189   1193   1205   1211     1  0.0000000  0.6508444  3
   1189   1196   1199   1208     1  0.0000000  0.6508444  3
   1190   1189   1193   1205     1  180.0000771  2.0083200  2
   1190   1189   1193   1205     1  0.0000000  1.2552000  3
   1190   1189   1196   1199     1  180.0000771  2.0083200  2
   1190   1189   1196   1199     1  0.0000000  1.2552000  3
   1190   1202   1214   2573     1  0.0000000  0.6508444  3
   1193   1189   1190   1202     1  180.0000771  2.0083200  2
   1193   1189   1190   1202     1  0.0000000  1.2552000  3
   1193   1189   1196   1199     1  180.0000771  2.0083200  2
   1193   1189   1196   1199     1  0.0000000  1.2552000  3
   1193   1205   1211   2542     1  0.0000000  0.6508444  3
   1196   1189   1190   1202     1  180.0000771  2.0083200  2
   1196   1189   1190   1202     1  0.0000000  1.2552000  3
   1196   1189   1193   1205     1  180.0000771  2.0083200  2
   1196   1189   1193   1205     1  0.0000000  1.2552000  3
   1196   1199   1208   1217     1  0.0000000  0.6508444  3
   1202   1214   2573   2543     1  180.0000771  0.4184000  2
   1202   1214   2573   2543     1  0.0000000  1.6024720  3
   1205   1211   2542   2512     1  180.0000771  0.4184000  2
   1205   1211   2542   2512     1  0.0000000  1.6024720  3
   1211   2542   2512   2515     1  180.0000771  0.4184000  2
   1211   2542   2512   2515     1  0.0000000  1.6024720  3
   1214   2573   2543   2546     1  180.0000771  0.4184000  2
   1214   2573   2543   2546     1  0.0000000  1.6024720  3
   1218   1219   1231   1243     1  0.0000000  0.6508444  3
   1218   1222   1234   1240     1  0.0000000  0.6508444  3
   1218   1225   1228   1237     1  0.0000000  0.6508444  3
   1219   1218   1222   1234     1  180.0000771  2.0083200  2
   1219   1218   1222   1234     1  0.0000000  1.2552000  3
   1219   1218   1225   1228     1  180.0000771  2.0083200  2
   1219   1218   1225   1228     1  0.0000000  1.2552000  3
   1219   1231   1243   2635     1  0.0000000  0.6508444  3
   1222   1218   1219   1231     1  180.0000771  2.0083200  2
   1222   1218   1219   1231     1  0.0000000  1.2552000  3
   1222   1218   1225   1228     1  180.0000771  2.0083200  2
   1222   1218   1225   1228     1  0.0000000  1.2552000  3
   1222   1234   1240   2604     1  0.0000000  0.6508444  3
   1225   1218   1219   1231     1  180.0000771  2.0083200  2
   1225   1218   1219   1231     1  0.0000000  1.2552000  3
   1225   1218   1222   1234     1  180.0000771  2.0083200  2
   1225   1218   1222   1234     1  0.0000000  1.2552000  3
   1225   1228   1237   1246     1  0.0000000  0.6508444  3
   1231   1243   2635   2605     1  180.0000771  0.4184000  2
   1231   1243   2635   2605     1  0.0000000  1.6024720  3
   1234   1240   2604   2574     1  180.0000771  0.4184000  2
   1234   1240   2604   2574     1  0.0000000  1.6024720  3
   1240   2604   2574   2577     1  180.0000771  0.4184000  2
   1240   2604   2574   2577     1  0.0000000  1.6024720  3
   1243   2635   2605   2608     1  180.0000771  0.4184000  2
   1243   2635   2605   2608     1  0.0000000  1.6024720  3
   1247   1248   1260   1272     1  0.0000000  0.6508444  3
   1247   1251   1263   1269     1  0.0000000  0.6508444  3
   1247   1254   1257   1266     1  0.0000000  0.6508444  3
   1248   1247   1251   1263     1  180.0000771  2.0083200  2
   1248   1247   1251   1263     1  0.0000000  1.2552000  3
   1248   1247   1254   1257     1  180.0000771  2.0083200  2
   1248   1247   1254   1257     1  0.0000000  1.2552000  3
   1248   1260   1272   2697     1  0.0000000  0.6508444  3
   1251   1247   1248   1260     1  180.0000771  2.0083200  2
   1251   1247   1248   1260     1  0.0000000  1.2552000  3
   1251   1247   1254   1257     1  180.0000771  2.0083200  2
   1251   1247   1254   1257     1  0.0000000  1.2552000  3
   1251   1263   1269   2666     1  0.0000000  0.6508444  3
   1254   1247   1248   1260     1  180.0000771  2.0083200  2
   1254   1247   1248   1260     1  0.0000000  1.2552000  3
   1254   1247   1251   1263     1  180.0000771  2.0083200  2
   1254   1247   1251   1263     1  0.0000000  1.2552000  3
   1254   1257   1266   1275     1  0.0000000  0.6508444  3
   1260   1272   2697   2667     1  180.0000771  0.4184000  2
   1260   1272   2697   2667     1  0.0000000  1.6024720  3
   1263   1269   2666   2636     1  180.0000771  0.4184000  2
   1263   1269   2666   2636     1  0.0000000  1.6024720  3
   1269   2666   2636   2639     1  180.0000771  0.4184000  2
   1269   2666   2636   2639     1  0.0000000  1.6024720  3
   1272   2697   2667   2670     1  180.0000771  0.4184000  2
   1272   2697   2667   2670     1  0.0000000  1.6024720  3
   1276   1277   1289   1301     1  0.0000000  0.6508444  3
   1276   1280   1292   1298     1  0.0000000  0.6508444  3
   1276   1283   1286   1295     1  0.0000000  0.6508444  3
   1277   1276   1280   1292     1  180.0000771  2.0083200  2
   1277   1276   1280   1292     1  0.0000000  1.2552000  3
   1277   1276   1283   1286     1  180.0000771  2.0083200  2
   1277   1276   1283   1286     1  0.0000000  1.2552000  3
   1277   1289   1301   2759     1  0.0000000  0.6508444  3
   1280   1276   1277   1289     1  180.0000771  2.0083200  2
   1280   1276   1277   1289     1  0.0000000  1.2552000  3
   1280   1276   1283   1286     1  180.0000771  2.0083200  2
   1280   1276   1283   1286     1  0.0000000  1.2552000  3
   1280   1292   1298   2728     1  0.0000000  0.6508444  3
   1283   1276   1277   1289     1  180.0000771  2.0083200  2
   1283   1276   1277   1289     1  0.0000000  1.2552000  3
   1283   1276   1280   1292     1  180.0000771  2.0083200  2
   1283   1276   1280   1292     1  0.0000000  1.2552000  3
   1283   1286   1295   1304     1  0.0000000  0.6508444  3
   1289   1301   2759   2729     1  180.0000771  0.4184000  2
   1289   1301   2759   2729     1  0.0000000  1.6024720  3
   1292   1298   2728   2698     1  180.0000771  0.4184000  2
   1292   1298   2728   2698     1  0.0000000  1.6024720  3
   1298   2728   2698   2701     1  180.0000771  0.4184000  2
   1298   2728   2698   2701     1  0.0000000  1.6024720  3
   1301   2759   2729   2732     1  180.0000771  0.4184000  2
   1301   2759   2729   2732     1  0.0000000  1.6024720  3
   1305   1306   1318   1330     1  0.0000000  0.6508444  3
   1305   1309   1321   1327     1  0.0000000  0.6508444  3
   1305   1312   1315   1324     1  0.0000000  0.6508444  3
   1306   1305   1309   1321     1  180.0000771  2.0083200  2
   1306   1305   1309   1321     1  0.0000000  1.2552000  3
   1306   1305   1312   1315     1  180.0000771  2.0083200  2
   1306   1305   1312   1315     1  0.0000000  1.2552000  3
   1306   1318   1330   2821     1  0.0000000  0.6508444  3
   1309   1305   1306   1318     1  180.0000771  2.0083200  2
   1309   1305   1306   1318     1  0.0000000  1.2552000  3
   1309   1305   1312   1315     1  180.0000771  2.0083200  2
   1309   1305   1312   1315     1  0.0000000  1.2552000  3
   1309   1321   1327   2790     1  0.0000000  0.6508444  3
   1312   1305   1306   1318     1  180.0000771  2.0083200  2
   1312   1305   1306   1318     1  0.0000000  1.2552000  3
   1312   1305   1309   1321     1  180.0000771  2.0083200  2
   1312   1305   1309   1321     1  0.0000000  1.2552000  3
   1312   1315   1324   1333     1  0.0000000  0.6508444  3
   1318   1330   2821   2791     1  180.0000771  0.4184000  2
   1318   1330   2821   2791     1  0.0000000  1.6024720  3
   1321   1327   2790   2760     1  180.0000771  0.4184000  2
   1321   1327   2790   2760     1  0.0000000  1.6024720  3
   1327   2790   2760   2763     1  180.0000771  0.4184000  2
   1327   2790   2760   2763     1  0.0000000  1.6024720  3
   1330   2821   2791   2794     1  180.0000771  0.4184000  2
   1330   2821   2791   2794     1  0.0000000  1.6024720  3
   1334   1337   1340   1343     1  0.0000000  0.6508444  3
   1337   1340   1343   1344     1  180.0000771  2.0083200  2
   1337   1340   1343   1344     1  0.0000000  1.2552000  3
   1337   1340   1343   1354     1  180.0000771  2.0083200  2
   1337   1340   1343   1354     1  0.0000000  1.2552000  3
   1340   1337   1334   1364     1  0.0000000  0.6508444  3
   1340   1343   1344   1347     1  180.0000771  2.0083200  2
   1340   1343   1344   1347     1  0.0000000  1.2552000  3
   1340   1343   1354   1357     1  180.0000771  2.0083200  2
   1340   1343   1354   1357     1  0.0000000  1.2552000  3
   1343   1344   1347   1350     1  0.0000000  0.6508444  3
   1343   1354   1357   1360     1  0.0000000  0.6508444  3
   1344   1343   1354   1357     1  180.0000771  2.0083200  2
   1344   1343   1354   1357     1  0.0000000  1.2552000  3
   1344   1347   1350   1351     1  180.0000771  0.0000000  2
   1344   1347   1350   1352     1  180.0000771  0.0000000  2
   1347   1344   1343   1354     1  180.0000771  2.0083200  2
   1347   1344   1343   1354     1  0.0000000  1.2552000  3
   1354   1357   1360   1361     1  180.0000771  0.0000000  2
   1354   1357   1360   1362     1  180.0000771  0.0000000  2
   1365   1368   1371   1374     1  0.0000000  0.6508444  3
   1368   1371   1374   1375     1  180.0000771  2.0083200  2
   1368   1371   1374   1375     1  0.0000000  1.2552000  3
   1368   1371   1374   1385     1  180.0000771  2.0083200  2
   1368   1371   1374   1385     1  0.0000000  1.2552000  3
   1371   1374   1375   1378     1  180.0000771  2.0083200  2
   1371   1374   1375   1378     1  0.0000000  1.2552000  3
   1371   1374   1385   1388     1  180.0000771  2.0083200  2
   1371   1374   1385   1388     1  0.0000000  1.2552000  3
   1371   1368   1365   1395     1  0.0000000  0.6508444  3
   1374   1375   1378   1381     1  0.0000000  0.6508444  3
   1374   1385   1388   1391     1  0.0000000  0.6508444  3
   1375   1378   1381   1382     1  180.0000771  0.0000000  2
   1375   1378   1381   1383     1  180.0000771  0.0000000  2
   1375   1374   1385   1388     1  180.0000771  2.0083200  2
   1375   1374   1385   1388     1  0.0000000  1.2552000  3
   1378   1375   1374   1385     1  180.0000771  2.0083200  2
   1378   1375   1374   1385     1  0.0000000  1.2552000  3
   1385   1388   1391   1392     1  180.0000771  0.0000000  2
   1385   1388   1391   1393     1  180.0000771  0.0000000  2
   1396   1399   1402   1405     1  0.0000000  0.6508444  3
   1399   1402   1405   1406     1  180.0000771  2.0083200  2
   1399   1402   1405   1406     1  0.0000000  1.2552000  3
   1399   1402   1405   1416     1  180.0000771  2.0083200  2
   1399   1402   1405   1416     1  0.0000000  1.2552000  3
   1402   1399   1396   1426     1  0.0000000  0.6508444  3
   1402   1405   1406   1409     1  180.0000771  2.0083200  2
   1402   1405   1406   1409     1  0.0000000  1.2552000  3
   1402   1405   1416   1419     1  180.0000771  2.0083200  2
   1402   1405   1416   1419     1  0.0000000  1.2552000  3
   1405   1406   1409   1412     1  0.0000000  0.6508444  3
   1405   1416   1419   1422     1  0.0000000  0.6508444  3
   1406   1405   1416   1419     1  180.0000771  2.0083200  2
   1406   1405   1416   1419     1  0.0000000  1.2552000  3
   1406   1409   1412   1413     1  180.0000771  0.0000000  2
   1406   1409   1412   1414     1  180.0000771  0.0000000  2
   1409   1406   1405   1416     1  180.0000771  2.0083200  2
   1409   1406   1405   1416     1  0.0000000  1.2552000  3
   1416   1419   1422   1423     1  180.0000771  0.0000000  2
   1416   1419   1422   1424     1  180.0000771  0.0000000  2
   1427   1430   1433   1436     1  0.0000000  0.6508444  3
   1430   1433   1436   1437     1  180.0000771  2.0083200  2
   1430   1433   1436   1437     1  0.0000000  1.2552000  3
   1430   1433   1436   1447     1  180.0000771  2.0083200  2
   1430   1433   1436   1447     1  0.0000000  1.2552000  3
   1433   1436   1437   1440     1  180.0000771  2.0083200  2
   1433   1436   1437   1440     1  0.0000000  1.2552000  3
   1433   1436   1447   1450     1  180.0000771  2.0083200  2
   1433   1436   1447   1450     1  0.0000000  1.2552000  3
   1433   1430   1427   1457     1  0.0000000  0.6508444  3
   1436   1437   1440   1443     1  0.0000000  0.6508444  3
   1436   1447   1450   1453     1  0.0000000  0.6508444  3
   1437   1440   1443   1444     1  180.0000771  0.0000000  2
   1437   1440   1443   1445     1  180.0000771  0.0000000  2
   1437   1436   1447   1450     1  180.0000771  2.0083200  2
   1437   1436   1447   1450     1  0.0000000  1.2552000  3
   1440   1437   1436   1447     1  180.0000771  2.0083200  2
   1440   1437   1436   1447     1  0.0000000  1.2552000  3
   1447   1450   1453   1454     1  180.0000771  0.0000000  2
   1447   1450   1453   1455     1  180.0000771  0.0000000  2
   1458   1461   1464   1467     1  0.0000000  0.6508444  3
   1461   1464   1467   1468     1  180.0000771  2.0083200  2
   1461   1464   1467   1468     1  0.0000000  1.2552000  3
   1461   1464   1467   1478     1  180.0000771  2.0083200  2
   1461   1464   1467   1478     1  0.0000000  1.2552000  3
   1464   1461   1458   1488     1  0.0000000  0.6508444  3
   1464   1467   1468   1471     1  180.0000771  2.0083200  2
   1464   1467   1468   1471     1  0.0000000  1.2552000  3
   1464   1467   1478   1481     1  180.0000771  2.0083200  2
   1464   1467   1478   1481     1  0.0000000  1.2552000  3
   1467   1468   1471   1474     1  0.0000000  0.6508444  3
   1467   1478   1481   1484     1  0.0000000  0.6508444  3
   1468   1467   1478   1481     1  180.0000771  2.0083200  2
   1468   1467   1478   1481     1  0.0000000  1.2552000  3
   1468   1471   1474   1475     1  180.0000771  0.0000000  2
   1468   1471   1474   1476     1  180.0000771  0.0000000  2
   1471   1468   1467   1478     1  180.0000771  2.0083200  2
   1471   1468   1467   1478     1  0.0000000  1.2552000  3
   1478   1481   1484   1485     1  180.0000771  0.0000000  2
   1478   1481   1484   1486     1  180.0000771  0.0000000  2
   1489   1492   1495   1498     1  0.0000000  0.6508444  3
   1492   1495   1498   1499     1  180.0000771  2.0083200  2
   1492   1495   1498   1499     1  0.0000000  1.2552000  3
   1492   1495   1498   1509     1  180.0000771  2.0083200  2
   1492   1495   1498   1509     1  0.0000000  1.2552000  3
   1495   1498   1499   1502     1  180.0000771  2.0083200  2
   1495   1498   1499   1502     1  0.0000000  1.2552000  3
   1495   1498   1509   1512     1  180.0000771  2.0083200  2
   1495   1498   1509   1512     1  0.0000000  1.2552000  3
   1495   1492   1489   1519     1  0.0000000  0.6508444  3
   1498   1499   1502   1505     1  0.0000000  0.6508444  3
   1498   1509   1512   1515     1  0.0000000  0.6508444  3
   1499   1502   1505   1506     1  180.0000771  0.0000000  2
   1499   1502   1505   1507     1  180.0000771  0.0000000  2
   1499   1498   1509   1512     1  180.0000771  2.0083200  2
   1499   1498   1509   1512     1  0.0000000  1.2552000  3
   1502   1499   1498   1509     1  180.0000771  2.0083200  2
   1502   1499   1498   1509     1  0.0000000  1.2552000  3
   1509   1512   1515   1516     1  180.0000771  0.0000000  2
   1509   1512   1515   1517     1  180.0000771  0.0000000  2
   1520   1523   1526   1529     1  0.0000000  0.6508444  3
   1523   1526   1529   1530     1  180.0000771  2.0083200  2
   1523   1526   1529   1530     1  0.0000000  1.2552000  3
   1523   1526   1529   1540     1  180.0000771  2.0083200  2
   1523   1526   1529   1540     1  0.0000000  1.2552000  3
   1526   1523   1520   1550     1  0.0000000  0.6508444  3
   1526   1529   1530   1533     1  180.0000771  2.0083200  2
   1526   1529   1530   1533     1  0.0000000  1.2552000  3
   1526   1529   1540   1543     1  180.0000771  2.0083200  2
   1526   1529   1540   1543     1  0.0000000  1.2552000  3
   1529   1530   1533   1536     1  0.0000000  0.6508444  3
   1529   1540   1543   1546     1  0.0000000  0.6508444  3
   1530   1529   1540   1543     1  180.0000771  2.0083200  2
   1530   1529   1540   1543     1  0.0000000  1.2552000  3
   1530   1533   1536   1537     1  180.0000771  0.0000000  2
   1530   1533   1536   1538     1  180.0000771  0.0000000  2
   1533   1530   1529   1540     1  180.0000771  2.0083200  2
   1533   1530   1529   1540     1  0.0000000  1.2552000  3
   1540   1543   1546   1547     1  180.0000771  0.0000000  2
   1540   1543   1546   1548     1  180.0000771  0.0000000  2
   1551   1554   1557   1560     1  0.0000000  0.6508444  3
   1554   1557   1560   1561     1  180.0000771  2.0083200  2
   1554   1557   1560   1561     1  0.0000000  1.2552000  3
   1554   1557   1560   1571     1  180.0000771  2.0083200  2
   1554   1557   1560   1571     1  0.0000000  1.2552000  3
   1557   1560   1561   1564     1  180.0000771  2.0083200  2
   1557   1560   1561   1564     1  0.0000000  1.2552000  3
   1557   1560   1571   1574     1  180.0000771  2.0083200  2
   1557   1560   1571   1574     1  0.0000000  1.2552000  3
   1557   1554   1551   1581     1  0.0000000  0.6508444  3
   1560   1561   1564   1567     1  0.0000000  0.6508444  3
   1560   1571   1574   1577     1  0.0000000  0.6508444  3
   1561   1564   1567   1568     1  180.0000771  0.0000000  2
   1561   1564   1567   1569     1  180.0000771  0.0000000  2
   1561   1560   1571   1574     1  180.0000771  2.0083200  2
   1561   1560   1571   1574     1  0.0000000  1.2552000  3
   1564   1561   1560   1571     1  180.0000771  2.0083200  2
   1564   1561   1560   1571     1  0.0000000  1.2552000  3
   1571   1574   1577   1578     1  180.0000771  0.0000000  2
   1571   1574   1577   1579     1  180.0000771  0.0000000  2
   1582   1585   1588   1591     1  0.0000000  0.6508444  3
   1585   1588   1591   1592     1  180.0000771  2.0083200  2
   1585   1588   1591   1592     1  0.0000000  1.2552000  3
   1585   1588   1591   1602     1  180.0000771  2.0083200  2
   1585   1588   1591   1602     1  0.0000000  1.2552000  3
   1588   1585   1582   1612     1  0.0000000  0.6508444  3
   1588   1591   1592   1595     1  180.0000771  2.0083200  2
   1588   1591   1592   1595     1  0.0000000  1.2552000  3
   1588   1591   1602   1605     1  180.0000771  2.0083200  2
   1588   1591   1602   1605     1  0.0000000  1.2552000  3
   1591   1592   1595   1598     1  0.0000000  0.6508444  3
   1591   1602   1605   1608     1  0.0000000  0.6508444  3
   1592   1591   1602   1605     1  180.0000771  2.0083200  2
   1592   1591   1602   1605     1  0.0000000  1.2552000  3
   1592   1595   1598   1599     1  180.0000771  0.0000000  2
   1592   1595   1598   1600     1  180.0000771  0.0000000  2
   1595   1592   1591   1602     1  180.0000771  2.0083200  2
   1595   1592   1591   1602     1  0.0000000  1.2552000  3
   1602   1605   1608   1609     1  180.0000771  0.0000000  2
   1602   1605   1608   1610     1  180.0000771  0.0000000  2
   1613   1616   1619   1622     1  0.0000000  0.6508444  3
   1616   1619   1622   1623     1  180.0000771  2.0083200  2
   1616   1619   1622   1623     1  0.0000000  1.2552000  3
   1616   1619   1622   1633     1  180.0000771  2.0083200  2
   1616   1619   1622   1633     1  0.0000000  1.2552000  3
   1619   1622   1623   1626     1  180.0000771  2.0083200  2
   1619   1622   1623   1626     1  0.0000000  1.2552000  3
   1619   1622   1633   1636     1  180.0000771  2.0083200  2
   1619   1622   1633   1636     1  0.0000000  1.2552000  3
   1619   1616   1613   1643     1  0.0000000  0.6508444  3
   1622   1623   1626   1629     1  0.0000000  0.6508444  3
   1622   1633   1636   1639     1  0.0000000  0.6508444  3
   1623   1626   1629   1630     1  180.0000771  0.0000000  2
   1623   1626   1629   1631     1  180.0000771  0.0000000  2
   1623   1622   1633   1636     1  180.0000771  2.0083200  2
   1623   1622   1633   1636     1  0.0000000  1.2552000  3
   1626   1623   1622   1633     1  180.0000771  2.0083200  2
   1626   1623   1622   1633     1  0.0000000  1.2552000  3
   1633   1636   1639   1640     1  180.0000771  0.0000000  2
   1633   1636   1639   1641     1  180.0000771  0.0000000  2
   1644   1647   1650   1653     1  0.0000000  0.6508444  3
   1647   1650   1653   1654     1  180.0000771  2.0083200  2
   1647   1650   1653   1654     1  0.0000000  1.2552000  3
   1647   1650   1653   1664     1  180.0000771  2.0083200  2
   1647   1650   1653   1664     1  0.0000000  1.2552000  3
   1650   1647   1644   1674     1  0.0000000  0.6508444  3
   1650   1653   1654   1657     1  180.0000771  2.0083200  2
   1650   1653   1654   1657     1  0.0000000  1.2552000  3
   1650   1653   1664   1667     1  180.0000771  2.0083200  2
   1650   1653   1664   1667     1  0.0000000  1.2552000  3
   1653   1654   1657   1660     1  0.0000000  0.6508444  3
   1653   1664   1667   1670     1  0.0000000  0.6508444  3
   1654   1653   1664   1667     1  180.0000771  2.0083200  2
   1654   1653   1664   1667     1  0.0000000  1.2552000  3
   1654   1657   1660   1661     1  180.0000771  0.0000000  2
   1654   1657   1660   1662     1  180.0000771  0.0000000  2
   1657   1654   1653   1664     1  180.0000771  2.0083200  2
   1657   1654   1653   1664     1  0.0000000  1.2552000  3
   1664   1667   1670   1671     1  180.0000771  0.0000000  2
   1664   1667   1670   1672     1  180.0000771  0.0000000  2
   1675   1678   1681   1684     1  0.0000000  0.6508444  3
   1678   1681   1684   1685     1  180.0000771  2.0083200  2
   1678   1681   1684   1685     1  0.0000000  1.2552000  3
   1678   1681   1684   1695     1  180.0000771  2.0083200  2
   1678   1681   1684   1695     1  0.0000000  1.2552000  3
   1681   1684   1685   1688     1  180.0000771  2.0083200  2
   1681   1684   1685   1688     1  0.0000000  1.2552000  3
   1681   1684   1695   1698     1  180.0000771  2.0083200  2
   1681   1684   1695   1698     1  0.0000000  1.2552000  3
   1681   1678   1675   1705     1  0.0000000  0.6508444  3
   1684   1685   1688   1691     1  0.0000000  0.6508444  3
   1684   1695   1698   1701     1  0.0000000  0.6508444  3
   1685   1688   1691   1692     1  180.0000771  0.0000000  2
   1685   1688   1691   1693     1  180.0000771  0.0000000  2
   1685   1684   1695   1698     1  180.0000771  2.0083200  2
   1685   1684   1695   1698     1  0.0000000  1.2552000  3
   1688   1685   1684   1695     1  180.0000771  2.0083200  2
   1688   1685   1684   1695     1  0.0000000  1.2552000  3
   1695   1698   1701   1702     1  180.0000771  0.0000000  2
   1695   1698   1701   1703     1  180.0000771  0.0000000  2
   1706   1709   1712   1715     1  0.0000000  0.6508444  3
   1709   1712   1715   1716     1  180.0000771  2.0083200  2
   1709   1712   1715   1716     1  0.0000000  1.2552000  3
   1709   1712   1715   1726     1  180.0000771  2.0083200  2
   1709   1712   1715   1726     1  0.0000000  1.2552000  3
   1712   1709   1706   1736     1  0.0000000  0.6508444  3
   1712   1715   1716   1719     1  180.0000771  2.0083200  2
   1712   1715   1716   1719     1  0.0000000  1.2552000  3
   1712   1715   1726   1729     1  180.0000771  2.0083200  2
   1712   1715   1726   1729     1  0.0000000  1.2552000  3
   1715   1716   1719   1722     1  0.0000000  0.6508444  3
   1715   1726   1729   1732     1  0.0000000  0.6508444  3
   1716   1715   1726   1729     1  180.0000771  2.0083200  2
   1716   1715   1726   1729     1  0.0000000  1.2552000  3
   1716   1719   1722   1723     1  180.0000771  0.0000000  2
   1716   1719   1722   1724     1  180.0000771  0.0000000  2
   1719   1716   1715   1726     1  180.0000771  2.0083200  2
   1719   1716   1715   1726     1  0.0000000  1.2552000  3
   1726   1729   1732   1733     1  180.0000771  0.0000000  2
   1726   1729   1732   1734     1  180.0000771  0.0000000  2
   1737   1740   1743   1746     1  0.0000000  0.6508444  3
   1740   1743   1746   1747     1  180.0000771  2.0083200  2
   1740   1743   1746   1747     1  0.0000000  1.2552000  3
   1740   1743   1746   1757     1  180.0000771  2.0083200  2
   1740   1743   1746   1757     1  0.0000000  1.2552000  3
   1743   1746   1747   1750     1  180.0000771  2.0083200  2
   1743   1746   1747   1750     1  0.0000000  1.2552000  3
   1743   1746   1757   1760     1  180.0000771  2.0083200  2
   1743   1746   1757   1760     1  0.0000000  1.2552000  3
   1743   1740   1737   1767     1  0.0000000  0.6508444  3
   1746   1747   1750   1753     1  0.0000000  0.6508444  3
   1746   1757   1760   1763     1  0.0000000  0.6508444  3
   1747   1750   1753   1754     1  180.0000771  0.0000000  2
   1747   1750   1753   1755     1  180.0000771  0.0000000  2
   1747   1746   1757   1760     1  180.0000771  2.0083200  2
   1747   1746   1757   1760     1  0.0000000  1.2552000  3
   1750   1747   1746   1757     1  180.0000771  2.0083200  2
   1750   1747   1746   1757     1  0.0000000  1.2552000  3
   1757   1760   1763   1764     1  180.0000771  0.0000000  2
   1757   1760   1763   1765     1  180.0000771  0.0000000  2
   1768   1771   1774   1777     1  0.0000000  0.6508444  3
   1771   1774   1777   1778     1  180.0000771  2.0083200  2
   1771   1774   1777   1778     1  0.0000000  1.2552000  3
   1771   1774   1777   1788     1  180.0000771  2.0083200  2
   1771   1774   1777   1788     1  0.0000000  1.2552000  3
   1774   1771   1768   1798     1  0.0000000  0.6508444  3
   1774   1777   1778   1781     1  180.0000771  2.0083200  2
   1774   1777   1778   1781     1  0.0000000  1.2552000  3
   1774   1777   1788   1791     1  180.0000771  2.0083200  2
   1774   1777   1788   1791     1  0.0000000  1.2552000  3
   1777   1778   1781   1784     1  0.0000000  0.6508444  3
   1777   1788   1791   1794     1  0.0000000  0.6508444  3
   1778   1777   1788   1791     1  180.0000771  2.0083200  2
   1778   1777   1788   1791     1  0.0000000  1.2552000  3
   1778   1781   1784   1785     1  180.0000771  0.0000000  2
   1778   1781   1784   1786     1  180.0000771  0.0000000  2
   1781   1778   1777   1788     1  180.0000771  2.0083200  2
   1781   1778   1777   1788     1  0.0000000  1.2552000  3
   1788   1791   1794   1795     1  180.0000771  0.0000000  2
   1788   1791   1794   1796     1  180.0000771  0.0000000  2
   1799   1802   1805   1808     1  0.0000000  0.6508444  3
   1802   1805   1808   1809     1  180.0000771  2.0083200  2
   1802   1805   1808   1809     1  0.0000000  1.2552000  3
   1802   1805   1808   1819     1  180.0000771  2.0083200  2
   1802   1805   1808   1819     1  0.0000000  1.2552000  3
   1805   1808   1809   1812     1  180.0000771  2.0083200  2
   1805   1808   1809   1812     1  0.0000000  1.2552000  3
   1805   1808   1819   1822     1  180.0000771  2.0083200  2
   1805   1808   1819   1822     1  0.0000000  1.2552000  3
   1805   1802   1799   1829     1  0.0000000  0.6508444  3
   1808   1809   1812   1815     1  0.0000000  0.6508444  3
   1808   1819   1822   1825     1  0.0000000  0.6508444  3
   1809   1812   1815   1816     1  180.0000771  0.0000000  2
   1809   1812   1815   1817     1  180.0000771  0.0000000  2
   1809   1808   1819   1822     1  180.0000771  2.0083200  2
   1809   1808   1819   1822     1  0.0000000  1.2552000  3
   1812   1809   1808   1819     1  180.0000771  2.0083200  2
   1812   1809   1808   1819     1  0.0000000  1.2552000  3
   1819   1822   1825   1826     1  180.0000771  0.0000000  2
   1819   1822   1825   1827     1  180.0000771  0.0000000  2
   1830   1833   1836   1839     1  0.0000000  0.6508444  3
   1833   1836   1839   1840     1  180.0000771  2.0083200  2
   1833   1836   1839   1840     1  0.0000000  1.2552000  3
   1833   1836   1839   1850     1  180.0000771  2.0083200  2
   1833   1836   1839   1850     1  0.0000000  1.2552000  3
   1836   1833   1830   1860     1  0.0000000  0.6508444  3
   1836   1839   1840   1843     1  180.0000771  2.0083200  2
   1836   1839   1840   1843     1  0.0000000  1.2552000  3
   1836   1839   1850   1853     1  180.0000771  2.0083200  2
   1836   1839   1850   1853     1  0.0000000  1.2552000  3
   1839   1840   1843   1846     1  0.0000000  0.6508444  3
   1839   1850   1853   1856     1  0.0000000  0.6508444  3
   1840   1839   1850   1853     1  180.0000771  2.0083200  2
   1840   1839   1850   1853     1  0.0000000  1.2552000  3
   1840   1843   1846   1847     1  180.0000771  0.0000000  2
   1840   1843   1846   1848     1  180.0000771  0.0000000  2
   1843   1840   1839   1850     1  180.0000771  2.0083200  2
   1843   1840   1839   1850     1  0.0000000  1.2552000  3
   1850   1853   1856   1857     1  180.0000771  0.0000000  2
   1850   1853   1856   1858     1  180.0000771  0.0000000  2
   1861   1864   1867   1870     1  0.0000000  0.6508444  3
   1864   1867   1870   1871     1  180.0000771  2.0083200  2
   1864   1867   1870   1871     1  0.0000000  1.2552000  3
   1864   1867   1870   1881     1  180.0000771  2.0083200  2
   1864   1867   1870   1881     1  0.0000000  1.2552000  3
   1867   1870   1871   1874     1  180.0000771  2.0083200  2
   1867   1870   1871   1874     1  0.0000000  1.2552000  3
   1867   1870   1881   1884     1  180.0000771  2.0083200  2
   1867   1870   1881   1884     1  0.0000000  1.2552000  3
   1867   1864   1861   1891     1  0.0000000  0.6508444  3
   1870   1871   1874   1877     1  0.0000000  0.6508444  3
   1870   1881   1884   1887     1  0.0000000  0.6508444  3
   1871   1874   1877   1878     1  180.0000771  0.0000000  2
   1871   1874   1877   1879     1  180.0000771  0.0000000  2
   1871   1870   1881   1884     1  180.0000771  2.0083200  2
   1871   1870   1881   1884     1  0.0000000  1.2552000  3
   1874   1871   1870   1881     1  180.0000771  2.0083200  2
   1874   1871   1870   1881     1  0.0000000  1.2552000  3
   1881   1884   1887   1888     1  180.0000771  0.0000000  2
   1881   1884   1887   1889     1  180.0000771  0.0000000  2
   1892   1895   1898   1901     1  0.0000000  0.6508444  3
   1895   1898   1901   1902     1  180.0000771  2.0083200  2
   1895   1898   1901   1902     1  0.0000000  1.2552000  3
   1895   1898   1901   1912     1  180.0000771  2.0083200  2
   1895   1898   1901   1912     1  0.0000000  1.2552000  3
   1898   1895   1892   1922     1  0.0000000  0.6508444  3
   1898   1901   1902   1905     1  180.0000771  2.0083200  2
   1898   1901   1902   1905     1  0.0000000  1.2552000  3
   1898   1901   1912   1915     1  180.0000771  2.0083200  2
   1898   1901   1912   1915     1  0.0000000  1.2552000  3
   1901   1902   1905   1908     1  0.0000000  0.6508444  3
   1901   1912   1915   1918     1  0.0000000  0.6508444  3
   1902   1901   1912   1915     1  180.0000771  2.0083200  2
   1902   1901   1912   1915     1  0.0000000  1.2552000  3
   1902   1905   1908   1909     1  180.0000771  0.0000000  2
   1902   1905   1908   1910     1  180.0000771  0.0000000  2
   1905   1902   1901   1912     1  180.0000771  2.0083200  2
   1905   1902   1901   1912     1  0.0000000  1.2552000  3
   1912   1915   1918   1919     1  180.0000771  0.0000000  2
   1912   1915   1918   1920     1  180.0000771  0.0000000  2
   1923   1926   1929   1932     1  0.0000000  0.6508444  3
   1926   1929   1932   1933     1  180.0000771  2.0083200  2
   1926   1929   1932   1933     1  0.0000000  1.2552000  3
   1926   1929   1932   1943     1  180.0000771  2.0083200  2
   1926   1929   1932   1943     1  0.0000000  1.2552000  3
   1929   1932   1933   1936     1  180.0000771  2.0083200  2
   1929   1932   1933   1936     1  0.0000000  1.2552000  3
   1929   1932   1943   1946     1  180.0000771  2.0083200  2
   1929   1932   1943   1946     1  0.0000000  1.2552000  3
   1929   1926   1923   1953     1  0.0000000  0.6508444  3
   1932   1933   1936   1939     1  0.0000000  0.6508444  3
   1932   1943   1946   1949     1  0.0000000  0.6508444  3
   1933   1936   1939   1940     1  180.0000771  0.0000000  2
   1933   1936   1939   1941     1  180.0000771  0.0000000  2
   1933   1932   1943   1946     1  180.0000771  2.0083200  2
   1933   1932   1943   1946     1  0.0000000  1.2552000  3
   1936   1933   1932   1943     1  180.0000771  2.0083200  2
   1936   1933   1932   1943     1  0.0000000  1.2552000  3
   1943   1946   1949   1950     1  180.0000771  0.0000000  2
   1943   1946   1949   1951     1  180.0000771  0.0000000  2
   1954   1957   1960   1963     1  0.0000000  0.6508444  3
   1957   1960   1963   1964     1  180.0000771  2.0083200  2
   1957   1960   1963   1964     1  0.0000000  1.2552000  3
   1957   1960   1963   1974     1  180.0000771  2.0083200  2
   1957   1960   1963   1974     1  0.0000000  1.2552000  3
   1960   1957   1954   1984     1  0.0000000  0.6508444  3
   1960   1963   1964   1967     1  180.0000771  2.0083200  2
   1960   1963   1964   1967     1  0.0000000  1.2552000  3
   1960   1963   1974   1977     1  180.0000771  2.0083200  2
   1960   1963   1974   1977     1  0.0000000  1.2552000  3
   1963   1964   1967   1970     1  0.0000000  0.6508444  3
   1963   1974   1977   1980     1  0.0000000  0.6508444  3
   1964   1963   1974   1977     1  180.0000771  2.0083200  2
   1964   1963   1974   1977     1  0.0000000  1.2552000  3
   1964   1967   1970   1971     1  180.0000771  0.0000000  2
   1964   1967   1970   1972     1  180.0000771  0.0000000  2
   1967   1964   1963   1974     1  180.0000771  2.0083200  2
   1967   1964   1963   1974     1  0.0000000  1.2552000  3
   1974   1977   1980   1981     1  180.0000771  0.0000000  2
   1974   1977   1980   1982     1  180.0000771  0.0000000  2
   1985   1988   1991   1994     1  0.0000000  0.6508444  3
   1988   1991   1994   1995     1  180.0000771  2.0083200  2
   1988   1991   1994   1995     1  0.0000000  1.2552000  3
   1988   1991   1994   2005     1  180.0000771  2.0083200  2
   1988   1991   1994   2005     1  0.0000000  1.2552000  3
   1991   1994   1995   1998     1  180.0000771  2.0083200  2
   1991   1994   1995   1998     1  0.0000000  1.2552000  3
   1991   1994   2005   2008     1  180.0000771  2.0083200  2
   1991   1994   2005   2008     1  0.0000000  1.2552000  3
   1991   1988   1985   2015     1  0.0000000  0.6508444  3
   1994   1995   1998   2001     1  0.0000000  0.6508444  3
   1994   2005   2008   2011     1  0.0000000  0.6508444  3
   1995   1998   2001   2002     1  180.0000771  0.0000000  2
   1995   1998   2001   2003     1  180.0000771  0.0000000  2
   1995   1994   2005   2008     1  180.0000771  2.0083200  2
   1995   1994   2005   2008     1  0.0000000  1.2552000  3
   1998   1995   1994   2005     1  180.0000771  2.0083200  2
   1998   1995   1994   2005     1  0.0000000  1.2552000  3
   2005   2008   2011   2012     1  180.0000771  0.0000000  2
   2005   2008   2011   2013     1  180.0000771  0.0000000  2
   2016   2019   2022   2025     1  0.0000000  0.6508444  3
   2019   2022   2025   2026     1  180.0000771  2.0083200  2
   2019   2022   2025   2026     1  0.0000000  1.2552000  3
   2019   2022   2025   2036     1  180.0000771  2.0083200  2
   2019   2022   2025   2036     1  0.0000000  1.2552000  3
   2022   2019   2016   2046     1  0.0000000  0.6508444  3
   2022   2025   2026   2029     1  180.0000771  2.0083200  2
   2022   2025   2026   2029     1  0.0000000  1.2552000  3
   2022   2025   2036   2039     1  180.0000771  2.0083200  2
   2022   2025   2036   2039     1  0.0000000  1.2552000  3
   2025   2026   2029   2032     1  0.0000000  0.6508444  3
   2025   2036   2039   2042     1  0.0000000  0.6508444  3
   2026   2025   2036   2039     1  180.0000771  2.0083200  2
   2026   2025   2036   2039     1  0.0000000  1.2552000  3
   2026   2029   2032   2033     1  180.0000771  0.0000000  2
   2026   2029   2032   2034     1  180.0000771  0.0000000  2
   2029   2026   2025   2036     1  180.0000771  2.0083200  2
   2029   2026   2025   2036     1  0.0000000  1.2552000  3
   2036   2039   2042   2043     1  180.0000771  0.0000000  2
   2036   2039   2042   2044     1  180.0000771  0.0000000  2
   2047   2050   2053   2056     1  0.0000000  0.6508444  3
   2050   2053   2056   2057     1  180.0000771  2.0083200  2
   2050   2053   2056   2057     1  0.0000000  1.2552000  3
   2050   2053   2056   2067     1  180.0000771  2.0083200  2
   2050   2053   2056   2067     1  0.0000000  1.2552000  3
   2053   2056   2057   2060     1  180.0000771  2.0083200  2
   2053   2056   2057   2060     1  0.0000000  1.2552000  3
   2053   2056   2067   2070     1  180.0000771  2.0083200  2
   2053   2056   2067   2070     1  0.0000000  1.2552000  3
   2053   2050   2047   2077     1  0.0000000  0.6508444  3
   2056   2057   2060   2063     1  0.0000000  0.6508444  3
   2056   2067   2070   2073     1  0.0000000  0.6508444  3
   2057   2060   2063   2064     1  180.0000771  0.0000000  2
   2057   2060   2063   2065     1  180.0000771  0.0000000  2
   2057   2056   2067   2070     1  180.0000771  2.0083200  2
   2057   2056   2067   2070     1  0.0000000  1.2552000  3
   2060   2057   2056   2067     1  180.0000771  2.0083200  2
   2060   2057   2056   2067     1  0.0000000  1.2552000  3
   2067   2070   2073   2074     1  180.0000771  0.0000000  2
   2067   2070   2073   2075     1  180.0000771  0.0000000  2
   2078   2081   2084   2087     1  0.0000000  0.6508444  3
   2081   2084   2087   2088     1  180.0000771  2.0083200  2
   2081   2084   2087   2088     1  0.0000000  1.2552000  3
   2081   2084   2087   2098     1  180.0000771  2.0083200  2
   2081   2084   2087   2098     1  0.0000000  1.2552000  3
   2084   2081   2078   2108     1  0.0000000  0.6508444  3
   2084   2087   2088   2091     1  180.0000771  2.0083200  2
   2084   2087   2088   2091     1  0.0000000  1.2552000  3
   2084   2087   2098   2101     1  180.0000771  2.0083200  2
   2084   2087   2098   2101     1  0.0000000  1.2552000  3
   2087   2088   2091   2094     1  0.0000000  0.6508444  3
   2087   2098   2101   2104     1  0.0000000  0.6508444  3
   2088   2087   2098   2101     1  180.0000771  2.0083200  2
   2088   2087   2098   2101     1  0.0000000  1.2552000  3
   2088   2091   2094   2095     1  180.0000771  0.0000000  2
   2088   2091   2094   2096     1  180.0000771  0.0000000  2
   2091   2088   2087   2098     1  180.0000771  2.0083200  2
   2091   2088   2087   2098     1  0.0000000  1.2552000  3
   2098   2101   2104   2105     1  180.0000771  0.0000000  2
   2098   2101   2104   2106     1  180.0000771  0.0000000  2
   2109   2112   2115   2118     1  0.0000000  0.6508444  3
   2112   2115   2118   2119     1  180.0000771  2.0083200  2
   2112   2115   2118   2119     1  0.0000000  1.2552000  3
   2112   2115   2118   2129     1  180.0000771  2.0083200  2
   2112   2115   2118   2129     1  0.0000000  1.2552000  3
   2115   2118   2119   2122     1  180.0000771  2.0083200  2
   2115   2118   2119   2122     1  0.0000000  1.2552000  3
   2115   2118   2129   2132     1  180.0000771  2.0083200  2
   2115   2118   2129   2132     1  0.0000000  1.2552000  3
   2115   2112   2109   2139     1  0.0000000  0.6508444  3
   2118   2119   2122   2125     1  0.0000000  0.6508444  3
   2118   2129   2132   2135     1  0.0000000  0.6508444  3
   2119   2122   2125   2126     1  180.0000771  0.0000000  2
   2119   2122   2125   2127     1  180.0000771  0.0000000  2
   2119   2118   2129   2132     1  180.0000771  2.0083200  2
   2119   2118   2129   2132     1  0.0000000  1.2552000  3
   2122   2119   2118   2129     1  180.0000771  2.0083200  2
   2122   2119   2118   2129     1  0.0000000  1.2552000  3
   2129   2132   2135   2136     1  180.0000771  0.0000000  2
   2129   2132   2135   2137     1  180.0000771  0.0000000  2
   2140   2143   2146   2149     1  0.0000000  0.6508444  3
   2143   2146   2149   2150     1  180.0000771  2.0083200  2
   2143   2146   2149   2150     1  0.0000000  1.2552000  3
   2143   2146   2149   2160     1  180.0000771  2.0083200  2
   2143   2146   2149   2160     1  0.0000000  1.2552000  3
   2146   2143   2140   2170     1  0.0000000  0.6508444  3
   2146   2149   2150   2153     1  180.0000771  2.0083200  2
   2146   2149   2150   2153     1  0.0000000  1.2552000  3
   2146   2149   2160   2163     1  180.0000771  2.0083200  2
   2146   2149   2160   2163     1  0.0000000  1.2552000  3
   2149   2150   2153   2156     1  0.0000000  0.6508444  3
   2149   2160   2163   2166     1  0.0000000  0.6508444  3
   2150   2149   2160   2163     1  180.0000771  2.0083200  2
   2150   2149   2160   2163     1  0.0000000  1.2552000  3
   2150   2153   2156   2157     1  180.0000771  0.0000000  2
   2150   2153   2156   2158     1  180.0000771  0.0000000  2
   2153   2150   2149   2160     1  180.0000771  2.0083200  2
   2153   2150   2149   2160     1  0.0000000  1.2552000  3
   2160   2163   2166   2167     1  180.0000771  0.0000000  2
   2160   2163   2166   2168     1  180.0000771  0.0000000  2
   2171   2174   2177   2180     1  0.0000000  0.6508444  3
   2174   2177   2180   2181     1  180.0000771  2.0083200  2
   2174   2177   2180   2181     1  0.0000000  1.2552000  3
   2174   2177   2180   2191     1  180.0000771  2.0083200  2
   2174   2177   2180   2191     1  0.0000000  1.2552000  3
   2177   2180   2181   2184     1  180.0000771  2.0083200  2
   2177   2180   2181   2184     1  0.0000000  1.2552000  3
   2177   2180   2191   2194     1  180.0000771  2.0083200  2
   2177   2180   2191   2194     1  0.0000000  1.2552000  3
   2177   2174   2171   2201     1  0.0000000  0.6508444  3
   2180   2181   2184   2187     1  0.0000000  0.6508444  3
   2180   2191   2194   2197     1  0.0000000  0.6508444  3
   2181   2184   2187   2188     1  180.0000771  0.0000000  2
   2181   2184   2187   2189     1  180.0000771  0.0000000  2
   2181   2180   2191   2194     1  180.0000771  2.0083200  2
   2181   2180   2191   2194     1  0.0000000  1.2552000  3
   2184   2181   2180   2191     1  180.0000771  2.0083200  2
   2184   2181   2180   2191     1  0.0000000  1.2552000  3
   2191   2194   2197   2198     1  180.0000771  0.0000000  2
   2191   2194   2197   2199     1  180.0000771  0.0000000  2
   2202   2205   2208   2211     1  0.0000000  0.6508444  3
   2205   2208   2211   2212     1  180.0000771  2.0083200  2
   2205   2208   2211   2212     1  0.0000000  1.2552000  3
   2205   2208   2211   2222     1  180.0000771  2.0083200  2
   2205   2208   2211   2222     1  0.0000000  1.2552000  3
   2208   2205   2202   2232     1  0.0000000  0.6508444  3
   2208   2211   2212   2215     1  180.0000771  2.0083200  2
   2208   2211   2212   2215     1  0.0000000  1.2552000  3
   2208   2211   2222   2225     1  180.0000771  2.0083200  2
   2208   2211   2222   2225     1  0.0000000  1.2552000  3
   2211   2212   2215   2218     1  0.0000000  0.6508444  3
   2211   2222   2225   2228     1  0.0000000  0.6508444  3
   2212   2211   2222   2225     1  180.0000771  2.0083200  2
   2212   2211   2222   2225     1  0.0000000  1.2552000  3
   2212   2215   2218   2219     1  180.0000771  0.0000000  2
   2212   2215   2218   2220     1  180.0000771  0.0000000  2
   2215   2212   2211   2222     1  180.0000771  2.0083200  2
   2215   2212   2211   2222     1  0.0000000  1.2552000  3
   2222   2225   2228   2229     1  180.0000771  0.0000000  2
   2222   2225   2228   2230     1  180.0000771  0.0000000  2
   2233   2236   2239   2242     1  0.0000000  0.6508444  3
   2236   2239   2242   2243     1  180.0000771  2.0083200  2
   2236   2239   2242   2243     1  0.0000000  1.2552000  3
   2236   2239   2242   2253     1  180.0000771  2.0083200  2
   2236   2239   2242   2253     1  0.0000000  1.2552000  3
   2239   2242   2243   2246     1  180.0000771  2.0083200  2
   2239   2242   2243   2246     1  0.0000000  1.2552000  3
   2239   2242   2253   2256     1  180.0000771  2.0083200  2
   2239   2242   2253   2256     1  0.0000000  1.2552000  3
   2239   2236   2233   2263     1  0.0000000  0.6508444  3
   2242   2243   2246   2249     1  0.0000000  0.6508444  3
   2242   2253   2256   2259     1  0.0000000  0.6508444  3
   2243   2246   2249   2250     1  180.0000771  0.0000000  2
   2243   2246   2249   2251     1  180.0000771  0.0000000  2
   2243   2242   2253   2256     1  180.0000771  2.0083200  2
   2243   2242   2253   2256     1  0.0000000  1.2552000  3
   2246   2243   2242   2253     1  180.0000771  2.0083200  2
   2246   2243   2242   2253     1  0.0000000  1.2552000  3
   2253   2256   2259   2260     1  180.0000771  0.0000000  2
   2253   2256   2259   2261     1  180.0000771  0.0000000  2
   2264   2267   2270   2273     1  0.0000000  0.6508444  3
   2267   2270   2273   2274     1  180.0000771  2.0083200  2
   2267   2270   2273   2274     1  0.0000000  1.2552000  3
   2267   2270   2273   2284     1  180.0000771  2.0083200  2
   2267   2270   2273   2284     1  0.0000000  1.2552000  3
   2270   2267   2264   2294     1  0.0000000  0.6508444  3
   2270   2273   2274   2277     1  180.0000771  2.0083200  2
   2270   2273   2274   2277     1  0.0000000  1.2552000  3
   2270   2273   2284   2287     1  180.0000771  2.0083200  2
   2270   2273   2284   2287     1  0.0000000  1.2552000  3
   2273   2274   2277   2280     1  0.0000000  0.6508444  3
   2273   2284   2287   2290     1  0.0000000  0.6508444  3
   2274   2273   2284   2287     1  180.0000771  2.0083200  2
   2274   2273   2284   2287     1  0.0000000  1.2552000  3
   2274   2277   2280   2281     1  180.0000771  0.0000000  2
   2274   2277   2280   2282     1  180.0000771  0.0000000  2
   2277   2274   2273   2284     1  180.0000771  2.0083200  2
   2277   2274   2273   2284     1  0.0000000  1.2552000  3
   2284   2287   2290   2291     1  180.0000771  0.0000000  2
   2284   2287   2290   2292     1  180.0000771  0.0000000  2
   2295   2298   2301   2304     1  0.0000000  0.6508444  3
   2298   2301   2304   2305     1  180.0000771  2.0083200  2
   2298   2301   2304   2305     1  0.0000000  1.2552000  3
   2298   2301   2304   2315     1  180.0000771  2.0083200  2
   2298   2301   2304   2315     1  0.0000000  1.2552000  3
   2301   2304   2305   2308     1  180.0000771  2.0083200  2
   2301   2304   2305   2308     1  0.0000000  1.2552000  3
   2301   2304   2315   2318     1  180.0000771  2.0083200  2
   2301   2304   2315   2318     1  0.0000000  1.2552000  3
   2301   2298   2295   2325     1  0.0000000  0.6508444  3
   2304   2305   2308   2311     1  0.0000000  0.6508444  3
   2304   2315   2318   2321     1  0.0000000  0.6508444  3
   2305   2308   2311   2312     1  180.0000771  0.0000000  2
   2305   2308   2311   2313     1  180.0000771  0.0000000  2
   2305   2304   2315   2318     1  180.0000771  2.0083200  2
   2305   2304   2315   2318     1  0.0000000  1.2552000  3
   2308   2305   2304   2315     1  180.0000771  2.0083200  2
   2308   2305   2304   2315     1  0.0000000  1.2552000  3
   2315   2318   2321   2322     1  180.0000771  0.0000000  2
   2315   2318   2321   2323     1  180.0000771  0.0000000  2
   2326   2329   2332   2335     1  0.0000000  0.6508444  3
   2329   2332   2335   2336     1  180.0000771  2.0083200  2
   2329   2332   2335   2336     1  0.0000000  1.2552000  3
   2329   2332   2335   2346     1  180.0000771  2.0083200  2
   2329   2332   2335   2346     1  0.0000000  1.2552000  3
   2332   2329   2326   2356     1  0.0000000  0.6508444  3
   2332   2335   2336   2339     1  180.0000771  2.0083200  2
   2332   2335   2336   2339     1  0.0000000  1.2552000  3
   2332   2335   2346   2349     1  180.0000771  2.0083200  2
   2332   2335   2346   2349     1  0.0000000  1.2552000  3
   2335   2336   2339   2342     1  0.0000000  0.6508444  3
   2335   2346   2349   2352     1  0.0000000  0.6508444  3
   2336   2335   2346   2349     1  180.0000771  2.0083200  2
   2336   2335   2346   2349     1  0.0000000  1.2552000  3
   2336   2339   2342   2343     1  180.0000771  0.0000000  2
   2336   2339   2342   2344     1  180.0000771  0.0000000  2
   2339   2336   2335   2346     1  180.0000771  2.0083200  2
   2339   2336   2335   2346     1  0.0000000  1.2552000  3
   2346   2349   2352   2353     1  180.0000771  0.0000000  2
   2346   2349   2352   2354     1  180.0000771  0.0000000  2
   2357   2360   2363   2366     1  0.0000000  0.6508444  3
   2360   2363   2366   2367     1  180.0000771  2.0083200  2
   2360   2363   2366   2367     1  0.0000000  1.2552000  3
   2360   2363   2366   2377     1  180.0000771  2.0083200  2
   2360   2363   2366   2377     1  0.0000000  1.2552000  3
   2363   2366   2367   2370     1  180.0000771  2.0083200  2
   2363   2366   2367   2370     1  0.0000000  1.2552000  3
   2363   2366   2377   2380     1  180.0000771  2.0083200  2
   2363   2366   2377   2380     1  0.0000000  1.2552000  3
   2363   2360   2357   2387     1  0.0000000  0.6508444  3
   2366   2367   2370   2373     1  0.0000000  0.6508444  3
   2366   2377   2380   2383     1  0.0000000  0.6508444  3
   2367   2370   2373   2374     1  180.0000771  0.0000000  2
   2367   2370   2373   2375     1  180.0000771  0.0000000  2
   2367   2366   2377   2380     1  180.0000771  2.0083200  2
   2367   2366   2377   2380     1  0.0000000  1.2552000  3
   2370   2367   2366   2377     1  180.0000771  2.0083200  2
   2370   2367   2366   2377     1  0.0000000  1.2552000  3
   2377   2380   2383   2384     1  180.0000771  0.0000000  2
   2377   2380   2383   2385     1  180.0000771  0.0000000  2
   2388   2391   2394   2397     1  0.0000000  0.6508444  3
   2391   2394   2397   2398     1  180.0000771  2.0083200  2
   2391   2394   2397   2398     1  0.0000000  1.2552000  3
   2391   2394   2397   2408     1  180.0000771  2.0083200  2
   2391   2394   2397   2408     1  0.0000000  1.2552000  3
   2394   2391   2388   2418     1  0.0000000  0.6508444  3
   2394   2397   2398   2401     1  180.0000771  2.0083200  2
   2394   2397   2398   2401     1  0.0000000  1.2552000  3
   2394   2397   2408   2411     1  180.0000771  2.0083200  2
   2394   2397   2408   2411     1  0.0000000  1.2552000  3
   2397   2398   2401   2404     1  0.0000000  0.6508444  3
   2397   2408   2411   2414     1  0.0000000  0.6508444  3
   2398   2397   2408   2411     1  180.0000771  2.0083200  2
   2398   2397   2408   2411     1  0.0000000  1.2552000  3
   2398   2401   2404   2405     1  180.0000771  0.0000000  2
   2398   2401   2404   2406     1  180.0000771  0.0000000  2
   2401   2398   2397   2408     1  180.0000771  2.0083200  2
   2401   2398   2397   2408     1  0.0000000  1.2552000  3
   2408   2411   2414   2415     1  180.0000771  0.0000000  2
   2408   2411   2414   2416     1  180.0000771  0.0000000  2
   2419   2422   2425   2428     1  0.0000000  0.6508444  3
   2422   2425   2428   2429     1  180.0000771  2.0083200  2
   2422   2425   2428   2429     1  0.0000000  1.2552000  3
   2422   2425   2428   2439     1  180.0000771  2.0083200  2
   2422   2425   2428   2439     1  0.0000000  1.2552000  3
   2425   2428   2429   2432     1  180.0000771  2.0083200  2
   2425   2428   2429   2432     1  0.0000000  1.2552000  3
   2425   2428   2439   2442     1  180.0000771  2.0083200  2
   2425   2428   2439   2442     1  0.0000000  1.2552000  3
   2425   2422   2419   2449     1  0.0000000  0.6508444  3
   2428   2429   2432   2435     1  0.0000000  0.6508444  3
   2428   2439   2442   2445     1  0.0000000  0.6508444  3
   2429   2432   2435   2436     1  180.0000771  0.0000000  2
   2429   2432   2435   2437     1  180.0000771  0.0000000  2
   2429   2428   2439   2442     1  180.0000771  2.0083200  2
   2429   2428   2439   2442     1  0.0000000  1.2552000  3
   2432   2429   2428   2439     1  180.0000771  2.0083200  2
   2432   2429   2428   2439     1  0.0000000  1.2552000  3
   2439   2442   2445   2446     1  180.0000771  0.0000000  2
   2439   2442   2445   2447     1  180.0000771  0.0000000  2
   2450   2453   2456   2459     1  0.0000000  0.6508444  3
   2453   2456   2459   2460     1  180.0000771  2.0083200  2
   2453   2456   2459   2460     1  0.0000000  1.2552000  3
   2453   2456   2459   2470     1  180.0000771  2.0083200  2
   2453   2456   2459   2470     1  0.0000000  1.2552000  3
   2456   2453   2450   2480     1  0.0000000  0.6508444  3
   2456   2459   2460   2463     1  180.0000771  2.0083200  2
   2456   2459   2460   2463     1  0.0000000  1.2552000  3
   2456   2459   2470   2473     1  180.0000771  2.0083200  2
   2456   2459   2470   2473     1  0.0000000  1.2552000  3
   2459   2460   2463   2466     1  0.0000000  0.6508444  3
   2459   2470   2473   2476     1  0.0000000  0.6508444  3
   2460   2459   2470   2473     1  180.0000771  2.0083200  2
   2460   2459   2470   2473     1  0.0000000  1.2552000  3
   2460   2463   2466   2467     1  180.0000771  0.0000000  2
   2460   2463   2466   2468     1  180.0000771  0.0000000  2
   2463   2460   2459   2470     1  180.0000771  2.0083200  2
   2463   2460   2459   2470     1  0.0000000  1.2552000  3
   2470   2473   2476   2477     1  180.0000771  0.0000000  2
   2470   2473   2476   2478     1  180.0000771  0.0000000  2
   2481   2484   2487   2490     1  0.0000000  0.6508444  3
   2484   2487   2490   2491     1  180.0000771  2.0083200  2
   2484   2487   2490   2491     1  0.0000000  1.2552000  3
   2484   2487   2490   2501     1  180.0000771  2.0083200  2
   2484   2487   2490   2501     1  0.0000000  1.2552000  3
   2487   2490   2491   2494     1  180.0000771  2.0083200  2
   2487   2490   2491   2494     1  0.0000000  1.2552000  3
   2487   2490   2501   2504     1  180.0000771  2.0083200  2
   2487   2490   2501   2504     1  0.0000000  1.2552000  3
   2487   2484   2481   2511     1  0.0000000  0.6508444  3
   2490   2491   2494   2497     1  0.0000000  0.6508444  3
   2490   2501   2504   2507     1  0.0000000  0.6508444  3
   2491   2494   2497   2498     1  180.0000771  0.0000000  2
   2491   2494   2497   2499     1  180.0000771  0.0000000  2
   2491   2490   2501   2504     1  180.0000771  2.0083200  2
   2491   2490   2501   2504     1  0.0000000  1.2552000  3
   2494   2491   2490   2501     1  180.0000771  2.0083200  2
   2494   2491   2490   2501     1  0.0000000  1.2552000  3
   2501   2504   2507   2508     1  180.0000771  0.0000000  2
   2501   2504   2507   2509     1  180.0000771  0.0000000  2
   2512   2515   2518   2521     1  0.0000000  0.6508444  3
   2515   2518   2521   2522     1  180.0000771  2.0083200  2
   2515   2518   2521   2522     1  0.0000000  1.2552000  3
   2515   2518   2521   2532     1  180.0000771  2.0083200  2
   2515   2518   2521   2532     1  0.0000000  1.2552000  3
   2518   2515   2512   2542     1  0.0000000  0.6508444  3
   2518   2521   2522   2525     1  180.0000771  2.0083200  2
   2518   2521   2522   2525     1  0.0000000  1.2552000  3
   2518   2521   2532   2535     1  180.0000771  2.0083200  2
   2518   2521   2532   2535     1  0.0000000  1.2552000  3
   2521   2522   2525   2528     1  0.0000000  0.6508444  3
   2521   2532   2535   2538     1  0.0000000  0.6508444  3
   2522   2521   2532   2535     1  180.0000771  2.0083200  2
   2522   2521   2532   2535     1  0.0000000  1.2552000  3
   2522   2525   2528   2529     1  180.0000771  0.0000000  2
   2522   2525   2528   2530     1  180.0000771  0.0000000  2
   2525   2522   2521   2532     1  180.0000771  2.0083200  2
   2525   2522   2521   2532     1  0.0000000  1.2552000  3
   2532   2535   2538   2539     1  180.0000771  0.0000000  2
   2532   2535   2538   2540     1  180.0000771  0.0000000  2
   2543   2546   2549   2552     1  0.0000000  0.6508444  3
   2546   2549   2552   2553     1  180.0000771  2.0083200  2
   2546   2549   2552   2553     1  0.0000000  1.2552000  3
   2546   2549   2552   2563     1  180.0000771  2.0083200  2
   2546   2549   2552   2563     1  0.0000000  1.2552000  3
   2549   2552   2553   2556     1  180.0000771  2.0083200  2
   2549   2552   2553   2556     1  0.0000000  1.2552000  3
   2549   2552   2563   2566     1  180.0000771  2.0083200  2
   2549   2552   2563   2566     1  0.0000000  1.2552000  3
   2549   2546   2543   2573     1  0.0000000  0.6508444  3
   2552   2553   2556   2559     1  0.0000000  0.6508444  3
   2552   2563   2566   2569     1  0.0000000  0.6508444  3
   2553   2556   2559   2560     1  180.0000771  0.0000000  2
   2553   2556   2559   2561     1  180.0000771  0.0000000  2
   2553   2552   2563   2566     1  180.0000771  2.0083200  2
   2553   2552   2563   2566     1  0.0000000  1.2552000  3
   2556   2553   2552   2563     1  180.0000771  2.0083200  2
   2556   2553   2552   2563     1  0.0000000  1.2552000  3
   2563   2566   2569   2570     1  180.0000771  0.0000000  2
   2563   2566   2569   2571     1  180.0000771  0.0000000  2
   2574   2577   2580   2583     1  0.0000000  0.6508444  3
   2577   2580   2583   2584     1  180.0000771  2.0083200  2
   2577   2580   2583   2584     1  0.0000000  1.2552000  3
   2577   2580   2583   2594     1  180.0000771  2.0083200  2
   2577   2580   2583   2594     1  0.0000000  1.2552000  3
   2580   2577   2574   2604     1  0.0000000  0.6508444  3
   2580   2583   2584   2587     1  180.0000771  2.0083200  2
   2580   2583   2584   2587     1  0.0000000  1.2552000  3
   2580   2583   2594   2597     1  180.0000771  2.0083200  2
   2580   2583   2594   2597     1  0.0000000  1.2552000  3
   2583   2584   2587   2590     1  0.0000000  0.6508444  3
   2583   2594   2597   2600     1  0.0000000  0.6508444  3
   2584   2583   2594   2597     1  180.0000771  2.0083200  2
   2584   2583   2594   2597     1  0.0000000  1.2552000  3
   2584   2587   2590   2591     1  180.0000771  0.0000000  2
   2584   2587   2590   2592     1  180.0000771  0.0000000  2
   2587   2584   2583   2594     1  180.0000771  2.0083200  2
   2587   2584   2583   2594     1  0.0000000  1.2552000  3
   2594   2597   2600   2601     1  180.0000771  0.0000000  2
   2594   2597   2600   2602     1  180.0000771  0.0000000  2
   2605   2608   2611   2614     1  0.0000000  0.6508444  3
   2608   2611   2614   2615     1  180.0000771  2.0083200  2
   2608   2611   2614   2615     1  0.0000000  1.2552000  3
   2608   2611   2614   2625     1  180.0000771  2.0083200  2
   2608   2611   2614   2625     1  0.0000000  1.2552000  3
   2611   2614   2615   2618     1  180.0000771  2.0083200  2
   2611   2614   2615   2618     1  0.0000000  1.2552000  3
   2611   2614   2625   2628     1  180.0000771  2.0083200  2
   2611   2614   2625   2628     1  0.0000000  1.2552000  3
   2611   2608   2605   2635     1  0.0000000  0.6508444  3
   2614   2615   2618   2621     1  0.0000000  0.6508444  3
   2614   2625   2628   2631     1  0.0000000  0.6508444  3
   2615   2618   2621   2622     1  180.0000771  0.0000000  2
   2615   2618   2621   2623     1  180.0000771  0.0000000  2
   2615   2614   2625   2628     1  180.0000771  2.0083200  2
   2615   2614   2625   2628     1  0.0000000  1.2552000  3
   2618   2615   2614   2625     1  180.0000771  2.0083200  2
   2618   2615   2614   2625     1  0.0000000  1.2552000  3
   2625   2628   2631   2632     1  180.0000771  0.0000000  2
   2625   2628   2631   2633     1  180.0000771  0.0000000  2
   2636   2639   2642   2645     1  0.0000000  0.6508444  3
   2639   2642   2645   2646     1  180.0000771  2.0083200  2
   2639   2642   2645   2646     1  0.0000000  1.2552000  3
   2639   2642   2645   2656     1  180.0000771  2.0083200  2
   2639   2642   2645   2656     1  0.0000000  1.2552000  3
   2642   2639   2636   2666     1  0.0000000  0.6508444  3
   2642   2645   2646   2649     1  180.0000771  2.0083200  2
   2642   2645   2646   2649     1  0.0000000  1.2552000  3
   2642   2645   2656   2659     1  180.0000771  2.0083200  2
   2642   2645   2656   2659     1  0.0000000  1.2552000  3
   2645   2646   2649   2652     1  0.0000000  0.6508444  3
   2645   2656   2659   2662     1  0.0000000  0.6508444  3
   2646   2645   2656   2659     1  180.0000771  2.0083200  2
   2646   2645   2656   2659     1  0.0000000  1.2552000  3
   2646   2649   2652   2653     1  180.0000771  0.0000000  2
   2646   2649   2652   2654     1  180.0000771  0.0000000  2
   2649   2646   2645   2656     1  180.0000771  2.0083200  2
   2649   2646   2645   2656     1  0.0000000  1.2552000  3
   2656   2659   2662   2663     1  180.0000771  0.0000000  2
   2656   2659   2662   2664     1  180.0000771  0.0000000  2
   2667   2670   2673   2676     1  0.0000000  0.6508444  3
   2670   2673   2676   2677     1  180.0000771  2.0083200  2
   2670   2673   2676   2677     1  0.0000000  1.2552000  3
   2670   2673   2676   2687     1  180.0000771  2.0083200  2
   2670   2673   2676   2687     1  0.0000000  1.2552000  3
   2673   2676   2677   2680     1  180.0000771  2.0083200  2
   2673   2676   2677   2680     1  0.0000000  1.2552000  3
   2673   2676   2687   2690     1  180.0000771  2.0083200  2
   2673   2676   2687   2690     1  0.0000000  1.2552000  3
   2673   2670   2667   2697     1  0.0000000  0.6508444  3
   2676   2677   2680   2683     1  0.0000000  0.6508444  3
   2676   2687   2690   2693     1  0.0000000  0.6508444  3
   2677   2680   2683   2684     1  180.0000771  0.0000000  2
   2677   2680   2683   2685     1  180.0000771  0.0000000  2
   2677   2676   2687   2690     1  180.0000771  2.0083200  2
   2677   2676   2687   2690     1  0.0000000  1.2552000  3
   2680   2677   2676   2687     1  180.0000771  2.0083200  2
   2680   2677   2676   2687     1  0.0000000  1.2552000  3
   2687   2690   2693   2694     1  180.0000771  0.0000000  2
   2687   2690   2693   2695     1  180.0000771  0.0000000  2
   2698   2701   2704   2707     1  0.0000000  0.6508444  3
   2701   2704   2707   2708     1  180.0000771  2.0083200  2
   2701   2704   2707   2708     1  0.0000000  1.2552000  3
   2701   2704   2707   2718     1  180.0000771  2.0083200  2
   2701   2704   2707   2718     1  0.0000000  1.2552000  3
   2704   2701   2698   2728     1  0.0000000  0.6508444  3
   2704   2707   2708   2711     1  180.0000771  2.0083200  2
   2704   2707   2708   2711     1  0.0000000  1.2552000  3
   2704   2707   2718   2721     1  180.0000771  2.0083200  2
   2704   2707   2718   2721     1  0.0000000  1.2552000  3
   2707   2708   2711   2714     1  0.0000000  0.6508444  3
   2707   2718   2721   2724     1  0.0000000  0.6508444  3
   2708   2707   2718   2721     1  180.0000771  2.0083200  2
   2708   2707   2718   2721     1  0.0000000  1.2552000  3
   2708   2711   2714   2715     1  180.0000771  0.0000000  2
   2708   2711   2714   2716     1  180.0000771  0.0000000  2
   2711   2708   2707   2718     1  180.0000771  2.0083200  2
   2711   2708   2707   2718     1  0.0000000  1.2552000  3
   2718   2721   2724   2725     1  180.0000771  0.0000000  2
   2718   2721   2724   2726     1  180.0000771  0.0000000  2
   2729   2732   2735   2738     1  0.0000000  0.6508444  3
   2732   2735   2738   2739     1  180.0000771  2.0083200  2
   2732   2735   2738   2739     1  0.0000000  1.2552000  3
   2732   2735   2738   2749     1  180.0000771  2.0083200  2
   2732   2735   2738   2749     1  0.0000000  1.2552000  3
   2735   2738   2739   2742     1  180.0000771  2.0083200  2
   2735   2738   2739   2742     1  0.0000000  1.2552000  3
   2735   2738   2749   2752     1  180.0000771  2.0083200  2
   2735   2738   2749   2752     1  0.0000000  1.2552000  3
   2735   2732   2729   2759     1  0.0000000  0.6508444  3
   2738   2739   2742   2745     1  0.0000000  0.6508444  3
   2738   2749   2752   2755     1  0.0000000  0.6508444  3
   2739   2742   2745   2746     1  180.0000771  0.0000000  2
   2739   2742   2745   2747     1  180.0000771  0.0000000  2
   2739   2738   2749   2752     1  180.0000771  2.0083200  2
   2739   2738   2749   2752     1  0.0000000  1.2552000  3
   2742   2739   2738   2749     1  180.0000771  2.0083200  2
   2742   2739   2738   2749     1  0.0000000  1.2552000  3
   2749   2752   2755   2756     1  180.0000771  0.0000000  2
   2749   2752   2755   2757     1  180.0000771  0.0000000  2
   2760   2763   2766   2769     1  0.0000000  0.6508444  3
   2763   2766   2769   2770     1  180.0000771  2.0083200  2
   2763   2766   2769   2770     1  0.0000000  1.2552000  3
   2763   2766   2769   2780     1  180.0000771  2.0083200  2
   2763   2766   2769   2780     1  0.0000000  1.2552000  3
   2766   2763   2760   2790     1  0.0000000  0.6508444  3
   2766   2769   2770   2773     1  180.0000771  2.0083200  2
   2766   2769   2770   2773     1  0.0000000  1.2552000  3
   2766   2769   2780   2783     1  180.0000771  2.0083200  2
   2766   2769   2780   2783     1  0.0000000  1.2552000  3
   2769   2770   2773   2776     1  0.0000000  0.6508444  3
   2769   2780   2783   2786     1  0.0000000  0.6508444  3
   2770   2769   2780   2783     1  180.0000771  2.0083200  2
   2770   2769   2780   2783     1  0.0000000  1.2552000  3
   2770   2773   2776   2777     1  180.0000771  0.0000000  2
   2770   2773   2776   2778     1  180.0000771  0.0000000  2
   2773   2770   2769   2780     1  180.0000771  2.0083200  2
   2773   2770   2769   2780     1  0.0000000  1.2552000  3
   2780   2783   2786   2787     1  180.0000771  0.0000000  2
   2780   2783   2786   2788     1  180.0000771  0.0000000  2
   2791   2794   2797   2800     1  0.0000000  0.6508444  3
   2794   2797   2800   2801     1  180.0000771  2.0083200  2
   2794   2797   2800   2801     1  0.0000000  1.2552000  3
   2794   2797   2800   2811     1  180.0000771  2.0083200  2
   2794   2797   2800   2811     1  0.0000000  1.2552000  3
   2797   2800   2801   2804     1  180.0000771  2.0083200  2
   2797   2800   2801   2804     1  0.0000000  1.2552000  3
   2797   2800   2811   2814     1  180.0000771  2.0083200  2
   2797   2800   2811   2814     1  0.0000000  1.2552000  3
   2797   2794   2791   2821     1  0.0000000  0.6508444  3
   2800   2801   2804   2807     1  0.0000000  0.6508444  3
   2800   2811   2814   2817     1  0.0000000  0.6508444  3
   2801   2804   2807   2808     1  180.0000771  0.0000000  2
   2801   2804   2807   2809     1  180.0000771  0.0000000  2
   2801   2800   2811   2814     1  180.0000771  2.0083200  2
   2801   2800   2811   2814     1  0.0000000  1.2552000  3
   2804   2801   2800   2811     1  180.0000771  2.0083200  2
   2804   2801   2800   2811     1  0.0000000  1.2552000  3
   2811   2814   2817   2818     1  180.0000771  0.0000000  2
   2811   2814   2817   2819     1  180.0000771  0.0000000  2
   1347   1351   1350   1352     4  180.0000771  4.6024000  2
   1357   1361   1360   1362     4  180.0000771  4.6024000  2
   1378   1382   1381   1383     4  180.0000771  4.6024000  2
   1388   1392   1391   1393     4  180.0000771  4.6024000  2
   1409   1413   1412   1414     4  180.0000771  4.6024000  2
   1419   1423   1422   1424     4  180.0000771  4.6024000  2
   1440   1444   1443   1445     4  180.0000771  4.6024000  2
   1450   1454   1453   1455     4  180.0000771  4.6024000  2
   1471   1475   1474   1476     4  180.0000771  4.6024000  2
   1481   1485   1484   1486     4  180.0000771  4.6024000  2
   1502   1506   1505   1507     4  180.0000771  4.6024000  2
   1512   1516   1515   1517     4  180.0000771  4.6024000  2
   1533   1537   1536   1538     4  180.0000771  4.6024000  2
   1543   1547   1546   1548     4  180.0000771  4.6024000  2
   1564   1568   1567   1569     4  180.0000771  4.6024000  2
   1574   1578   1577   1579     4  180.0000771  4.6024000  2
   1595   1599   1598   1600     4  180.0000771  4.6024000  2
   1605   1609   1608   1610     4  180.0000771  4.6024000  2
   1626   1630   1629   1631     4  180.0000771  4.6024000  2
   1636   1640   1639   1641     4  180.0000771  4.6024000  2
   1657   1661   1660   1662     4  180.0000771  4.6024000  2
   1667   1671   1670   1672     4  180.0000771  4.6024000  2
   1688   1692   1691   1693     4  180.0000771  4.6024000  2
   1698   1702   1701   1703     4  180.0000771  4.6024000  2
   1719   1723   1722   1724     4  180.0000771  4.6024000  2
   1729   1733   1732   1734     4  180.0000771  4.6024000  2
   1750   1754   1753   1755     4  180.0000771  4.6024000  2
   1760   1764   1763   1765     4  180.0000771  4.6024000  2
   1781   1785   1784   1786     4  180.0000771  4.6024000  2
   1791   1795   1794   1796     4  180.0000771  4.6024000  2
   1812   1816   1815   1817     4  180.0000771  4.6024000  2
   1822   1826   1825   1827     4  180.0000771  4.6024000  2
   1843   1847   1846   1848     4  180.0000771  4.6024000  2
   1853   1857   1856   1858     4  180.0000771  4.6024000  2
   1874   1878   1877   1879     4  180.0000771  4.6024000  2
   1884   1888   1887   1889     4  180.0000771  4.6024000  2
   1905   1909   1908   1910     4  180.0000771  4.6024000  2
   1915   1919   1918   1920     4  180.0000771  4.6024000  2
   1936   1940   1939   1941     4  180.0000771  4.6024000  2
   1946   1950   1949   1951     4  180.0000771  4.6024000  2
   1967   1971   1970   1972     4  180.0000771  4.6024000  2
   1977   1981   1980   1982     4  180.0000771  4.6024000  2
   1998   2002   2001   2003     4  180.0000771  4.6024000  2
   2008   2012   2011   2013     4  180.0000771  4.6024000  2
   2029   2033   2032   2034     4  180.0000771  4.6024000  2
   2039   2043   2042   2044     4  180.0000771  4.6024000  2
   2060   2064   2063   2065     4  180.0000771  4.6024000  2
   2070   2074   2073   2075     4  180.0000771  4.6024000  2
   2091   2095   2094   2096     4  180.0000771  4.6024000  2
   2101   2105   2104   2106     4  180.0000771  4.6024000  2
   2122   2126   2125   2127     4  180.0000771  4.6024000  2
   2132   2136   2135   2137     4  180.0000771  4.6024000  2
   2153   2157   2156   2158     4  180.0000771  4.6024000  2
   2163   2167   2166   2168     4  180.0000771  4.6024000  2
   2184   2188   2187   2189     4  180.0000771  4.6024000  2
   2194   2198   2197   2199     4  180.0000771  4.6024000  2
   2215   2219   2218   2220     4  180.0000771  4.6024000  2
   2225   2229   2228   2230     4  180.0000771  4.6024000  2
   2246   2250   2249   2251     4  180.0000771  4.6024000  2
   2256   2260   2259   2261     4  180.0000771  4.6024000  2
   2277   2281   2280   2282     4  180.0000771  4.6024000  2
   2287   2291   2290   2292     4  180.0000771  4.6024000  2
   2308   2312   2311   2313     4  180.0000771  4.6024000  2
   2318   2322   2321   2323     4  180.0000771  4.6024000  2
   2339   2343   2342   2344     4  180.0000771  4.6024000  2
   2349   2353   2352   2354     4  180.0000771  4.6024000  2
   2370   2374   2373   2375     4  180.0000771  4.6024000  2
   2380   2384   2383   2385     4  180.0000771  4.6024000  2
   2401   2405   2404   2406     4  180.0000771  4.6024000  2
   2411   2415   2414   2416     4  180.0000771  4.6024000  2
   2432   2436   2435   2437     4  180.0000771  4.6024000  2
   2442   2446   2445   2447     4  180.0000771  4.6024000  2
   2463   2467   2466   2468     4  180.0000771  4.6024000  2
   2473   2477   2476   2478     4  180.0000771  4.6024000  2
   2494   2498   2497   2499     4  180.0000771  4.6024000  2
   2504   2508   2507   2509     4  180.0000771  4.6024000  2
   2525   2529   2528   2530     4  180.0000771  4.6024000  2
   2535   2539   2538   2540     4  180.0000771  4.6024000  2
   2556   2560   2559   2561     4  180.0000771  4.6024000  2
   2566   2570   2569   2571     4  180.0000771  4.6024000  2
   2587   2591   2590   2592     4  180.0000771  4.6024000  2
   2597   2601   2600   2602     4  180.0000771  4.6024000  2
   2618   2622   2621   2623     4  180.0000771  4.6024000  2
   2628   2632   2631   2633     4  180.0000771  4.6024000  2
   2649   2653   2652   2654     4  180.0000771  4.6024000  2
   2659   2663   2662   2664     4  180.0000771  4.6024000  2
   2680   2684   2683   2685     4  180.0000771  4.6024000  2
   2690   2694   2693   2695     4  180.0000771  4.6024000  2
   2711   2715   2714   2716     4  180.0000771  4.6024000  2
   2721   2725   2724   2726     4  180.0000771  4.6024000  2
   2742   2746   2745   2747     4  180.0000771  4.6024000  2
   2752   2756   2755   2757     4  180.0000771  4.6024000  2
   2773   2777   2776   2778     4  180.0000771  4.6024000  2
   2783   2787   2786   2788     4  180.0000771  4.6024000  2
   2804   2808   2807   2809     4  180.0000771  4.6024000  2
   2814   2818   2817   2819     4  180.0000771  4.6024000  2
      1      2     14     15     1  0.0000000  0.6508444  3
      1      2     14     16     1  0.0000000  0.6508444  3
      1      5     17     18     1  0.0000000  0.6508444  3
      1      5     17     19     1  0.0000000  0.6508444  3
      1      8     11     12     1  0.0000000  0.6508444  3
      1      8     11     13     1  0.0000000  0.6508444  3
      2      1      5      6     1  0.0000000  1.2552000  3
      2      1      5      7     1  0.0000000  1.2552000  3
      2      1      8      9     1  0.0000000  1.2552000  3
      2      1      8     10     1  0.0000000  1.2552000  3
      2     14     26     27     1  0.0000000  0.6508444  3
      2     14     26     28     1  0.0000000  0.6508444  3
      5      1      2      3     1  0.0000000  1.2552000  3
      8      1      2      3     1  0.0000000  1.2552000  3
      3      2     14     26     1  0.0000000  0.6508444  3
      3      2     14     15     1  0.0000000  0.6508444  3
      3      2     14     16     1  0.0000000  0.6508444  3
      5      1      2      4     1  0.0000000  1.2552000  3
      8      1      2      4     1  0.0000000  1.2552000  3
      4      2     14     26     1  0.0000000  0.6508444  3
      4      2     14     15     1  0.0000000  0.6508444  3
      4      2     14     16     1  0.0000000  0.6508444  3
      5      1      8      9     1  0.0000000  1.2552000  3
      5      1      8     10     1  0.0000000  1.2552000  3
      5     17     20     21     1  0.0000000  0.6508444  3
      5     17     20     22     1  0.0000000  0.6508444  3
      8      1      5      6     1  0.0000000  1.2552000  3
      6      5     17     20     1  0.0000000  0.6508444  3
      6      5     17     18     1  0.0000000  0.6508444  3
      6      5     17     19     1  0.0000000  0.6508444  3
      8      1      5      7     1  0.0000000  1.2552000  3
      7      5     17     20     1  0.0000000  0.6508444  3
      7      5     17     18     1  0.0000000  0.6508444  3
      7      5     17     19     1  0.0000000  0.6508444  3
      8     11     23     24     1  0.0000000  0.6508444  3
      8     11     23     25     1  0.0000000  0.6508444  3
      9      8     11     23     1  0.0000000  0.6508444  3
      9      8     11     12     1  0.0000000  0.6508444  3
      9      8     11     13     1  0.0000000  0.6508444  3
     10      8     11     23     1  0.0000000  0.6508444  3
     10      8     11     12     1  0.0000000  0.6508444  3
     10      8     11     13     1  0.0000000  0.6508444  3
     12     11     23     86     1  0.0000000  1.0460000  1
     12     11     23     86     1  0.0000000  0.0000000  3
     12     11     23     24     1  0.0000000  0.6508444  3
     12     11     23     25     1  0.0000000  0.6508444  3
     13     11     23     86     1  0.0000000  1.0460000  1
     13     11     23     86     1  0.0000000  0.0000000  3
     13     11     23     24     1  0.0000000  0.6508444  3
     13     11     23     25     1  0.0000000  0.6508444  3
     15     14     26    115     1  0.0000000  1.0460000  1
     15     14     26    115     1  0.0000000  0.0000000  3
     15     14     26     27     1  0.0000000  0.6508444  3
     15     14     26     28     1  0.0000000  0.6508444  3
     16     14     26    115     1  0.0000000  1.0460000  1
     16     14     26    115     1  0.0000000  0.0000000  3
     16     14     26     27     1  0.0000000  0.6508444  3
     16     14     26     28     1  0.0000000  0.6508444  3
     18     17     20     57     1  0.0000000  1.0460000  1
     18     17     20     57     1  0.0000000  0.0000000  3
     18     17     20     21     1  0.0000000  0.6508444  3
     18     17     20     22     1  0.0000000  0.6508444  3
     19     17     20     57     1  0.0000000  1.0460000  1
     19     17     20     57     1  0.0000000  0.0000000  3
     19     17     20     21     1  0.0000000  0.6508444  3
     19     17     20     22     1  0.0000000  0.6508444  3
     20     57     48     49     1  0.0000000  1.6038667  3
     20     57     48     50     1  0.0000000  1.6038667  3
     21     20     57     48     1  0.0000000  1.6038667  3
     22     20     57     48     1  0.0000000  1.6038667  3
     23     86     77     78     1  0.0000000  1.6038667  3
     23     86     77     79     1  0.0000000  1.6038667  3
     24     23     86     77     1  0.0000000  1.6038667  3
     25     23     86     77     1  0.0000000  1.6038667  3
     26    115    106    107     1  0.0000000  1.6038667  3
     26    115    106    108     1  0.0000000  1.6038667  3
     27     26    115    106     1  0.0000000  1.6038667  3
     28     26    115    106     1  0.0000000  1.6038667  3
     29     30     42     43     1  0.0000000  0.6508444  3
     29     30     42     44     1  0.0000000  0.6508444  3
     29     33     45     46     1  0.0000000  0.6508444  3
     29     33     45     47     1  0.0000000  0.6508444  3
     29     36     39     40     1  0.0000000  0.6508444  3
     29     36     39     41     1  0.0000000  0.6508444  3
     30     29     33     34     1  0.0000000  1.2552000  3
     30     29     33     35     1  0.0000000  1.2552000  3
     30     29     36     37     1  0.0000000  1.2552000  3
     30     29     36     38     1  0.0000000  1.2552000  3
     30     42     54     55     1  0.0000000  0.6508444  3
     30     42     54     56     1  0.0000000  0.6508444  3
     31     30     29     33     1  0.0000000  1.2552000  3
     31     30     29     36     1  0.0000000  1.2552000  3
     31     30     42     54     1  0.0000000  0.6508444  3
     31     30     42     43     1  0.0000000  0.6508444  3
     31     30     42     44     1  0.0000000  0.6508444  3
     32     30     29     33     1  0.0000000  1.2552000  3
     32     30     29     36     1  0.0000000  1.2552000  3
     32     30     42     54     1  0.0000000  0.6508444  3
     32     30     42     43     1  0.0000000  0.6508444  3
     32     30     42     44     1  0.0000000  0.6508444  3
     33     29     36     37     1  0.0000000  1.2552000  3
     33     29     36     38     1  0.0000000  1.2552000  3
     33     45     51     52     1  0.0000000  0.6508444  3
     33     45     51     53     1  0.0000000  0.6508444  3
     34     33     29     36     1  0.0000000  1.2552000  3
     34     33     45     51     1  0.0000000  0.6508444  3
     34     33     45     46     1  0.0000000  0.6508444  3
     34     33     45     47     1  0.0000000  0.6508444  3
     35     33     29     36     1  0.0000000  1.2552000  3
     35     33     45     51     1  0.0000000  0.6508444  3
     35     33     45     46     1  0.0000000  0.6508444  3
     35     33     45     47     1  0.0000000  0.6508444  3
     36     39     48     49     1  0.0000000  0.6508444  3
     36     39     48     50     1  0.0000000  0.6508444  3
     37     36     39     48     1  0.0000000  0.6508444  3
     37     36     39     40     1  0.0000000  0.6508444  3
     37     36     39     41     1  0.0000000  0.6508444  3
     38     36     39     48     1  0.0000000  0.6508444  3
     38     36     39     40     1  0.0000000  0.6508444  3
     38     36     39     41     1  0.0000000  0.6508444  3
     40     39     48     57     1  0.0000000  1.0460000  1
     40     39     48     57     1  0.0000000  0.0000000  3
     40     39     48     49     1  0.0000000  0.6508444  3
     40     39     48     50     1  0.0000000  0.6508444  3
     41     39     48     57     1  0.0000000  1.0460000  1
     41     39     48     57     1  0.0000000  0.0000000  3
     41     39     48     49     1  0.0000000  0.6508444  3
     41     39     48     50     1  0.0000000  0.6508444  3
     43     42     54    173     1  0.0000000  1.0460000  1
     43     42     54    173     1  0.0000000  0.0000000  3
     43     42     54     55     1  0.0000000  0.6508444  3
     43     42     54     56     1  0.0000000  0.6508444  3
     44     42     54    173     1  0.0000000  1.0460000  1
     44     42     54    173     1  0.0000000  0.0000000  3
     44     42     54     55     1  0.0000000  0.6508444  3
     44     42     54     56     1  0.0000000  0.6508444  3
     46     45     51    144     1  0.0000000  1.0460000  1
     46     45     51    144     1  0.0000000  0.0000000  3
     46     45     51     52     1  0.0000000  0.6508444  3
     46     45     51     53     1  0.0000000  0.6508444  3
     47     45     51    144     1  0.0000000  1.0460000  1
     47     45     51    144     1  0.0000000  0.0000000  3
     47     45     51     52     1  0.0000000  0.6508444  3
     47     45     51     53     1  0.0000000  0.6508444  3
     51    144    135    136     1  0.0000000  1.6038667  3
     51    144    135    137     1  0.0000000  1.6038667  3
     52     51    144    135     1  0.0000000  1.6038667  3
     53     51    144    135     1  0.0000000  1.6038667  3
     54    173    164    165     1  0.0000000  1.6038667  3
     54    173    164    166     1  0.0000000  1.6038667  3
     55     54    173    164     1  0.0000000  1.6038667  3
     56     54    173    164     1  0.0000000  1.6038667  3
     58     59     71     72     1  0.0000000  0.6508444  3
     58     59     71     73     1  0.0000000  0.6508444  3
     58     62     74     75     1  0.0000000  0.6508444  3
     58     62     74     76     1  0.0000000  0.6508444  3
     58     65     68     69     1  0.0000000  0.6508444  3
     58     65     68     70     1  0.0000000  0.6508444  3
     59     58     62     63     1  0.0000000  1.2552000  3
     59     58     62     64     1  0.0000000  1.2552000  3
     59     58     65     66     1  0.0000000  1.2552000  3
     59     58     65     67     1  0.0000000  1.2552000  3
     59     71     83     84     1  0.0000000  0.6508444  3
     59     71     83     85     1  0.0000000  0.6508444  3
     60     59     58     62     1  0.0000000  1.2552000  3
     60     59     58     65     1  0.0000000  1.2552000  3
     60     59     71     83     1  0.0000000  0.6508444  3
     60     59     71     72     1  0.0000000  0.6508444  3
     60     59     71     73     1  0.0000000  0.6508444  3
     61     59     58     62     1  0.0000000  1.2552000  3
     61     59     58     65     1  0.0000000  1.2552000  3
     61     59     71     83     1  0.0000000  0.6508444  3
     61     59     71     72     1  0.0000000  0.6508444  3
     61     59     71     73     1  0.0000000  0.6508444  3
     62     58     65     66     1  0.0000000  1.2552000  3
     62     58     65     67     1  0.0000000  1.2552000  3
     62     74     80     81     1  0.0000000  0.6508444  3
     62     74     80     82     1  0.0000000  0.6508444  3
     63     62     58     65     1  0.0000000  1.2552000  3
     63     62     74     80     1  0.0000000  0.6508444  3
     63     62     74     75     1  0.0000000  0.6508444  3
     63     62     74     76     1  0.0000000  0.6508444  3
     64     62     58     65     1  0.0000000  1.2552000  3
     64     62     74     80     1  0.0000000  0.6508444  3
     64     62     74     75     1  0.0000000  0.6508444  3
     64     62     74     76     1  0.0000000  0.6508444  3
     65     68     77     78     1  0.0000000  0.6508444  3
     65     68     77     79     1  0.0000000  0.6508444  3
     66     65     68     77     1  0.0000000  0.6508444  3
     66     65     68     69     1  0.0000000  0.6508444  3
     66     65     68     70     1  0.0000000  0.6508444  3
     67     65     68     77     1  0.0000000  0.6508444  3
     67     65     68     69     1  0.0000000  0.6508444  3
     67     65     68     70     1  0.0000000  0.6508444  3
     69     68     77     86     1  0.0000000  1.0460000  1
     69     68     77     86     1  0.0000000  0.0000000  3
     69     68     77     78     1  0.0000000  0.6508444  3
     69     68     77     79     1  0.0000000  0.6508444  3
     70     68     77     86     1  0.0000000  1.0460000  1
     70     68     77     86     1  0.0000000  0.0000000  3
     70     68     77     78     1  0.0000000  0.6508444  3
     70     68     77     79     1  0.0000000  0.6508444  3
     72     71     83    231     1  0.0000000  1.0460000  1
     72     71     83    231     1  0.0000000  0.0000000  3
     72     71     83     84     1  0.0000000  0.6508444  3
     72     71     83     85     1  0.0000000  0.6508444  3
     73     71     83    231     1  0.0000000  1.0460000  1
     73     71     83    231     1  0.0000000  0.0000000  3
     73     71     83     84     1  0.0000000  0.6508444  3
     73     71     83     85     1  0.0000000  0.6508444  3
     75     74     80    202     1  0.0000000  1.0460000  1
     75     74     80    202     1  0.0000000  0.0000000  3
     75     74     80     81     1  0.0000000  0.6508444  3
     75     74     80     82     1  0.0000000  0.6508444  3
     76     74     80    202     1  0.0000000  1.0460000  1
     76     74     80    202     1  0.0000000  0.0000000  3
     76     74     80     81     1  0.0000000  0.6508444  3
     76     74     80     82     1  0.0000000  0.6508444  3
     80    202    193    194     1  0.0000000  1.6038667  3
     80    202    193    195     1  0.0000000  1.6038667  3
     81     80    202    193     1  0.0000000  1.6038667  3
     82     80    202    193     1  0.0000000  1.6038667  3
     83    231    222    223     1  0.0000000  1.6038667  3
     83    231    222    224     1  0.0000000  1.6038667  3
     84     83    231    222     1  0.0000000  1.6038667  3
     85     83    231    222     1  0.0000000  1.6038667  3
     87     88    100    101     1  0.0000000  0.6508444  3
     87     88    100    102     1  0.0000000  0.6508444  3
     87     91    103    104     1  0.0000000  0.6508444  3
     87     91    103    105     1  0.0000000  0.6508444  3
     87     94     97     98     1  0.0000000  0.6508444  3
     87     94     97     99     1  0.0000000  0.6508444  3
     88     87     91     92     1  0.0000000  1.2552000  3
     88     87     91     93     1  0.0000000  1.2552000  3
     88     87     94     95     1  0.0000000  1.2552000  3
     88     87     94     96     1  0.0000000  1.2552000  3
     88    100    112    113     1  0.0000000  0.6508444  3
     88    100    112    114     1  0.0000000  0.6508444  3
     89     88     87     91     1  0.0000000  1.2552000  3
     89     88     87     94     1  0.0000000  1.2552000  3
     89     88    100    112     1  0.0000000  0.6508444  3
     89     88    100    101     1  0.0000000  0.6508444  3
     89     88    100    102     1  0.0000000  0.6508444  3
     90     88     87     91     1  0.0000000  1.2552000  3
     90     88     87     94     1  0.0000000  1.2552000  3
     90     88    100    112     1  0.0000000  0.6508444  3
     90     88    100    101     1  0.0000000  0.6508444  3
     90     88    100    102     1  0.0000000  0.6508444  3
     91     87     94     95     1  0.0000000  1.2552000  3
     91     87     94     96     1  0.0000000  1.2552000  3
     91    103    109    110     1  0.0000000  0.6508444  3
     91    103    109    111     1  0.0000000  0.6508444  3
     92     91     87     94     1  0.0000000  1.2552000  3
     92     91    103    109     1  0.0000000  0.6508444  3
     92     91    103    104     1  0.0000000  0.6508444  3
     92     91    103    105     1  0.0000000  0.6508444  3
     93     91     87     94     1  0.0000000  1.2552000  3
     93     91    103    109     1  0.0000000  0.6508444  3
     93     91    103    104     1  0.0000000  0.6508444  3
     93     91    103    105     1  0.0000000  0.6508444  3
     94     97    106    107     1  0.0000000  0.6508444  3
     94     97    106    108     1  0.0000000  0.6508444  3
     95     94     97    106     1  0.0000000  0.6508444  3
     95     94     97     98     1  0.0000000  0.6508444  3
     95     94     97     99     1  0.0000000  0.6508444  3
     96     94     97    106     1  0.0000000  0.6508444  3
     96     94     97     98     1  0.0000000  0.6508444  3
     96     94     97     99     1  0.0000000  0.6508444  3
     98     97    106    115     1  0.0000000  1.0460000  1
     98     97    106    115     1  0.0000000  0.0000000  3
     98     97    106    107     1  0.0000000  0.6508444  3
     98     97    106    108     1  0.0000000  0.6508444  3
     99     97    106    115     1  0.0000000  1.0460000  1
     99     97    106    115     1  0.0000000  0.0000000  3
     99     97    106    107     1  0.0000000  0.6508444  3
     99     97    106    108     1  0.0000000  0.6508444  3
    101    100    112    289     1  0.0000000  1.0460000  1
    101    100    112    289     1  0.0000000  0.0000000  3
    101    100    112    113     1  0.0000000  0.6508444  3
    101    100    112    114     1  0.0000000  0.6508444  3
    102    100    112    289     1  0.0000000  1.0460000  1
    102    100    112    289     1  0.0000000  0.0000000  3
    102    100    112    113     1  0.0000000  0.6508444  3
    102    100    112    114     1  0.0000000  0.6508444  3
    104    103    109    260     1  0.0000000  1.0460000  1
    104    103    109    260     1  0.0000000  0.0000000  3
    104    103    109    110     1  0.0000000  0.6508444  3
    104    103    109    111     1  0.0000000  0.6508444  3
    105    103    109    260     1  0.0000000  1.0460000  1
    105    103    109    260     1  0.0000000  0.0000000  3
    105    103    109    110     1  0.0000000  0.6508444  3
    105    103    109    111     1  0.0000000  0.6508444  3
    109    260    251    252     1  0.0000000  1.6038667  3
    109    260    251    253     1  0.0000000  1.6038667  3
    110    109    260    251     1  0.0000000  1.6038667  3
    111    109    260    251     1  0.0000000  1.6038667  3
    112    289    280    281     1  0.0000000  1.6038667  3
    112    289    280    282     1  0.0000000  1.6038667  3
    113    112    289    280     1  0.0000000  1.6038667  3
    114    112    289    280     1  0.0000000  1.6038667  3
    116    117    129    130     1  0.0000000  0.6508444  3
    116    117    129    131     1  0.0000000  0.6508444  3
    116    120    132    133     1  0.0000000  0.6508444  3
    116    120    132    134     1  0.0000000  0.6508444  3
    116    123    126    127     1  0.0000000  0.6508444  3
    116    123    126    128     1  0.0000000  0.6508444  3
    117    116    120    121     1  0.0000000  1.2552000  3
    117    116    120    122     1  0.0000000  1.2552000  3
    117    116    123    124     1  0.0000000  1.2552000  3
    117    116    123    125     1  0.0000000  1.2552000  3
    117    129    141    142     1  0.0000000  0.6508444  3
    117    129    141    143     1  0.0000000  0.6508444  3
    118    117    116    120     1  0.0000000  1.2552000  3
    118    117    116    123     1  0.0000000  1.2552000  3
    118    117    129    141     1  0.0000000  0.6508444  3
    118    117    129    130     1  0.0000000  0.6508444  3
    118    117    129    131     1  0.0000000  0.6508444  3
    119    117    116    120     1  0.0000000  1.2552000  3
    119    117    116    123     1  0.0000000  1.2552000  3
    119    117    129    141     1  0.0000000  0.6508444  3
    119    117    129    130     1  0.0000000  0.6508444  3
    119    117    129    131     1  0.0000000  0.6508444  3
    120    116    123    124     1  0.0000000  1.2552000  3
    120    116    123    125     1  0.0000000  1.2552000  3
    120    132    138    139     1  0.0000000  0.6508444  3
    120    132    138    140     1  0.0000000  0.6508444  3
    121    120    116    123     1  0.0000000  1.2552000  3
    121    120    132    138     1  0.0000000  0.6508444  3
    121    120    132    133     1  0.0000000  0.6508444  3
    121    120    132    134     1  0.0000000  0.6508444  3
    122    120    116    123     1  0.0000000  1.2552000  3
    122    120    132    138     1  0.0000000  0.6508444  3
    122    120    132    133     1  0.0000000  0.6508444  3
    122    120    132    134     1  0.0000000  0.6508444  3
    123    126    135    136     1  0.0000000  0.6508444  3
    123    126    135    137     1  0.0000000  0.6508444  3
    124    123    126    135     1  0.0000000  0.6508444  3
    124    123    126    127     1  0.0000000  0.6508444  3
    124    123    126    128     1  0.0000000  0.6508444  3
    125    123    126    135     1  0.0000000  0.6508444  3
    125    123    126    127     1  0.0000000  0.6508444  3
    125    123    126    128     1  0.0000000  0.6508444  3
    127    126    135    144     1  0.0000000  1.0460000  1
    127    126    135    144     1  0.0000000  0.0000000  3
    127    126    135    136     1  0.0000000  0.6508444  3
    127    126    135    137     1  0.0000000  0.6508444  3
    128    126    135    144     1  0.0000000  1.0460000  1
    128    126    135    144     1  0.0000000  0.0000000  3
    128    126    135    136     1  0.0000000  0.6508444  3
    128    126    135    137     1  0.0000000  0.6508444  3
    130    129    141    347     1  0.0000000  1.0460000  1
    130    129    141    347     1  0.0000000  0.0000000  3
    130    129    141    142     1  0.0000000  0.6508444  3
    130    129    141    143     1  0.0000000  0.6508444  3
    131    129    141    347     1  0.0000000  1.0460000  1
    131    129    141    347     1  0.0000000  0.0000000  3
    131    129    141    142     1  0.0000000  0.6508444  3
    131    129    141    143     1  0.0000000  0.6508444  3
    133    132    138    318     1  0.0000000  1.0460000  1
    133    132    138    318     1  0.0000000  0.0000000  3
    133    132    138    139     1  0.0000000  0.6508444  3
    133    132    138    140     1  0.0000000  0.6508444  3
    134    132    138    318     1  0.0000000  1.0460000  1
    134    132    138    318     1  0.0000000  0.0000000  3
    134    132    138    139     1  0.0000000  0.6508444  3
    134    132    138    140     1  0.0000000  0.6508444  3
    138    318    309    310     1  0.0000000  1.6038667  3
    138    318    309    311     1  0.0000000  1.6038667  3
    139    138    318    309     1  0.0000000  1.6038667  3
    140    138    318    309     1  0.0000000  1.6038667  3
    141    347    338    339     1  0.0000000  1.6038667  3
    141    347    338    340     1  0.0000000  1.6038667  3
    142    141    347    338     1  0.0000000  1.6038667  3
    143    141    347    338     1  0.0000000  1.6038667  3
    145    146    158    159     1  0.0000000  0.6508444  3
    145    146    158    160     1  0.0000000  0.6508444  3
    145    149    161    162     1  0.0000000  0.6508444  3
    145    149    161    163     1  0.0000000  0.6508444  3
    145    152    155    156     1  0.0000000  0.6508444  3
    145    152    155    157     1  0.0000000  0.6508444  3
    146    145    149    150     1  0.0000000  1.2552000  3
    146    145    149    151     1  0.0000000  1.2552000  3
    146    145    152    153     1  0.0000000  1.2552000  3
    146    145    152    154     1  0.0000000  1.2552000  3
    146    158    170    171     1  0.0000000  0.6508444  3
    146    158    170    172     1  0.0000000  0.6508444  3
    147    146    145    149     1  0.0000000  1.2552000  3
    147    146    145    152     1  0.0000000  1.2552000  3
    147    146    158    170     1  0.0000000  0.6508444  3
    147    146    158    159     1  0.0000000  0.6508444  3
    147    146    158    160     1  0.0000000  0.6508444  3
    148    146    145    149     1  0.0000000  1.2552000  3
    148    146    145    152     1  0.0000000  1.2552000  3
    148    146    158    170     1  0.0000000  0.6508444  3
    148    146    158    159     1  0.0000000  0.6508444  3
    148    146    158    160     1  0.0000000  0.6508444  3
    149    145    152    153     1  0.0000000  1.2552000  3
    149    145    152    154     1  0.0000000  1.2552000  3
    149    161    167    168     1  0.0000000  0.6508444  3
    149    161    167    169     1  0.0000000  0.6508444  3
    150    149    145    152     1  0.0000000  1.2552000  3
    150    149    161    167     1  0.0000000  0.6508444  3
    150    149    161    162     1  0.0000000  0.6508444  3
    150    149    161    163     1  0.0000000  0.6508444  3
    151    149    145    152     1  0.0000000  1.2552000  3
    151    149    161    167     1  0.0000000  0.6508444  3
    151    149    161    162     1  0.0000000  0.6508444  3
    151    149    161    163     1  0.0000000  0.6508444  3
    152    155    164    165     1  0.0000000  0.6508444  3
    152    155    164    166     1  0.0000000  0.6508444  3
    153    152    155    164     1  0.0000000  0.6508444  3
    153    152    155    156     1  0.0000000  0.6508444  3
    153    152    155    157     1  0.0000000  0.6508444  3
    154    152    155    164     1  0.0000000  0.6508444  3
    154    152    155    156     1  0.0000000  0.6508444  3
    154    152    155    157     1  0.0000000  0.6508444  3
    156    155    164    173     1  0.0000000  1.0460000  1
    156    155    164    173     1  0.0000000  0.0000000  3
    156    155    164    165     1  0.0000000  0.6508444  3
    156    155    164    166     1  0.0000000  0.6508444  3
    157    155    164    173     1  0.0000000  1.0460000  1
    157    155    164    173     1  0.0000000  0.0000000  3
    157    155    164    165     1  0.0000000  0.6508444  3
    157    155    164    166     1  0.0000000  0.6508444  3
    159    158    170    405     1  0.0000000  1.0460000  1
    159    158    170    405     1  0.0000000  0.0000000  3
    159    158    170    171     1  0.0000000  0.6508444  3
    159    158    170    172     1  0.0000000  0.6508444  3
    160    158    170    405     1  0.0000000  1.0460000  1
    160    158    170    405     1  0.0000000  0.0000000  3
    160    158    170    171     1  0.0000000  0.6508444  3
    160    158    170    172     1  0.0000000  0.6508444  3
    162    161    167    376     1  0.0000000  1.0460000  1
    162    161    167    376     1  0.0000000  0.0000000  3
    162    161    167    168     1  0.0000000  0.6508444  3
    162    161    167    169     1  0.0000000  0.6508444  3
    163    161    167    376     1  0.0000000  1.0460000  1
    163    161    167    376     1  0.0000000  0.0000000  3
    163    161    167    168     1  0.0000000  0.6508444  3
    163    161    167    169     1  0.0000000  0.6508444  3
    167    376    367    368     1  0.0000000  1.6038667  3
    167    376    367    369     1  0.0000000  1.6038667  3
    168    167    376    367     1  0.0000000  1.6038667  3
    169    167    376    367     1  0.0000000  1.6038667  3
    170    405    396    397     1  0.0000000  1.6038667  3
    170    405    396    398     1  0.0000000  1.6038667  3
    171    170    405    396     1  0.0000000  1.6038667  3
    172    170    405    396     1  0.0000000  1.6038667  3
    174    175    187    188     1  0.0000000  0.6508444  3
    174    175    187    189     1  0.0000000  0.6508444  3
    174    178    190    191     1  0.0000000  0.6508444  3
    174    178    190    192     1  0.0000000  0.6508444  3
    174    181    184    185     1  0.0000000  0.6508444  3
    174    181    184    186     1  0.0000000  0.6508444  3
    175    174    178    179     1  0.0000000  1.2552000  3
    175    174    178    180     1  0.0000000  1.2552000  3
    175    174    181    182     1  0.0000000  1.2552000  3
    175    174    181    183     1  0.0000000  1.2552000  3
    175    187    199    200     1  0.0000000  0.6508444  3
    175    187    199    201     1  0.0000000  0.6508444  3
    176    175    174    178     1  0.0000000  1.2552000  3
    176    175    174    181     1  0.0000000  1.2552000  3
    176    175    187    199     1  0.0000000  0.6508444  3
    176    175    187    188     1  0.0000000  0.6508444  3
    176    175    187    189     1  0.0000000  0.6508444  3
    177    175    174    178     1  0.0000000  1.2552000  3
    177    175    174    181     1  0.0000000  1.2552000  3
    177    175    187    199     1  0.0000000  0.6508444  3
    177    175    187    188     1  0.0000000  0.6508444  3
    177    175    187    189     1  0.0000000  0.6508444  3
    178    174    181    182     1  0.0000000  1.2552000  3
    178    174    181    183     1  0.0000000  1.2552000  3
    178    190    196    197     1  0.0000000  0.6508444  3
    178    190    196    198     1  0.0000000  0.6508444  3
    179    178    174    181     1  0.0000000  1.2552000  3
    179    178    190    196     1  0.0000000  0.6508444  3
    179    178    190    191     1  0.0000000  0.6508444  3
    179    178    190    192     1  0.0000000  0.6508444  3
    180    178    174    181     1  0.0000000  1.2552000  3
    180    178    190    196     1  0.0000000  0.6508444  3
    180    178    190    191     1  0.0000000  0.6508444  3
    180    178    190    192     1  0.0000000  0.6508444  3
    181    184    193    194     1  0.0000000  0.6508444  3
    181    184    193    195     1  0.0000000  0.6508444  3
    182    181    184    193     1  0.0000000  0.6508444  3
    182    181    184    185     1  0.0000000  0.6508444  3
    182    181    184    186     1  0.0000000  0.6508444  3
    183    181    184    193     1  0.0000000  0.6508444  3
    183    181    184    185     1  0.0000000  0.6508444  3
    183    181    184    186     1  0.0000000  0.6508444  3
    185    184    193    202     1  0.0000000  1.0460000  1
    185    184    193    202     1  0.0000000  0.0000000  3
    185    184    193    194     1  0.0000000  0.6508444  3
    185    184    193    195     1  0.0000000  0.6508444  3
    186    184    193    202     1  0.0000000  1.0460000  1
    186    184    193    202     1  0.0000000  0.0000000  3
    186    184    193    194     1  0.0000000  0.6508444  3
    186    184    193    195     1  0.0000000  0.6508444  3
    188    187    199    463     1  0.0000000  1.0460000  1
    188    187    199    463     1  0.0000000  0.0000000  3
    188    187    199    200     1  0.0000000  0.6508444  3
    188    187    199    201     1  0.0000000  0.6508444  3
    189    187    199    463     1  0.0000000  1.0460000  1
    189    187    199    463     1  0.0000000  0.0000000  3
    189    187    199    200     1  0.0000000  0.6508444  3
    189    187    199    201     1  0.0000000  0.6508444  3
    191    190    196    434     1  0.0000000  1.0460000  1
    191    190    196    434     1  0.0000000  0.0000000  3
    191    190    196    197     1  0.0000000  0.6508444  3
    191    190    196    198     1  0.0000000  0.6508444  3
    192    190    196    434     1  0.0000000  1.0460000  1
    192    190    196    434     1  0.0000000  0.0000000  3
    192    190    196    197     1  0.0000000  0.6508444  3
    192    190    196    198     1  0.0000000  0.6508444  3
    196    434    425    426     1  0.0000000  1.6038667  3
    196    434    425    427     1  0.0000000  1.6038667  3
    197    196    434    425     1  0.0000000  1.6038667  3
    198    196    434    425     1  0.0000000  1.6038667  3
    199    463    454    455     1  0.0000000  1.6038667  3
    199    463    454    456     1  0.0000000  1.6038667  3
    200    199    463    454     1  0.0000000  1.6038667  3
    201    199    463    454     1  0.0000000  1.6038667  3
    203    204    216    217     1  0.0000000  0.6508444  3
    203    204    216    218     1  0.0000000  0.6508444  3
    203    207    219    220     1  0.0000000  0.6508444  3
    203    207    219    221     1  0.0000000  0.6508444  3
    203    210    213    214     1  0.0000000  0.6508444  3
    203    210    213    215     1  0.0000000  0.6508444  3
    204    203    207    208     1  0.0000000  1.2552000  3
    204    203    207    209     1  0.0000000  1.2552000  3
    204    203    210    211     1  0.0000000  1.2552000  3
    204    203    210    212     1  0.0000000  1.2552000  3
    204    216    228    229     1  0.0000000  0.6508444  3
    204    216    228    230     1  0.0000000  0.6508444  3
    205    204    203    207     1  0.0000000  1.2552000  3
    205    204    203    210     1  0.0000000  1.2552000  3
    205    204    216    228     1  0.0000000  0.6508444  3
    205    204    216    217     1  0.0000000  0.6508444  3
    205    204    216    218     1  0.0000000  0.6508444  3
    206    204    203    207     1  0.0000000  1.2552000  3
    206    204    203    210     1  0.0000000  1.2552000  3
    206    204    216    228     1  0.0000000  0.6508444  3
    206    204    216    217     1  0.0000000  0.6508444  3
    206    204    216    218     1  0.0000000  0.6508444  3
    207    203    210    211     1  0.0000000  1.2552000  3
    207    203    210    212     1  0.0000000  1.2552000  3
    207    219    225    226     1  0.0000000  0.6508444  3
    207    219    225    227     1  0.0000000  0.6508444  3
    208    207    203    210     1  0.0000000  1.2552000  3
    208    207    219    225     1  0.0000000  0.6508444  3
    208    207    219    220     1  0.0000000  0.6508444  3
    208    207    219    221     1  0.0000000  0.6508444  3
    209    207    203    210     1  0.0000000  1.2552000  3
    209    207    219    225     1  0.0000000  0.6508444  3
    209    207    219    220     1  0.0000000  0.6508444  3
    209    207    219    221     1  0.0000000  0.6508444  3
    210    213    222    223     1  0.0000000  0.6508444  3
    210    213    222    224     1  0.0000000  0.6508444  3
    211    210    213    222     1  0.0000000  0.6508444  3
    211    210    213    214     1  0.0000000  0.6508444  3
    211    210    213    215     1  0.0000000  0.6508444  3
    212    210    213    222     1  0.0000000  0.6508444  3
    212    210    213    214     1  0.0000000  0.6508444  3
    212    210    213    215     1  0.0000000  0.6508444  3
    214    213    222    231     1  0.0000000  1.0460000  1
    214    213    222    231     1  0.0000000  0.0000000  3
    214    213    222    223     1  0.0000000  0.6508444  3
    214    213    222    224     1  0.0000000  0.6508444  3
    215    213    222    231     1  0.0000000  1.0460000  1
    215    213    222    231     1  0.0000000  0.0000000  3
    215    213    222    223     1  0.0000000  0.6508444  3
    215    213    222    224     1  0.0000000  0.6508444  3
    217    216    228    521     1  0.0000000  1.0460000  1
    217    216    228    521     1  0.0000000  0.0000000  3
    217    216    228    229     1  0.0000000  0.6508444  3
    217    216    228    230     1  0.0000000  0.6508444  3
    218    216    228    521     1  0.0000000  1.0460000  1
    218    216    228    521     1  0.0000000  0.0000000  3
    218    216    228    229     1  0.0000000  0.6508444  3
    218    216    228    230     1  0.0000000  0.6508444  3
    220    219    225    492     1  0.0000000  1.0460000  1
    220    219    225    492     1  0.0000000  0.0000000  3
    220    219    225    226     1  0.0000000  0.6508444  3
    220    219    225    227     1  0.0000000  0.6508444  3
    221    219    225    492     1  0.0000000  1.0460000  1
    221    219    225    492     1  0.0000000  0.0000000  3
    221    219    225    226     1  0.0000000  0.6508444  3
    221    219    225    227     1  0.0000000  0.6508444  3
    225    492    483    484     1  0.0000000  1.6038667  3
    225    492    483    485     1  0.0000000  1.6038667  3
    226    225    492    483     1  0.0000000  1.6038667  3
    227    225    492    483     1  0.0000000  1.6038667  3
    228    521    512    513     1  0.0000000  1.6038667  3
    228    521    512    514     1  0.0000000  1.6038667  3
    229    228    521    512     1  0.0000000  1.6038667  3
    230    228    521    512     1  0.0000000  1.6038667  3
    232    233    245    246     1  0.0000000  0.6508444  3
    232    233    245    247     1  0.0000000  0.6508444  3
    232    236    248    249     1  0.0000000  0.6508444  3
    232    236    248    250     1  0.0000000  0.6508444  3
    232    239    242    243     1  0.0000000  0.6508444  3
    232    239    242    244     1  0.0000000  0.6508444  3
    233    232    236    237     1  0.0000000  1.2552000  3
    233    232    236    238     1  0.0000000  1.2552000  3
    233    232    239    240     1  0.0000000  1.2552000  3
    233    232    239    241     1  0.0000000  1.2552000  3
    233    245    257    258     1  0.0000000  0.6508444  3
    233    245    257    259     1  0.0000000  0.6508444  3
    234    233    232    236     1  0.0000000  1.2552000  3
    234    233    232    239     1  0.0000000  1.2552000  3
    234    233    245    257     1  0.0000000  0.6508444  3
    234    233    245    246     1  0.0000000  0.6508444  3
    234    233    245    247     1  0.0000000  0.6508444  3
    235    233    232    236     1  0.0000000  1.2552000  3
    235    233    232    239     1  0.0000000  1.2552000  3
    235    233    245    257     1  0.0000000  0.6508444  3
    235    233    245    246     1  0.0000000  0.6508444  3
    235    233    245    247     1  0.0000000  0.6508444  3
    236    232    239    240     1  0.0000000  1.2552000  3
    236    232    239    241     1  0.0000000  1.2552000  3
    236    248    254    255     1  0.0000000  0.6508444  3
    236    248    254    256     1  0.0000000  0.6508444  3
    237    236    232    239     1  0.0000000  1.2552000  3
    237    236    248    254     1  0.0000000  0.6508444  3
    237    236    248    249     1  0.0000000  0.6508444  3
    237    236    248    250     1  0.0000000  0.6508444  3
    238    236    232    239     1  0.0000000  1.2552000  3
    238    236    248    254     1  0.0000000  0.6508444  3
    238    236    248    249     1  0.0000000  0.6508444  3
    238    236    248    250     1  0.0000000  0.6508444  3
    239    242    251    252     1  0.0000000  0.6508444  3
    239    242    251    253     1  0.0000000  0.6508444  3
    240    239    242    251     1  0.0000000  0.6508444  3
    240    239    242    243     1  0.0000000  0.6508444  3
    240    239    242    244     1  0.0000000  0.6508444  3
    241    239    242    251     1  0.0000000  0.6508444  3
    241    239    242    243     1  0.0000000  0.6508444  3
    241    239    242    244     1  0.0000000  0.6508444  3
    243    242    251    260     1  0.0000000  1.0460000  1
    243    242    251    260     1  0.0000000  0.0000000  3
    243    242    251    252     1  0.0000000  0.6508444  3
    243    242    251    253     1  0.0000000  0.6508444  3
    244    242    251    260     1  0.0000000  1.0460000  1
    244    242    251    260     1  0.0000000  0.0000000  3
    244    242    251    252     1  0.0000000  0.6508444  3
    244    242    251    253     1  0.0000000  0.6508444  3
    246    245    257    579     1  0.0000000  1.0460000  1
    246    245    257    579     1  0.0000000  0.0000000  3
    246    245    257    258     1  0.0000000  0.6508444  3
    246    245    257    259     1  0.0000000  0.6508444  3
    247    245    257    579     1  0.0000000  1.0460000  1
    247    245    257    579     1  0.0000000  0.0000000  3
    247    245    257    258     1  0.0000000  0.6508444  3
    247    245    257    259     1  0.0000000  0.6508444  3
    249    248    254    550     1  0.0000000  1.0460000  1
    249    248    254    550     1  0.0000000  0.0000000  3
    249    248    254    255     1  0.0000000  0.6508444  3
    249    248    254    256     1  0.0000000  0.6508444  3
    250    248    254    550     1  0.0000000  1.0460000  1
    250    248    254    550     1  0.0000000  0.0000000  3
    250    248    254    255     1  0.0000000  0.6508444  3
    250    248    254    256     1  0.0000000  0.6508444  3
    254    550    541    542     1  0.0000000  1.6038667  3
    254    550    541    543     1  0.0000000  1.6038667  3
    255    254    550    541     1  0.0000000  1.6038667  3
    256    254    550    541     1  0.0000000  1.6038667  3
    257    579    570    571     1  0.0000000  1.6038667  3
    257    579    570    572     1  0.0000000  1.6038667  3
    258    257    579    570     1  0.0000000  1.6038667  3
    259    257    579    570     1  0.0000000  1.6038667  3
    261    262    274    275     1  0.0000000  0.6508444  3
    261    262    274    276     1  0.0000000  0.6508444  3
    261    265    277    278     1  0.0000000  0.6508444  3
    261    265    277    279     1  0.0000000  0.6508444  3
    261    268    271    272     1  0.0000000  0.6508444  3
    261    268    271    273     1  0.0000000  0.6508444  3
    262    261    265    266     1  0.0000000  1.2552000  3
    262    261    265    267     1  0.0000000  1.2552000  3
    262    261    268    269     1  0.0000000  1.2552000  3
    262    261    268    270     1  0.0000000  1.2552000  3
    262    274    286    287     1  0.0000000  0.6508444  3
    262    274    286    288     1  0.0000000  0.6508444  3
    263    262    261    265     1  0.0000000  1.2552000  3
    263    262    261    268     1  0.0000000  1.2552000  3
    263    262    274    286     1  0.0000000  0.6508444  3
    263    262    274    275     1  0.0000000  0.6508444  3
    263    262    274    276     1  0.0000000  0.6508444  3
    264    262    261    265     1  0.0000000  1.2552000  3
    264    262    261    268     1  0.0000000  1.2552000  3
    264    262    274    286     1  0.0000000  0.6508444  3
    264    262    274    275     1  0.0000000  0.6508444  3
    264    262    274    276     1  0.0000000  0.6508444  3
    265    261    268    269     1  0.0000000  1.2552000  3
    265    261    268    270     1  0.0000000  1.2552000  3
    265    277    283    284     1  0.0000000  0.6508444  3
    265    277    283    285     1  0.0000000  0.6508444  3
    266    265    261    268     1  0.0000000  1.2552000  3
    266    265    277    283     1  0.0000000  0.6508444  3
    266    265    277    278     1  0.0000000  0.6508444  3
    266    265    277    279     1  0.0000000  0.6508444  3
    267    265    261    268     1  0.0000000  1.2552000  3
    267    265    277    283     1  0.0000000  0.6508444  3
    267    265    277    278     1  0.0000000  0.6508444  3
    267    265    277    279     1  0.0000000  0.6508444  3
    268    271    280    281     1  0.0000000  0.6508444  3
    268    271    280    282     1  0.0000000  0.6508444  3
    269    268    271    280     1  0.0000000  0.6508444  3
    269    268    271    272     1  0.0000000  0.6508444  3
    269    268    271    273     1  0.0000000  0.6508444  3
    270    268    271    280     1  0.0000000  0.6508444  3
    270    268    271    272     1  0.0000000  0.6508444  3
    270    268    271    273     1  0.0000000  0.6508444  3
    272    271    280    289     1  0.0000000  1.0460000  1
    272    271    280    289     1  0.0000000  0.0000000  3
    272    271    280    281     1  0.0000000  0.6508444  3
    272    271    280    282     1  0.0000000  0.6508444  3
    273    271    280    289     1  0.0000000  1.0460000  1
    273    271    280    289     1  0.0000000  0.0000000  3
    273    271    280    281     1  0.0000000  0.6508444  3
    273    271    280    282     1  0.0000000  0.6508444  3
    275    274    286    637     1  0.0000000  1.0460000  1
    275    274    286    637     1  0.0000000  0.0000000  3
    275    274    286    287     1  0.0000000  0.6508444  3
    275    274    286    288     1  0.0000000  0.6508444  3
    276    274    286    637     1  0.0000000  1.0460000  1
    276    274    286    637     1  0.0000000  0.0000000  3
    276    274    286    287     1  0.0000000  0.6508444  3
    276    274    286    288     1  0.0000000  0.6508444  3
    278    277    283    608     1  0.0000000  1.0460000  1
    278    277    283    608     1  0.0000000  0.0000000  3
    278    277    283    284     1  0.0000000  0.6508444  3
    278    277    283    285     1  0.0000000  0.6508444  3
    279    277    283    608     1  0.0000000  1.0460000  1
    279    277    283    608     1  0.0000000  0.0000000  3
    279    277    283    284     1  0.0000000  0.6508444  3
    279    277    283    285     1  0.0000000  0.6508444  3
    283    608    599    600     1  0.0000000  1.6038667  3
    283    608    599    601     1  0.0000000  1.6038667  3
    284    283    608    599     1  0.0000000  1.6038667  3
    285    283    608    599     1  0.0000000  1.6038667  3
    286    637    628    629     1  0.0000000  1.6038667  3
    286    637    628    630     1  0.0000000  1.6038667  3
    287    286    637    628     1  0.0000000  1.6038667  3
    288    286    637    628     1  0.0000000  1.6038667  3
    290    291    303    304     1  0.0000000  0.6508444  3
    290    291    303    305     1  0.0000000  0.6508444  3
    290    294    306    307     1  0.0000000  0.6508444  3
    290    294    306    308     1  0.0000000  0.6508444  3
    290    297    300    301     1  0.0000000  0.6508444  3
    290    297    300    302     1  0.0000000  0.6508444  3
    291    290    294    295     1  0.0000000  1.2552000  3
    291    290    294    296     1  0.0000000  1.2552000  3
    291    290    297    298     1  0.0000000  1.2552000  3
    291    290    297    299     1  0.0000000  1.2552000  3
    291    303    315    316     1  0.0000000  0.6508444  3
    291    303    315    317     1  0.0000000  0.6508444  3
    292    291    290    294     1  0.0000000  1.2552000  3
    292    291    290    297     1  0.0000000  1.2552000  3
    292    291    303    315     1  0.0000000  0.6508444  3
    292    291    303    304     1  0.0000000  0.6508444  3
    292    291    303    305     1  0.0000000  0.6508444  3
    293    291    290    294     1  0.0000000  1.2552000  3
    293    291    290    297     1  0.0000000  1.2552000  3
    293    291    303    315     1  0.0000000  0.6508444  3
    293    291    303    304     1  0.0000000  0.6508444  3
    293    291    303    305     1  0.0000000  0.6508444  3
    294    290    297    298     1  0.0000000  1.2552000  3
    294    290    297    299     1  0.0000000  1.2552000  3
    294    306    312    313     1  0.0000000  0.6508444  3
    294    306    312    314     1  0.0000000  0.6508444  3
    295    294    290    297     1  0.0000000  1.2552000  3
    295    294    306    312     1  0.0000000  0.6508444  3
    295    294    306    307     1  0.0000000  0.6508444  3
    295    294    306    308     1  0.0000000  0.6508444  3
    296    294    290    297     1  0.0000000  1.2552000  3
    296    294    306    312     1  0.0000000  0.6508444  3
    296    294    306    307     1  0.0000000  0.6508444  3
    296    294    306    308     1  0.0000000  0.6508444  3
    297    300    309    310     1  0.0000000  0.6508444  3
    297    300    309    311     1  0.0000000  0.6508444  3
    298    297    300    309     1  0.0000000  0.6508444  3
    298    297    300    301     1  0.0000000  0.6508444  3
    298    297    300    302     1  0.0000000  0.6508444  3
    299    297    300    309     1  0.0000000  0.6508444  3
    299    297    300    301     1  0.0000000  0.6508444  3
    299    297    300    302     1  0.0000000  0.6508444  3
    301    300    309    318     1  0.0000000  1.0460000  1
    301    300    309    318     1  0.0000000  0.0000000  3
    301    300    309    310     1  0.0000000  0.6508444  3
    301    300    309    311     1  0.0000000  0.6508444  3
    302    300    309    318     1  0.0000000  1.0460000  1
    302    300    309    318     1  0.0000000  0.0000000  3
    302    300    309    310     1  0.0000000  0.6508444  3
    302    300    309    311     1  0.0000000  0.6508444  3
    304    303    315    695     1  0.0000000  1.0460000  1
    304    303    315    695     1  0.0000000  0.0000000  3
    304    303    315    316     1  0.0000000  0.6508444  3
    304    303    315    317     1  0.0000000  0.6508444  3
    305    303    315    695     1  0.0000000  1.0460000  1
    305    303    315    695     1  0.0000000  0.0000000  3
    305    303    315    316     1  0.0000000  0.6508444  3
    305    303    315    317     1  0.0000000  0.6508444  3
    307    306    312    666     1  0.0000000  1.0460000  1
    307    306    312    666     1  0.0000000  0.0000000  3
    307    306    312    313     1  0.0000000  0.6508444  3
    307    306    312    314     1  0.0000000  0.6508444  3
    308    306    312    666     1  0.0000000  1.0460000  1
    308    306    312    666     1  0.0000000  0.0000000  3
    308    306    312    313     1  0.0000000  0.6508444  3
    308    306    312    314     1  0.0000000  0.6508444  3
    312    666    657    658     1  0.0000000  1.6038667  3
    312    666    657    659     1  0.0000000  1.6038667  3
    313    312    666    657     1  0.0000000  1.6038667  3
    314    312    666    657     1  0.0000000  1.6038667  3
    315    695    686    687     1  0.0000000  1.6038667  3
    315    695    686    688     1  0.0000000  1.6038667  3
    316    315    695    686     1  0.0000000  1.6038667  3
    317    315    695    686     1  0.0000000  1.6038667  3
    319    320    332    333     1  0.0000000  0.6508444  3
    319    320    332    334     1  0.0000000  0.6508444  3
    319    323    335    336     1  0.0000000  0.6508444  3
    319    323    335    337     1  0.0000000  0.6508444  3
    319    326    329    330     1  0.0000000  0.6508444  3
    319    326    329    331     1  0.0000000  0.6508444  3
    320    319    323    324     1  0.0000000  1.2552000  3
    320    319    323    325     1  0.0000000  1.2552000  3
    320    319    326    327     1  0.0000000  1.2552000  3
    320    319    326    328     1  0.0000000  1.2552000  3
    320    332    344    345     1  0.0000000  0.6508444  3
    320    332    344    346     1  0.0000000  0.6508444  3
    321    320    319    323     1  0.0000000  1.2552000  3
    321    320    319    326     1  0.0000000  1.2552000  3
    321    320    332    344     1  0.0000000  0.6508444  3
    321    320    332    333     1  0.0000000  0.6508444  3
    321    320    332    334     1  0.0000000  0.6508444  3
    322    320    319    323     1  0.0000000  1.2552000  3
    322    320    319    326     1  0.0000000  1.2552000  3
    322    320    332    344     1  0.0000000  0.6508444  3
    322    320    332    333     1  0.0000000  0.6508444  3
    322    320    332    334     1  0.0000000  0.6508444  3
    323    319    326    327     1  0.0000000  1.2552000  3
    323    319    326    328     1  0.0000000  1.2552000  3
    323    335    341    342     1  0.0000000  0.6508444  3
    323    335    341    343     1  0.0000000  0.6508444  3
    324    323    319    326     1  0.0000000  1.2552000  3
    324    323    335    341     1  0.0000000  0.6508444  3
    324    323    335    336     1  0.0000000  0.6508444  3
    324    323    335    337     1  0.0000000  0.6508444  3
    325    323    319    326     1  0.0000000  1.2552000  3
    325    323    335    341     1  0.0000000  0.6508444  3
    325    323    335    336     1  0.0000000  0.6508444  3
    325    323    335    337     1  0.0000000  0.6508444  3
    326    329    338    339     1  0.0000000  0.6508444  3
    326    329    338    340     1  0.0000000  0.6508444  3
    327    326    329    338     1  0.0000000  0.6508444  3
    327    326    329    330     1  0.0000000  0.6508444  3
    327    326    329    331     1  0.0000000  0.6508444  3
    328    326    329    338     1  0.0000000  0.6508444  3
    328    326    329    330     1  0.0000000  0.6508444  3
    328    326    329    331     1  0.0000000  0.6508444  3
    330    329    338    347     1  0.0000000  1.0460000  1
    330    329    338    347     1  0.0000000  0.0000000  3
    330    329    338    339     1  0.0000000  0.6508444  3
    330    329    338    340     1  0.0000000  0.6508444  3
    331    329    338    347     1  0.0000000  1.0460000  1
    331    329    338    347     1  0.0000000  0.0000000  3
    331    329    338    339     1  0.0000000  0.6508444  3
    331    329    338    340     1  0.0000000  0.6508444  3
    333    332    344    753     1  0.0000000  1.0460000  1
    333    332    344    753     1  0.0000000  0.0000000  3
    333    332    344    345     1  0.0000000  0.6508444  3
    333    332    344    346     1  0.0000000  0.6508444  3
    334    332    344    753     1  0.0000000  1.0460000  1
    334    332    344    753     1  0.0000000  0.0000000  3
    334    332    344    345     1  0.0000000  0.6508444  3
    334    332    344    346     1  0.0000000  0.6508444  3
    336    335    341    724     1  0.0000000  1.0460000  1
    336    335    341    724     1  0.0000000  0.0000000  3
    336    335    341    342     1  0.0000000  0.6508444  3
    336    335    341    343     1  0.0000000  0.6508444  3
    337    335    341    724     1  0.0000000  1.0460000  1
    337    335    341    724     1  0.0000000  0.0000000  3
    337    335    341    342     1  0.0000000  0.6508444  3
    337    335    341    343     1  0.0000000  0.6508444  3
    341    724    715    716     1  0.0000000  1.6038667  3
    341    724    715    717     1  0.0000000  1.6038667  3
    342    341    724    715     1  0.0000000  1.6038667  3
    343    341    724    715     1  0.0000000  1.6038667  3
    344    753    744    745     1  0.0000000  1.6038667  3
    344    753    744    746     1  0.0000000  1.6038667  3
    345    344    753    744     1  0.0000000  1.6038667  3
    346    344    753    744     1  0.0000000  1.6038667  3
    348    349    361    362     1  0.0000000  0.6508444  3
    348    349    361    363     1  0.0000000  0.6508444  3
    348    352    364    365     1  0.0000000  0.6508444  3
    348    352    364    366     1  0.0000000  0.6508444  3
    348    355    358    359     1  0.0000000  0.6508444  3
    348    355    358    360     1  0.0000000  0.6508444  3
    349    348    352    353     1  0.0000000  1.2552000  3
    349    348    352    354     1  0.0000000  1.2552000  3
    349    348    355    356     1  0.0000000  1.2552000  3
    349    348    355    357     1  0.0000000  1.2552000  3
    349    361    373    374     1  0.0000000  0.6508444  3
    349    361    373    375     1  0.0000000  0.6508444  3
    350    349    348    352     1  0.0000000  1.2552000  3
    350    349    348    355     1  0.0000000  1.2552000  3
    350    349    361    373     1  0.0000000  0.6508444  3
    350    349    361    362     1  0.0000000  0.6508444  3
    350    349    361    363     1  0.0000000  0.6508444  3
    351    349    348    352     1  0.0000000  1.2552000  3
    351    349    348    355     1  0.0000000  1.2552000  3
    351    349    361    373     1  0.0000000  0.6508444  3
    351    349    361    362     1  0.0000000  0.6508444  3
    351    349    361    363     1  0.0000000  0.6508444  3
    352    348    355    356     1  0.0000000  1.2552000  3
    352    348    355    357     1  0.0000000  1.2552000  3
    352    364    370    371     1  0.0000000  0.6508444  3
    352    364    370    372     1  0.0000000  0.6508444  3
    353    352    348    355     1  0.0000000  1.2552000  3
    353    352    364    370     1  0.0000000  0.6508444  3
    353    352    364    365     1  0.0000000  0.6508444  3
    353    352    364    366     1  0.0000000  0.6508444  3
    354    352    348    355     1  0.0000000  1.2552000  3
    354    352    364    370     1  0.0000000  0.6508444  3
    354    352    364    365     1  0.0000000  0.6508444  3
    354    352    364    366     1  0.0000000  0.6508444  3
    355    358    367    368     1  0.0000000  0.6508444  3
    355    358    367    369     1  0.0000000  0.6508444  3
    356    355    358    367     1  0.0000000  0.6508444  3
    356    355    358    359     1  0.0000000  0.6508444  3
    356    355    358    360     1  0.0000000  0.6508444  3
    357    355    358    367     1  0.0000000  0.6508444  3
    357    355    358    359     1  0.0000000  0.6508444  3
    357    355    358    360     1  0.0000000  0.6508444  3
    359    358    367    376     1  0.0000000  1.0460000  1
    359    358    367    376     1  0.0000000  0.0000000  3
    359    358    367    368     1  0.0000000  0.6508444  3
    359    358    367    369     1  0.0000000  0.6508444  3
    360    358    367    376     1  0.0000000  1.0460000  1
    360    358    367    376     1  0.0000000  0.0000000  3
    360    358    367    368     1  0.0000000  0.6508444  3
    360    358    367    369     1  0.0000000  0.6508444  3
    362    361    373    811     1  0.0000000  1.0460000  1
    362    361    373    811     1  0.0000000  0.0000000  3
    362    361    373    374     1  0.0000000  0.6508444  3
    362    361    373    375     1  0.0000000  0.6508444  3
    363    361    373    811     1  0.0000000  1.0460000  1
    363    361    373    811     1  0.0000000  0.0000000  3
    363    361    373    374     1  0.0000000  0.6508444  3
    363    361    373    375     1  0.0000000  0.6508444  3
    365    364    370    782     1  0.0000000  1.0460000  1
    365    364    370    782     1  0.0000000  0.0000000  3
    365    364    370    371     1  0.0000000  0.6508444  3
    365    364    370    372     1  0.0000000  0.6508444  3
    366    364    370    782     1  0.0000000  1.0460000  1
    366    364    370    782     1  0.0000000  0.0000000  3
    366    364    370    371     1  0.0000000  0.6508444  3
    366    364    370    372     1  0.0000000  0.6508444  3
    370    782    773    774     1  0.0000000  1.6038667  3
    370    782    773    775     1  0.0000000  1.6038667  3
    371    370    782    773     1  0.0000000  1.6038667  3
    372    370    782    773     1  0.0000000  1.6038667  3
    373    811    802    803     1  0.0000000  1.6038667  3
    373    811    802    804     1  0.0000000  1.6038667  3
    374    373    811    802     1  0.0000000  1.6038667  3
    375    373    811    802     1  0.0000000  1.6038667  3
    377    378    390    391     1  0.0000000  0.6508444  3
    377    378    390    392     1  0.0000000  0.6508444  3
    377    381    393    394     1  0.0000000  0.6508444  3
    377    381    393    395     1  0.0000000  0.6508444  3
    377    384    387    388     1  0.0000000  0.6508444  3
    377    384    387    389     1  0.0000000  0.6508444  3
    378    377    381    382     1  0.0000000  1.2552000  3
    378    377    381    383     1  0.0000000  1.2552000  3
    378    377    384    385     1  0.0000000  1.2552000  3
    378    377    384    386     1  0.0000000  1.2552000  3
    378    390    402    403     1  0.0000000  0.6508444  3
    378    390    402    404     1  0.0000000  0.6508444  3
    379    378    377    381     1  0.0000000  1.2552000  3
    379    378    377    384     1  0.0000000  1.2552000  3
    379    378    390    402     1  0.0000000  0.6508444  3
    379    378    390    391     1  0.0000000  0.6508444  3
    379    378    390    392     1  0.0000000  0.6508444  3
    380    378    377    381     1  0.0000000  1.2552000  3
    380    378    377    384     1  0.0000000  1.2552000  3
    380    378    390    402     1  0.0000000  0.6508444  3
    380    378    390    391     1  0.0000000  0.6508444  3
    380    378    390    392     1  0.0000000  0.6508444  3
    381    377    384    385     1  0.0000000  1.2552000  3
    381    377    384    386     1  0.0000000  1.2552000  3
    381    393    399    400     1  0.0000000  0.6508444  3
    381    393    399    401     1  0.0000000  0.6508444  3
    382    381    377    384     1  0.0000000  1.2552000  3
    382    381    393    399     1  0.0000000  0.6508444  3
    382    381    393    394     1  0.0000000  0.6508444  3
    382    381    393    395     1  0.0000000  0.6508444  3
    383    381    377    384     1  0.0000000  1.2552000  3
    383    381    393    399     1  0.0000000  0.6508444  3
    383    381    393    394     1  0.0000000  0.6508444  3
    383    381    393    395     1  0.0000000  0.6508444  3
    384    387    396    397     1  0.0000000  0.6508444  3
    384    387    396    398     1  0.0000000  0.6508444  3
    385    384    387    396     1  0.0000000  0.6508444  3
    385    384    387    388     1  0.0000000  0.6508444  3
    385    384    387    389     1  0.0000000  0.6508444  3
    386    384    387    396     1  0.0000000  0.6508444  3
    386    384    387    388     1  0.0000000  0.6508444  3
    386    384    387    389     1  0.0000000  0.6508444  3
    388    387    396    405     1  0.0000000  1.0460000  1
    388    387    396    405     1  0.0000000  0.0000000  3
    388    387    396    397     1  0.0000000  0.6508444  3
    388    387    396    398     1  0.0000000  0.6508444  3
    389    387    396    405     1  0.0000000  1.0460000  1
    389    387    396    405     1  0.0000000  0.0000000  3
    389    387    396    397     1  0.0000000  0.6508444  3
    389    387    396    398     1  0.0000000  0.6508444  3
    391    390    402    869     1  0.0000000  1.0460000  1
    391    390    402    869     1  0.0000000  0.0000000  3
    391    390    402    403     1  0.0000000  0.6508444  3
    391    390    402    404     1  0.0000000  0.6508444  3
    392    390    402    869     1  0.0000000  1.0460000  1
    392    390    402    869     1  0.0000000  0.0000000  3
    392    390    402    403     1  0.0000000  0.6508444  3
    392    390    402    404     1  0.0000000  0.6508444  3
    394    393    399    840     1  0.0000000  1.0460000  1
    394    393    399    840     1  0.0000000  0.0000000  3
    394    393    399    400     1  0.0000000  0.6508444  3
    394    393    399    401     1  0.0000000  0.6508444  3
    395    393    399    840     1  0.0000000  1.0460000  1
    395    393    399    840     1  0.0000000  0.0000000  3
    395    393    399    400     1  0.0000000  0.6508444  3
    395    393    399    401     1  0.0000000  0.6508444  3
    399    840    831    832     1  0.0000000  1.6038667  3
    399    840    831    833     1  0.0000000  1.6038667  3
    400    399    840    831     1  0.0000000  1.6038667  3
    401    399    840    831     1  0.0000000  1.6038667  3
    402    869    860    861     1  0.0000000  1.6038667  3
    402    869    860    862     1  0.0000000  1.6038667  3
    403    402    869    860     1  0.0000000  1.6038667  3
    404    402    869    860     1  0.0000000  1.6038667  3
    406    407    419    420     1  0.0000000  0.6508444  3
    406    407    419    421     1  0.0000000  0.6508444  3
    406    410    422    423     1  0.0000000  0.6508444  3
    406    410    422    424     1  0.0000000  0.6508444  3
    406    413    416    417     1  0.0000000  0.6508444  3
    406    413    416    418     1  0.0000000  0.6508444  3
    407    406    410    411     1  0.0000000  1.2552000  3
    407    406    410    412     1  0.0000000  1.2552000  3
    407    406    413    414     1  0.0000000  1.2552000  3
    407    406    413    415     1  0.0000000  1.2552000  3
    407    419    431    432     1  0.0000000  0.6508444  3
    407    419    431    433     1  0.0000000  0.6508444  3
    408    407    406    410     1  0.0000000  1.2552000  3
    408    407    406    413     1  0.0000000  1.2552000  3
    408    407    419    431     1  0.0000000  0.6508444  3
    408    407    419    420     1  0.0000000  0.6508444  3
    408    407    419    421     1  0.0000000  0.6508444  3
    409    407    406    410     1  0.0000000  1.2552000  3
    409    407    406    413     1  0.0000000  1.2552000  3
    409    407    419    431     1  0.0000000  0.6508444  3
    409    407    419    420     1  0.0000000  0.6508444  3
    409    407    419    421     1  0.0000000  0.6508444  3
    410    406    413    414     1  0.0000000  1.2552000  3
    410    406    413    415     1  0.0000000  1.2552000  3
    410    422    428    429     1  0.0000000  0.6508444  3
    410    422    428    430     1  0.0000000  0.6508444  3
    411    410    406    413     1  0.0000000  1.2552000  3
    411    410    422    428     1  0.0000000  0.6508444  3
    411    410    422    423     1  0.0000000  0.6508444  3
    411    410    422    424     1  0.0000000  0.6508444  3
    412    410    406    413     1  0.0000000  1.2552000  3
    412    410    422    428     1  0.0000000  0.6508444  3
    412    410    422    423     1  0.0000000  0.6508444  3
    412    410    422    424     1  0.0000000  0.6508444  3
    413    416    425    426     1  0.0000000  0.6508444  3
    413    416    425    427     1  0.0000000  0.6508444  3
    414    413    416    425     1  0.0000000  0.6508444  3
    414    413    416    417     1  0.0000000  0.6508444  3
    414    413    416    418     1  0.0000000  0.6508444  3
    415    413    416    425     1  0.0000000  0.6508444  3
    415    413    416    417     1  0.0000000  0.6508444  3
    415    413    416    418     1  0.0000000  0.6508444  3
    417    416    425    434     1  0.0000000  1.0460000  1
    417    416    425    434     1  0.0000000  0.0000000  3
    417    416    425    426     1  0.0000000  0.6508444  3
    417    416    425    427     1  0.0000000  0.6508444  3
    418    416    425    434     1  0.0000000  1.0460000  1
    418    416    425    434     1  0.0000000  0.0000000  3
    418    416    425    426     1  0.0000000  0.6508444  3
    418    416    425    427     1  0.0000000  0.6508444  3
    420    419    431    927     1  0.0000000  1.0460000  1
    420    419    431    927     1  0.0000000  0.0000000  3
    420    419    431    432     1  0.0000000  0.6508444  3
    420    419    431    433     1  0.0000000  0.6508444  3
    421    419    431    927     1  0.0000000  1.0460000  1
    421    419    431    927     1  0.0000000  0.0000000  3
    421    419    431    432     1  0.0000000  0.6508444  3
    421    419    431    433     1  0.0000000  0.6508444  3
    423    422    428    898     1  0.0000000  1.0460000  1
    423    422    428    898     1  0.0000000  0.0000000  3
    423    422    428    429     1  0.0000000  0.6508444  3
    423    422    428    430     1  0.0000000  0.6508444  3
    424    422    428    898     1  0.0000000  1.0460000  1
    424    422    428    898     1  0.0000000  0.0000000  3
    424    422    428    429     1  0.0000000  0.6508444  3
    424    422    428    430     1  0.0000000  0.6508444  3
    428    898    889    890     1  0.0000000  1.6038667  3
    428    898    889    891     1  0.0000000  1.6038667  3
    429    428    898    889     1  0.0000000  1.6038667  3
    430    428    898    889     1  0.0000000  1.6038667  3
    431    927    918    919     1  0.0000000  1.6038667  3
    431    927    918    920     1  0.0000000  1.6038667  3
    432    431    927    918     1  0.0000000  1.6038667  3
    433    431    927    918     1  0.0000000  1.6038667  3
    435    436    448    449     1  0.0000000  0.6508444  3
    435    436    448    450     1  0.0000000  0.6508444  3
    435    439    451    452     1  0.0000000  0.6508444  3
    435    439    451    453     1  0.0000000  0.6508444  3
    435    442    445    446     1  0.0000000  0.6508444  3
    435    442    445    447     1  0.0000000  0.6508444  3
    436    435    439    440     1  0.0000000  1.2552000  3
    436    435    439    441     1  0.0000000  1.2552000  3
    436    435    442    443     1  0.0000000  1.2552000  3
    436    435    442    444     1  0.0000000  1.2552000  3
    436    448    460    461     1  0.0000000  0.6508444  3
    436    448    460    462     1  0.0000000  0.6508444  3
    437    436    435    439     1  0.0000000  1.2552000  3
    437    436    435    442     1  0.0000000  1.2552000  3
    437    436    448    460     1  0.0000000  0.6508444  3
    437    436    448    449     1  0.0000000  0.6508444  3
    437    436    448    450     1  0.0000000  0.6508444  3
    438    436    435    439     1  0.0000000  1.2552000  3
    438    436    435    442     1  0.0000000  1.2552000  3
    438    436    448    460     1  0.0000000  0.6508444  3
    438    436    448    449     1  0.0000000  0.6508444  3
    438    436    448    450     1  0.0000000  0.6508444  3
    439    435    442    443     1  0.0000000  1.2552000  3
    439    435    442    444     1  0.0000000  1.2552000  3
    439    451    457    458     1  0.0000000  0.6508444  3
    439    451    457    459     1  0.0000000  0.6508444  3
    440    439    435    442     1  0.0000000  1.2552000  3
    440    439    451    457     1  0.0000000  0.6508444  3
    440    439    451    452     1  0.0000000  0.6508444  3
    440    439    451    453     1  0.0000000  0.6508444  3
    441    439    435    442     1  0.0000000  1.2552000  3
    441    439    451    457     1  0.0000000  0.6508444  3
    441    439    451    452     1  0.0000000  0.6508444  3
    441    439    451    453     1  0.0000000  0.6508444  3
    442    445    454    455     1  0.0000000  0.6508444  3
    442    445    454    456     1  0.0000000  0.6508444  3
    443    442    445    454     1  0.0000000  0.6508444  3
    443    442    445    446     1  0.0000000  0.6508444  3
    443    442    445    447     1  0.0000000  0.6508444  3
    444    442    445    454     1  0.0000000  0.6508444  3
    444    442    445    446     1  0.0000000  0.6508444  3
    444    442    445    447     1  0.0000000  0.6508444  3
    446    445    454    463     1  0.0000000  1.0460000  1
    446    445    454    463     1  0.0000000  0.0000000  3
    446    445    454    455     1  0.0000000  0.6508444  3
    446    445    454    456     1  0.0000000  0.6508444  3
    447    445    454    463     1  0.0000000  1.0460000  1
    447    445    454    463     1  0.0000000  0.0000000  3
    447    445    454    455     1  0.0000000  0.6508444  3
    447    445    454    456     1  0.0000000  0.6508444  3
    449    448    460    985     1  0.0000000  1.0460000  1
    449    448    460    985     1  0.0000000  0.0000000  3
    449    448    460    461     1  0.0000000  0.6508444  3
    449    448    460    462     1  0.0000000  0.6508444  3
    450    448    460    985     1  0.0000000  1.0460000  1
    450    448    460    985     1  0.0000000  0.0000000  3
    450    448    460    461     1  0.0000000  0.6508444  3
    450    448    460    462     1  0.0000000  0.6508444  3
    452    451    457    956     1  0.0000000  1.0460000  1
    452    451    457    956     1  0.0000000  0.0000000  3
    452    451    457    458     1  0.0000000  0.6508444  3
    452    451    457    459     1  0.0000000  0.6508444  3
    453    451    457    956     1  0.0000000  1.0460000  1
    453    451    457    956     1  0.0000000  0.0000000  3
    453    451    457    458     1  0.0000000  0.6508444  3
    453    451    457    459     1  0.0000000  0.6508444  3
    457    956    947    948     1  0.0000000  1.6038667  3
    457    956    947    949     1  0.0000000  1.6038667  3
    458    457    956    947     1  0.0000000  1.6038667  3
    459    457    956    947     1  0.0000000  1.6038667  3
    460    985    976    977     1  0.0000000  1.6038667  3
    460    985    976    978     1  0.0000000  1.6038667  3
    461    460    985    976     1  0.0000000  1.6038667  3
    462    460    985    976     1  0.0000000  1.6038667  3
    464    465    477    478     1  0.0000000  0.6508444  3
    464    465    477    479     1  0.0000000  0.6508444  3
    464    468    480    481     1  0.0000000  0.6508444  3
    464    468    480    482     1  0.0000000  0.6508444  3
    464    471    474    475     1  0.0000000  0.6508444  3
    464    471    474    476     1  0.0000000  0.6508444  3
    465    464    468    469     1  0.0000000  1.2552000  3
    465    464    468    470     1  0.0000000  1.2552000  3
    465    464    471    472     1  0.0000000  1.2552000  3
    465    464    471    473     1  0.0000000  1.2552000  3
    465    477    489    490     1  0.0000000  0.6508444  3
    465    477    489    491     1  0.0000000  0.6508444  3
    466    465    464    468     1  0.0000000  1.2552000  3
    466    465    464    471     1  0.0000000  1.2552000  3
    466    465    477    489     1  0.0000000  0.6508444  3
    466    465    477    478     1  0.0000000  0.6508444  3
    466    465    477    479     1  0.0000000  0.6508444  3
    467    465    464    468     1  0.0000000  1.2552000  3
    467    465    464    471     1  0.0000000  1.2552000  3
    467    465    477    489     1  0.0000000  0.6508444  3
    467    465    477    478     1  0.0000000  0.6508444  3
    467    465    477    479     1  0.0000000  0.6508444  3
    468    464    471    472     1  0.0000000  1.2552000  3
    468    464    471    473     1  0.0000000  1.2552000  3
    468    480    486    487     1  0.0000000  0.6508444  3
    468    480    486    488     1  0.0000000  0.6508444  3
    469    468    464    471     1  0.0000000  1.2552000  3
    469    468    480    486     1  0.0000000  0.6508444  3
    469    468    480    481     1  0.0000000  0.6508444  3
    469    468    480    482     1  0.0000000  0.6508444  3
    470    468    464    471     1  0.0000000  1.2552000  3
    470    468    480    486     1  0.0000000  0.6508444  3
    470    468    480    481     1  0.0000000  0.6508444  3
    470    468    480    482     1  0.0000000  0.6508444  3
    471    474    483    484     1  0.0000000  0.6508444  3
    471    474    483    485     1  0.0000000  0.6508444  3
    472    471    474    483     1  0.0000000  0.6508444  3
    472    471    474    475     1  0.0000000  0.6508444  3
    472    471    474    476     1  0.0000000  0.6508444  3
    473    471    474    483     1  0.0000000  0.6508444  3
    473    471    474    475     1  0.0000000  0.6508444  3
    473    471    474    476     1  0.0000000  0.6508444  3
    475    474    483    492     1  0.0000000  1.0460000  1
    475    474    483    492     1  0.0000000  0.0000000  3
    475    474    483    484     1  0.0000000  0.6508444  3
    475    474    483    485     1  0.0000000  0.6508444  3
    476    474    483    492     1  0.0000000  1.0460000  1
    476    474    483    492     1  0.0000000  0.0000000  3
    476    474    483    484     1  0.0000000  0.6508444  3
    476    474    483    485     1  0.0000000  0.6508444  3
    478    477    489   1043     1  0.0000000  1.0460000  1
    478    477    489   1043     1  0.0000000  0.0000000  3
    478    477    489    490     1  0.0000000  0.6508444  3
    478    477    489    491     1  0.0000000  0.6508444  3
    479    477    489   1043     1  0.0000000  1.0460000  1
    479    477    489   1043     1  0.0000000  0.0000000  3
    479    477    489    490     1  0.0000000  0.6508444  3
    479    477    489    491     1  0.0000000  0.6508444  3
    481    480    486   1014     1  0.0000000  1.0460000  1
    481    480    486   1014     1  0.0000000  0.0000000  3
    481    480    486    487     1  0.0000000  0.6508444  3
    481    480    486    488     1  0.0000000  0.6508444  3
    482    480    486   1014     1  0.0000000  1.0460000  1
    482    480    486   1014     1  0.0000000  0.0000000  3
    482    480    486    487     1  0.0000000  0.6508444  3
    482    480    486    488     1  0.0000000  0.6508444  3
    486   1014   1005   1006     1  0.0000000  1.6038667  3
    486   1014   1005   1007     1  0.0000000  1.6038667  3
    487    486   1014   1005     1  0.0000000  1.6038667  3
    488    486   1014   1005     1  0.0000000  1.6038667  3
    489   1043   1034   1035     1  0.0000000  1.6038667  3
    489   1043   1034   1036     1  0.0000000  1.6038667  3
    490    489   1043   1034     1  0.0000000  1.6038667  3
    491    489   1043   1034     1  0.0000000  1.6038667  3
    493    494    506    507     1  0.0000000  0.6508444  3
    493    494    506    508     1  0.0000000  0.6508444  3
    493    497    509    510     1  0.0000000  0.6508444  3
    493    497    509    511     1  0.0000000  0.6508444  3
    493    500    503    504     1  0.0000000  0.6508444  3
    493    500    503    505     1  0.0000000  0.6508444  3
    494    493    497    498     1  0.0000000  1.2552000  3
    494    493    497    499     1  0.0000000  1.2552000  3
    494    493    500    501     1  0.0000000  1.2552000  3
    494    493    500    502     1  0.0000000  1.2552000  3
    494    506    518    519     1  0.0000000  0.6508444  3
    494    506    518    520     1  0.0000000  0.6508444  3
    495    494    493    497     1  0.0000000  1.2552000  3
    495    494    493    500     1  0.0000000  1.2552000  3
    495    494    506    518     1  0.0000000  0.6508444  3
    495    494    506    507     1  0.0000000  0.6508444  3
    495    494    506    508     1  0.0000000  0.6508444  3
    496    494    493    497     1  0.0000000  1.2552000  3
    496    494    493    500     1  0.0000000  1.2552000  3
    496    494    506    518     1  0.0000000  0.6508444  3
    496    494    506    507     1  0.0000000  0.6508444  3
    496    494    506    508     1  0.0000000  0.6508444  3
    497    493    500    501     1  0.0000000  1.2552000  3
    497    493    500    502     1  0.0000000  1.2552000  3
    497    509    515    516     1  0.0000000  0.6508444  3
    497    509    515    517     1  0.0000000  0.6508444  3
    498    497    493    500     1  0.0000000  1.2552000  3
    498    497    509    515     1  0.0000000  0.6508444  3
    498    497    509    510     1  0.0000000  0.6508444  3
    498    497    509    511     1  0.0000000  0.6508444  3
    499    497    493    500     1  0.0000000  1.2552000  3
    499    497    509    515     1  0.0000000  0.6508444  3
    499    497    509    510     1  0.0000000  0.6508444  3
    499    497    509    511     1  0.0000000  0.6508444  3
    500    503    512    513     1  0.0000000  0.6508444  3
    500    503    512    514     1  0.0000000  0.6508444  3
    501    500    503    512     1  0.0000000  0.6508444  3
    501    500    503    504     1  0.0000000  0.6508444  3
    501    500    503    505     1  0.0000000  0.6508444  3
    502    500    503    512     1  0.0000000  0.6508444  3
    502    500    503    504     1  0.0000000  0.6508444  3
    502    500    503    505     1  0.0000000  0.6508444  3
    504    503    512    521     1  0.0000000  1.0460000  1
    504    503    512    521     1  0.0000000  0.0000000  3
    504    503    512    513     1  0.0000000  0.6508444  3
    504    503    512    514     1  0.0000000  0.6508444  3
    505    503    512    521     1  0.0000000  1.0460000  1
    505    503    512    521     1  0.0000000  0.0000000  3
    505    503    512    513     1  0.0000000  0.6508444  3
    505    503    512    514     1  0.0000000  0.6508444  3
    507    506    518   1101     1  0.0000000  1.0460000  1
    507    506    518   1101     1  0.0000000  0.0000000  3
    507    506    518    519     1  0.0000000  0.6508444  3
    507    506    518    520     1  0.0000000  0.6508444  3
    508    506    518   1101     1  0.0000000  1.0460000  1
    508    506    518   1101     1  0.0000000  0.0000000  3
    508    506    518    519     1  0.0000000  0.6508444  3
    508    506    518    520     1  0.0000000  0.6508444  3
    510    509    515   1072     1  0.0000000  1.0460000  1
    510    509    515   1072     1  0.0000000  0.0000000  3
    510    509    515    516     1  0.0000000  0.6508444  3
    510    509    515    517     1  0.0000000  0.6508444  3
    511    509    515   1072     1  0.0000000  1.0460000  1
    511    509    515   1072     1  0.0000000  0.0000000  3
    511    509    515    516     1  0.0000000  0.6508444  3
    511    509    515    517     1  0.0000000  0.6508444  3
    515   1072   1063   1064     1  0.0000000  1.6038667  3
    515   1072   1063   1065     1  0.0000000  1.6038667  3
    516    515   1072   1063     1  0.0000000  1.6038667  3
    517    515   1072   1063     1  0.0000000  1.6038667  3
    518   1101   1092   1093     1  0.0000000  1.6038667  3
    518   1101   1092   1094     1  0.0000000  1.6038667  3
    519    518   1101   1092     1  0.0000000  1.6038667  3
    520    518   1101   1092     1  0.0000000  1.6038667  3
    522    523    535    536     1  0.0000000  0.6508444  3
    522    523    535    537     1  0.0000000  0.6508444  3
    522    526    538    539     1  0.0000000  0.6508444  3
    522    526    538    540     1  0.0000000  0.6508444  3
    522    529    532    533     1  0.0000000  0.6508444  3
    522    529    532    534     1  0.0000000  0.6508444  3
    523    522    526    527     1  0.0000000  1.2552000  3
    523    522    526    528     1  0.0000000  1.2552000  3
    523    522    529    530     1  0.0000000  1.2552000  3
    523    522    529    531     1  0.0000000  1.2552000  3
    523    535    547    548     1  0.0000000  0.6508444  3
    523    535    547    549     1  0.0000000  0.6508444  3
    524    523    522    526     1  0.0000000  1.2552000  3
    524    523    522    529     1  0.0000000  1.2552000  3
    524    523    535    547     1  0.0000000  0.6508444  3
    524    523    535    536     1  0.0000000  0.6508444  3
    524    523    535    537     1  0.0000000  0.6508444  3
    525    523    522    526     1  0.0000000  1.2552000  3
    525    523    522    529     1  0.0000000  1.2552000  3
    525    523    535    547     1  0.0000000  0.6508444  3
    525    523    535    536     1  0.0000000  0.6508444  3
    525    523    535    537     1  0.0000000  0.6508444  3
    526    522    529    530     1  0.0000000  1.2552000  3
    526    522    529    531     1  0.0000000  1.2552000  3
    526    538    544    545     1  0.0000000  0.6508444  3
    526    538    544    546     1  0.0000000  0.6508444  3
    527    526    522    529     1  0.0000000  1.2552000  3
    527    526    538    544     1  0.0000000  0.6508444  3
    527    526    538    539     1  0.0000000  0.6508444  3
    527    526    538    540     1  0.0000000  0.6508444  3
    528    526    522    529     1  0.0000000  1.2552000  3
    528    526    538    544     1  0.0000000  0.6508444  3
    528    526    538    539     1  0.0000000  0.6508444  3
    528    526    538    540     1  0.0000000  0.6508444  3
    529    532    541    542     1  0.0000000  0.6508444  3
    529    532    541    543     1  0.0000000  0.6508444  3
    530    529    532    541     1  0.0000000  0.6508444  3
    530    529    532    533     1  0.0000000  0.6508444  3
    530    529    532    534     1  0.0000000  0.6508444  3
    531    529    532    541     1  0.0000000  0.6508444  3
    531    529    532    533     1  0.0000000  0.6508444  3
    531    529    532    534     1  0.0000000  0.6508444  3
    533    532    541    550     1  0.0000000  1.0460000  1
    533    532    541    550     1  0.0000000  0.0000000  3
    533    532    541    542     1  0.0000000  0.6508444  3
    533    532    541    543     1  0.0000000  0.6508444  3
    534    532    541    550     1  0.0000000  1.0460000  1
    534    532    541    550     1  0.0000000  0.0000000  3
    534    532    541    542     1  0.0000000  0.6508444  3
    534    532    541    543     1  0.0000000  0.6508444  3
    536    535    547   1159     1  0.0000000  1.0460000  1
    536    535    547   1159     1  0.0000000  0.0000000  3
    536    535    547    548     1  0.0000000  0.6508444  3
    536    535    547    549     1  0.0000000  0.6508444  3
    537    535    547   1159     1  0.0000000  1.0460000  1
    537    535    547   1159     1  0.0000000  0.0000000  3
    537    535    547    548     1  0.0000000  0.6508444  3
    537    535    547    549     1  0.0000000  0.6508444  3
    539    538    544   1130     1  0.0000000  1.0460000  1
    539    538    544   1130     1  0.0000000  0.0000000  3
    539    538    544    545     1  0.0000000  0.6508444  3
    539    538    544    546     1  0.0000000  0.6508444  3
    540    538    544   1130     1  0.0000000  1.0460000  1
    540    538    544   1130     1  0.0000000  0.0000000  3
    540    538    544    545     1  0.0000000  0.6508444  3
    540    538    544    546     1  0.0000000  0.6508444  3
    544   1130   1121   1122     1  0.0000000  1.6038667  3
    544   1130   1121   1123     1  0.0000000  1.6038667  3
    545    544   1130   1121     1  0.0000000  1.6038667  3
    546    544   1130   1121     1  0.0000000  1.6038667  3
    547   1159   1150   1151     1  0.0000000  1.6038667  3
    547   1159   1150   1152     1  0.0000000  1.6038667  3
    548    547   1159   1150     1  0.0000000  1.6038667  3
    549    547   1159   1150     1  0.0000000  1.6038667  3
    551    552    564    565     1  0.0000000  0.6508444  3
    551    552    564    566     1  0.0000000  0.6508444  3
    551    555    567    568     1  0.0000000  0.6508444  3
    551    555    567    569     1  0.0000000  0.6508444  3
    551    558    561    562     1  0.0000000  0.6508444  3
    551    558    561    563     1  0.0000000  0.6508444  3
    552    551    555    556     1  0.0000000  1.2552000  3
    552    551    555    557     1  0.0000000  1.2552000  3
    552    551    558    559     1  0.0000000  1.2552000  3
    552    551    558    560     1  0.0000000  1.2552000  3
    552    564    576    577     1  0.0000000  0.6508444  3
    552    564    576    578     1  0.0000000  0.6508444  3
    553    552    551    555     1  0.0000000  1.2552000  3
    553    552    551    558     1  0.0000000  1.2552000  3
    553    552    564    576     1  0.0000000  0.6508444  3
    553    552    564    565     1  0.0000000  0.6508444  3
    553    552    564    566     1  0.0000000  0.6508444  3
    554    552    551    555     1  0.0000000  1.2552000  3
    554    552    551    558     1  0.0000000  1.2552000  3
    554    552    564    576     1  0.0000000  0.6508444  3
    554    552    564    565     1  0.0000000  0.6508444  3
    554    552    564    566     1  0.0000000  0.6508444  3
    555    551    558    559     1  0.0000000  1.2552000  3
    555    551    558    560     1  0.0000000  1.2552000  3
    555    567    573    574     1  0.0000000  0.6508444  3
    555    567    573    575     1  0.0000000  0.6508444  3
    556    555    551    558     1  0.0000000  1.2552000  3
    556    555    567    573     1  0.0000000  0.6508444  3
    556    555    567    568     1  0.0000000  0.6508444  3
    556    555    567    569     1  0.0000000  0.6508444  3
    557    555    551    558     1  0.0000000  1.2552000  3
    557    555    567    573     1  0.0000000  0.6508444  3
    557    555    567    568     1  0.0000000  0.6508444  3
    557    555    567    569     1  0.0000000  0.6508444  3
    558    561    570    571     1  0.0000000  0.6508444  3
    558    561    570    572     1  0.0000000  0.6508444  3
    559    558    561    570     1  0.0000000  0.6508444  3
    559    558    561    562     1  0.0000000  0.6508444  3
    559    558    561    563     1  0.0000000  0.6508444  3
    560    558    561    570     1  0.0000000  0.6508444  3
    560    558    561    562     1  0.0000000  0.6508444  3
    560    558    561    563     1  0.0000000  0.6508444  3
    562    561    570    579     1  0.0000000  1.0460000  1
    562    561    570    579     1  0.0000000  0.0000000  3
    562    561    570    571     1  0.0000000  0.6508444  3
    562    561    570    572     1  0.0000000  0.6508444  3
    563    561    570    579     1  0.0000000  1.0460000  1
    563    561    570    579     1  0.0000000  0.0000000  3
    563    561    570    571     1  0.0000000  0.6508444  3
    563    561    570    572     1  0.0000000  0.6508444  3
    565    564    576   1217     1  0.0000000  1.0460000  1
    565    564    576   1217     1  0.0000000  0.0000000  3
    565    564    576    577     1  0.0000000  0.6508444  3
    565    564    576    578     1  0.0000000  0.6508444  3
    566    564    576   1217     1  0.0000000  1.0460000  1
    566    564    576   1217     1  0.0000000  0.0000000  3
    566    564    576    577     1  0.0000000  0.6508444  3
    566    564    576    578     1  0.0000000  0.6508444  3
    568    567    573   1188     1  0.0000000  1.0460000  1
    568    567    573   1188     1  0.0000000  0.0000000  3
    568    567    573    574     1  0.0000000  0.6508444  3
    568    567    573    575     1  0.0000000  0.6508444  3
    569    567    573   1188     1  0.0000000  1.0460000  1
    569    567    573   1188     1  0.0000000  0.0000000  3
    569    567    573    574     1  0.0000000  0.6508444  3
    569    567    573    575     1  0.0000000  0.6508444  3
    573   1188   1179   1180     1  0.0000000  1.6038667  3
    573   1188   1179   1181     1  0.0000000  1.6038667  3
    574    573   1188   1179     1  0.0000000  1.6038667  3
    575    573   1188   1179     1  0.0000000  1.6038667  3
    576   1217   1208   1209     1  0.0000000  1.6038667  3
    576   1217   1208   1210     1  0.0000000  1.6038667  3
    577    576   1217   1208     1  0.0000000  1.6038667  3
    578    576   1217   1208     1  0.0000000  1.6038667  3
    580    581    593    594     1  0.0000000  0.6508444  3
    580    581    593    595     1  0.0000000  0.6508444  3
    580    584    596    597     1  0.0000000  0.6508444  3
    580    584    596    598     1  0.0000000  0.6508444  3
    580    587    590    591     1  0.0000000  0.6508444  3
    580    587    590    592     1  0.0000000  0.6508444  3
    581    580    584    585     1  0.0000000  1.2552000  3
    581    580    584    586     1  0.0000000  1.2552000  3
    581    580    587    588     1  0.0000000  1.2552000  3
    581    580    587    589     1  0.0000000  1.2552000  3
    581    593    605    606     1  0.0000000  0.6508444  3
    581    593    605    607     1  0.0000000  0.6508444  3
    582    581    580    584     1  0.0000000  1.2552000  3
    582    581    580    587     1  0.0000000  1.2552000  3
    582    581    593    605     1  0.0000000  0.6508444  3
    582    581    593    594     1  0.0000000  0.6508444  3
    582    581    593    595     1  0.0000000  0.6508444  3
    583    581    580    584     1  0.0000000  1.2552000  3
    583    581    580    587     1  0.0000000  1.2552000  3
    583    581    593    605     1  0.0000000  0.6508444  3
    583    581    593    594     1  0.0000000  0.6508444  3
    583    581    593    595     1  0.0000000  0.6508444  3
    584    580    587    588     1  0.0000000  1.2552000  3
    584    580    587    589     1  0.0000000  1.2552000  3
    584    596    602    603     1  0.0000000  0.6508444  3
    584    596    602    604     1  0.0000000  0.6508444  3
    585    584    580    587     1  0.0000000  1.2552000  3
    585    584    596    602     1  0.0000000  0.6508444  3
    585    584    596    597     1  0.0000000  0.6508444  3
    585    584    596    598     1  0.0000000  0.6508444  3
    586    584    580    587     1  0.0000000  1.2552000  3
    586    584    596    602     1  0.0000000  0.6508444  3
    586    584    596    597     1  0.0000000  0.6508444  3
    586    584    596    598     1  0.0000000  0.6508444  3
    587    590    599    600     1  0.0000000  0.6508444  3
    587    590    599    601     1  0.0000000  0.6508444  3
    588    587    590    599     1  0.0000000  0.6508444  3
    588    587    590    591     1  0.0000000  0.6508444  3
    588    587    590    592     1  0.0000000  0.6508444  3
    589    587    590    599     1  0.0000000  0.6508444  3
    589    587    590    591     1  0.0000000  0.6508444  3
    589    587    590    592     1  0.0000000  0.6508444  3
    591    590    599    608     1  0.0000000  1.0460000  1
    591    590    599    608     1  0.0000000  0.0000000  3
    591    590    599    600     1  0.0000000  0.6508444  3
    591    590    599    601     1  0.0000000  0.6508444  3
    592    590    599    608     1  0.0000000  1.0460000  1
    592    590    599    608     1  0.0000000  0.0000000  3
    592    590    599    600     1  0.0000000  0.6508444  3
    592    590    599    601     1  0.0000000  0.6508444  3
    594    593    605   1275     1  0.0000000  1.0460000  1
    594    593    605   1275     1  0.0000000  0.0000000  3
    594    593    605    606     1  0.0000000  0.6508444  3
    594    593    605    607     1  0.0000000  0.6508444  3
    595    593    605   1275     1  0.0000000  1.0460000  1
    595    593    605   1275     1  0.0000000  0.0000000  3
    595    593    605    606     1  0.0000000  0.6508444  3
    595    593    605    607     1  0.0000000  0.6508444  3
    597    596    602   1246     1  0.0000000  1.0460000  1
    597    596    602   1246     1  0.0000000  0.0000000  3
    597    596    602    603     1  0.0000000  0.6508444  3
    597    596    602    604     1  0.0000000  0.6508444  3
    598    596    602   1246     1  0.0000000  1.0460000  1
    598    596    602   1246     1  0.0000000  0.0000000  3
    598    596    602    603     1  0.0000000  0.6508444  3
    598    596    602    604     1  0.0000000  0.6508444  3
    602   1246   1237   1238     1  0.0000000  1.6038667  3
    602   1246   1237   1239     1  0.0000000  1.6038667  3
    603    602   1246   1237     1  0.0000000  1.6038667  3
    604    602   1246   1237     1  0.0000000  1.6038667  3
    605   1275   1266   1267     1  0.0000000  1.6038667  3
    605   1275   1266   1268     1  0.0000000  1.6038667  3
    606    605   1275   1266     1  0.0000000  1.6038667  3
    607    605   1275   1266     1  0.0000000  1.6038667  3
    609    610    622    623     1  0.0000000  0.6508444  3
    609    610    622    624     1  0.0000000  0.6508444  3
    609    613    625    626     1  0.0000000  0.6508444  3
    609    613    625    627     1  0.0000000  0.6508444  3
    609    616    619    620     1  0.0000000  0.6508444  3
    609    616    619    621     1  0.0000000  0.6508444  3
    610    609    613    614     1  0.0000000  1.2552000  3
    610    609    613    615     1  0.0000000  1.2552000  3
    610    609    616    617     1  0.0000000  1.2552000  3
    610    609    616    618     1  0.0000000  1.2552000  3
    610    622    634    635     1  0.0000000  0.6508444  3
    610    622    634    636     1  0.0000000  0.6508444  3
    611    610    609    613     1  0.0000000  1.2552000  3
    611    610    609    616     1  0.0000000  1.2552000  3
    611    610    622    634     1  0.0000000  0.6508444  3
    611    610    622    623     1  0.0000000  0.6508444  3
    611    610    622    624     1  0.0000000  0.6508444  3
    612    610    609    613     1  0.0000000  1.2552000  3
    612    610    609    616     1  0.0000000  1.2552000  3
    612    610    622    634     1  0.0000000  0.6508444  3
    612    610    622    623     1  0.0000000  0.6508444  3
    612    610    622    624     1  0.0000000  0.6508444  3
    613    609    616    617     1  0.0000000  1.2552000  3
    613    609    616    618     1  0.0000000  1.2552000  3
    613    625    631    632     1  0.0000000  0.6508444  3
    613    625    631    633     1  0.0000000  0.6508444  3
    614    613    609    616     1  0.0000000  1.2552000  3
    614    613    625    631     1  0.0000000  0.6508444  3
    614    613    625    626     1  0.0000000  0.6508444  3
    614    613    625    627     1  0.0000000  0.6508444  3
    615    613    609    616     1  0.0000000  1.2552000  3
    615    613    625    631     1  0.0000000  0.6508444  3
    615    613    625    626     1  0.0000000  0.6508444  3
    615    613    625    627     1  0.0000000  0.6508444  3
    616    619    628    629     1  0.0000000  0.6508444  3
    616    619    628    630     1  0.0000000  0.6508444  3
    617    616    619    628     1  0.0000000  0.6508444  3
    617    616    619    620     1  0.0000000  0.6508444  3
    617    616    619    621     1  0.0000000  0.6508444  3
    618    616    619    628     1  0.0000000  0.6508444  3
    618    616    619    620     1  0.0000000  0.6508444  3
    618    616    619    621     1  0.0000000  0.6508444  3
    620    619    628    637     1  0.0000000  1.0460000  1
    620    619    628    637     1  0.0000000  0.0000000  3
    620    619    628    629     1  0.0000000  0.6508444  3
    620    619    628    630     1  0.0000000  0.6508444  3
    621    619    628    637     1  0.0000000  1.0460000  1
    621    619    628    637     1  0.0000000  0.0000000  3
    621    619    628    629     1  0.0000000  0.6508444  3
    621    619    628    630     1  0.0000000  0.6508444  3
    623    622    634   1333     1  0.0000000  1.0460000  1
    623    622    634   1333     1  0.0000000  0.0000000  3
    623    622    634    635     1  0.0000000  0.6508444  3
    623    622    634    636     1  0.0000000  0.6508444  3
    624    622    634   1333     1  0.0000000  1.0460000  1
    624    622    634   1333     1  0.0000000  0.0000000  3
    624    622    634    635     1  0.0000000  0.6508444  3
    624    622    634    636     1  0.0000000  0.6508444  3
    626    625    631   1304     1  0.0000000  1.0460000  1
    626    625    631   1304     1  0.0000000  0.0000000  3
    626    625    631    632     1  0.0000000  0.6508444  3
    626    625    631    633     1  0.0000000  0.6508444  3
    627    625    631   1304     1  0.0000000  1.0460000  1
    627    625    631   1304     1  0.0000000  0.0000000  3
    627    625    631    632     1  0.0000000  0.6508444  3
    627    625    631    633     1  0.0000000  0.6508444  3
    631   1304   1295   1296     1  0.0000000  1.6038667  3
    631   1304   1295   1297     1  0.0000000  1.6038667  3
    632    631   1304   1295     1  0.0000000  1.6038667  3
    633    631   1304   1295     1  0.0000000  1.6038667  3
    634   1333   1324   1325     1  0.0000000  1.6038667  3
    634   1333   1324   1326     1  0.0000000  1.6038667  3
    635    634   1333   1324     1  0.0000000  1.6038667  3
    636    634   1333   1324     1  0.0000000  1.6038667  3
    638    639    651    652     1  0.0000000  0.6508444  3
    638    639    651    653     1  0.0000000  0.6508444  3
    638    642    654    655     1  0.0000000  0.6508444  3
    638    642    654    656     1  0.0000000  0.6508444  3
    638    645    648    649     1  0.0000000  0.6508444  3
    638    645    648    650     1  0.0000000  0.6508444  3
    639    638    642    643     1  0.0000000  1.2552000  3
    639    638    642    644     1  0.0000000  1.2552000  3
    639    638    645    646     1  0.0000000  1.2552000  3
    639    638    645    647     1  0.0000000  1.2552000  3
    639    651    663    664     1  0.0000000  0.6508444  3
    639    651    663    665     1  0.0000000  0.6508444  3
    640    639    638    642     1  0.0000000  1.2552000  3
    640    639    638    645     1  0.0000000  1.2552000  3
    640    639    651    663     1  0.0000000  0.6508444  3
    640    639    651    652     1  0.0000000  0.6508444  3
    640    639    651    653     1  0.0000000  0.6508444  3
    641    639    638    642     1  0.0000000  1.2552000  3
    641    639    638    645     1  0.0000000  1.2552000  3
    641    639    651    663     1  0.0000000  0.6508444  3
    641    639    651    652     1  0.0000000  0.6508444  3
    641    639    651    653     1  0.0000000  0.6508444  3
    642    638    645    646     1  0.0000000  1.2552000  3
    642    638    645    647     1  0.0000000  1.2552000  3
    642    654    660    661     1  0.0000000  0.6508444  3
    642    654    660    662     1  0.0000000  0.6508444  3
    643    642    638    645     1  0.0000000  1.2552000  3
    643    642    654    660     1  0.0000000  0.6508444  3
    643    642    654    655     1  0.0000000  0.6508444  3
    643    642    654    656     1  0.0000000  0.6508444  3
    644    642    638    645     1  0.0000000  1.2552000  3
    644    642    654    660     1  0.0000000  0.6508444  3
    644    642    654    655     1  0.0000000  0.6508444  3
    644    642    654    656     1  0.0000000  0.6508444  3
    645    648    657    658     1  0.0000000  0.6508444  3
    645    648    657    659     1  0.0000000  0.6508444  3
    646    645    648    657     1  0.0000000  0.6508444  3
    646    645    648    649     1  0.0000000  0.6508444  3
    646    645    648    650     1  0.0000000  0.6508444  3
    647    645    648    657     1  0.0000000  0.6508444  3
    647    645    648    649     1  0.0000000  0.6508444  3
    647    645    648    650     1  0.0000000  0.6508444  3
    649    648    657    666     1  0.0000000  1.0460000  1
    649    648    657    666     1  0.0000000  0.0000000  3
    649    648    657    658     1  0.0000000  0.6508444  3
    649    648    657    659     1  0.0000000  0.6508444  3
    650    648    657    666     1  0.0000000  1.0460000  1
    650    648    657    666     1  0.0000000  0.0000000  3
    650    648    657    658     1  0.0000000  0.6508444  3
    650    648    657    659     1  0.0000000  0.6508444  3
    652    651    663   1395     1  0.0000000  1.0460000  1
    652    651    663   1395     1  0.0000000  0.0000000  3
    652    651    663    664     1  0.0000000  0.6508444  3
    652    651    663    665     1  0.0000000  0.6508444  3
    653    651    663   1395     1  0.0000000  1.0460000  1
    653    651    663   1395     1  0.0000000  0.0000000  3
    653    651    663    664     1  0.0000000  0.6508444  3
    653    651    663    665     1  0.0000000  0.6508444  3
    655    654    660   1364     1  0.0000000  1.0460000  1
    655    654    660   1364     1  0.0000000  0.0000000  3
    655    654    660    661     1  0.0000000  0.6508444  3
    655    654    660    662     1  0.0000000  0.6508444  3
    656    654    660   1364     1  0.0000000  1.0460000  1
    656    654    660   1364     1  0.0000000  0.0000000  3
    656    654    660    661     1  0.0000000  0.6508444  3
    656    654    660    662     1  0.0000000  0.6508444  3
    660   1364   1334   1335     1  0.0000000  1.6038667  3
    660   1364   1334   1336     1  0.0000000  1.6038667  3
    661    660   1364   1334     1  0.0000000  1.6038667  3
    662    660   1364   1334     1  0.0000000  1.6038667  3
    663   1395   1365   1366     1  0.0000000  1.6038667  3
    663   1395   1365   1367     1  0.0000000  1.6038667  3
    664    663   1395   1365     1  0.0000000  1.6038667  3
    665    663   1395   1365     1  0.0000000  1.6038667  3
    667    668    680    681     1  0.0000000  0.6508444  3
    667    668    680    682     1  0.0000000  0.6508444  3
    667    671    683    684     1  0.0000000  0.6508444  3
    667    671    683    685     1  0.0000000  0.6508444  3
    667    674    677    678     1  0.0000000  0.6508444  3
    667    674    677    679     1  0.0000000  0.6508444  3
    668    667    671    672     1  0.0000000  1.2552000  3
    668    667    671    673     1  0.0000000  1.2552000  3
    668    667    674    675     1  0.0000000  1.2552000  3
    668    667    674    676     1  0.0000000  1.2552000  3
    668    680    692    693     1  0.0000000  0.6508444  3
    668    680    692    694     1  0.0000000  0.6508444  3
    669    668    667    671     1  0.0000000  1.2552000  3
    669    668    667    674     1  0.0000000  1.2552000  3
    669    668    680    692     1  0.0000000  0.6508444  3
    669    668    680    681     1  0.0000000  0.6508444  3
    669    668    680    682     1  0.0000000  0.6508444  3
    670    668    667    671     1  0.0000000  1.2552000  3
    670    668    667    674     1  0.0000000  1.2552000  3
    670    668    680    692     1  0.0000000  0.6508444  3
    670    668    680    681     1  0.0000000  0.6508444  3
    670    668    680    682     1  0.0000000  0.6508444  3
    671    667    674    675     1  0.0000000  1.2552000  3
    671    667    674    676     1  0.0000000  1.2552000  3
    671    683    689    690     1  0.0000000  0.6508444  3
    671    683    689    691     1  0.0000000  0.6508444  3
    672    671    667    674     1  0.0000000  1.2552000  3
    672    671    683    689     1  0.0000000  0.6508444  3
    672    671    683    684     1  0.0000000  0.6508444  3
    672    671    683    685     1  0.0000000  0.6508444  3
    673    671    667    674     1  0.0000000  1.2552000  3
    673    671    683    689     1  0.0000000  0.6508444  3
    673    671    683    684     1  0.0000000  0.6508444  3
    673    671    683    685     1  0.0000000  0.6508444  3
    674    677    686    687     1  0.0000000  0.6508444  3
    674    677    686    688     1  0.0000000  0.6508444  3
    675    674    677    686     1  0.0000000  0.6508444  3
    675    674    677    678     1  0.0000000  0.6508444  3
    675    674    677    679     1  0.0000000  0.6508444  3
    676    674    677    686     1  0.0000000  0.6508444  3
    676    674    677    678     1  0.0000000  0.6508444  3
    676    674    677    679     1  0.0000000  0.6508444  3
    678    677    686    695     1  0.0000000  1.0460000  1
    678    677    686    695     1  0.0000000  0.0000000  3
    678    677    686    687     1  0.0000000  0.6508444  3
    678    677    686    688     1  0.0000000  0.6508444  3
    679    677    686    695     1  0.0000000  1.0460000  1
    679    677    686    695     1  0.0000000  0.0000000  3
    679    677    686    687     1  0.0000000  0.6508444  3
    679    677    686    688     1  0.0000000  0.6508444  3
    681    680    692   1457     1  0.0000000  1.0460000  1
    681    680    692   1457     1  0.0000000  0.0000000  3
    681    680    692    693     1  0.0000000  0.6508444  3
    681    680    692    694     1  0.0000000  0.6508444  3
    682    680    692   1457     1  0.0000000  1.0460000  1
    682    680    692   1457     1  0.0000000  0.0000000  3
    682    680    692    693     1  0.0000000  0.6508444  3
    682    680    692    694     1  0.0000000  0.6508444  3
    684    683    689   1426     1  0.0000000  1.0460000  1
    684    683    689   1426     1  0.0000000  0.0000000  3
    684    683    689    690     1  0.0000000  0.6508444  3
    684    683    689    691     1  0.0000000  0.6508444  3
    685    683    689   1426     1  0.0000000  1.0460000  1
    685    683    689   1426     1  0.0000000  0.0000000  3
    685    683    689    690     1  0.0000000  0.6508444  3
    685    683    689    691     1  0.0000000  0.6508444  3
    689   1426   1396   1397     1  0.0000000  1.6038667  3
    689   1426   1396   1398     1  0.0000000  1.6038667  3
    690    689   1426   1396     1  0.0000000  1.6038667  3
    691    689   1426   1396     1  0.0000000  1.6038667  3
    692   1457   1427   1428     1  0.0000000  1.6038667  3
    692   1457   1427   1429     1  0.0000000  1.6038667  3
    693    692   1457   1427     1  0.0000000  1.6038667  3
    694    692   1457   1427     1  0.0000000  1.6038667  3
    696    697    709    710     1  0.0000000  0.6508444  3
    696    697    709    711     1  0.0000000  0.6508444  3
    696    700    712    713     1  0.0000000  0.6508444  3
    696    700    712    714     1  0.0000000  0.6508444  3
    696    703    706    707     1  0.0000000  0.6508444  3
    696    703    706    708     1  0.0000000  0.6508444  3
    697    696    700    701     1  0.0000000  1.2552000  3
    697    696    700    702     1  0.0000000  1.2552000  3
    697    696    703    704     1  0.0000000  1.2552000  3
    697    696    703    705     1  0.0000000  1.2552000  3
    697    709    721    722     1  0.0000000  0.6508444  3
    697    709    721    723     1  0.0000000  0.6508444  3
    698    697    696    700     1  0.0000000  1.2552000  3
    698    697    696    703     1  0.0000000  1.2552000  3
    698    697    709    721     1  0.0000000  0.6508444  3
    698    697    709    710     1  0.0000000  0.6508444  3
    698    697    709    711     1  0.0000000  0.6508444  3
    699    697    696    700     1  0.0000000  1.2552000  3
    699    697    696    703     1  0.0000000  1.2552000  3
    699    697    709    721     1  0.0000000  0.6508444  3
    699    697    709    710     1  0.0000000  0.6508444  3
    699    697    709    711     1  0.0000000  0.6508444  3
    700    696    703    704     1  0.0000000  1.2552000  3
    700    696    703    705     1  0.0000000  1.2552000  3
    700    712    718    719     1  0.0000000  0.6508444  3
    700    712    718    720     1  0.0000000  0.6508444  3
    701    700    696    703     1  0.0000000  1.2552000  3
    701    700    712    718     1  0.0000000  0.6508444  3
    701    700    712    713     1  0.0000000  0.6508444  3
    701    700    712    714     1  0.0000000  0.6508444  3
    702    700    696    703     1  0.0000000  1.2552000  3
    702    700    712    718     1  0.0000000  0.6508444  3
    702    700    712    713     1  0.0000000  0.6508444  3
    702    700    712    714     1  0.0000000  0.6508444  3
    703    706    715    716     1  0.0000000  0.6508444  3
    703    706    715    717     1  0.0000000  0.6508444  3
    704    703    706    715     1  0.0000000  0.6508444  3
    704    703    706    707     1  0.0000000  0.6508444  3
    704    703    706    708     1  0.0000000  0.6508444  3
    705    703    706    715     1  0.0000000  0.6508444  3
    705    703    706    707     1  0.0000000  0.6508444  3
    705    703    706    708     1  0.0000000  0.6508444  3
    707    706    715    724     1  0.0000000  1.0460000  1
    707    706    715    724     1  0.0000000  0.0000000  3
    707    706    715    716     1  0.0000000  0.6508444  3
    707    706    715    717     1  0.0000000  0.6508444  3
    708    706    715    724     1  0.0000000  1.0460000  1
    708    706    715    724     1  0.0000000  0.0000000  3
    708    706    715    716     1  0.0000000  0.6508444  3
    708    706    715    717     1  0.0000000  0.6508444  3
    710    709    721   1519     1  0.0000000  1.0460000  1
    710    709    721   1519     1  0.0000000  0.0000000  3
    710    709    721    722     1  0.0000000  0.6508444  3
    710    709    721    723     1  0.0000000  0.6508444  3
    711    709    721   1519     1  0.0000000  1.0460000  1
    711    709    721   1519     1  0.0000000  0.0000000  3
    711    709    721    722     1  0.0000000  0.6508444  3
    711    709    721    723     1  0.0000000  0.6508444  3
    713    712    718   1488     1  0.0000000  1.0460000  1
    713    712    718   1488     1  0.0000000  0.0000000  3
    713    712    718    719     1  0.0000000  0.6508444  3
    713    712    718    720     1  0.0000000  0.6508444  3
    714    712    718   1488     1  0.0000000  1.0460000  1
    714    712    718   1488     1  0.0000000  0.0000000  3
    714    712    718    719     1  0.0000000  0.6508444  3
    714    712    718    720     1  0.0000000  0.6508444  3
    718   1488   1458   1459     1  0.0000000  1.6038667  3
    718   1488   1458   1460     1  0.0000000  1.6038667  3
    719    718   1488   1458     1  0.0000000  1.6038667  3
    720    718   1488   1458     1  0.0000000  1.6038667  3
    721   1519   1489   1490     1  0.0000000  1.6038667  3
    721   1519   1489   1491     1  0.0000000  1.6038667  3
    722    721   1519   1489     1  0.0000000  1.6038667  3
    723    721   1519   1489     1  0.0000000  1.6038667  3
    725    726    738    739     1  0.0000000  0.6508444  3
    725    726    738    740     1  0.0000000  0.6508444  3
    725    729    741    742     1  0.0000000  0.6508444  3
    725    729    741    743     1  0.0000000  0.6508444  3
    725    732    735    736     1  0.0000000  0.6508444  3
    725    732    735    737     1  0.0000000  0.6508444  3
    726    725    729    730     1  0.0000000  1.2552000  3
    726    725    729    731     1  0.0000000  1.2552000  3
    726    725    732    733     1  0.0000000  1.2552000  3
    726    725    732    734     1  0.0000000  1.2552000  3
    726    738    750    751     1  0.0000000  0.6508444  3
    726    738    750    752     1  0.0000000  0.6508444  3
    727    726    725    729     1  0.0000000  1.2552000  3
    727    726    725    732     1  0.0000000  1.2552000  3
    727    726    738    750     1  0.0000000  0.6508444  3
    727    726    738    739     1  0.0000000  0.6508444  3
    727    726    738    740     1  0.0000000  0.6508444  3
    728    726    725    729     1  0.0000000  1.2552000  3
    728    726    725    732     1  0.0000000  1.2552000  3
    728    726    738    750     1  0.0000000  0.6508444  3
    728    726    738    739     1  0.0000000  0.6508444  3
    728    726    738    740     1  0.0000000  0.6508444  3
    729    725    732    733     1  0.0000000  1.2552000  3
    729    725    732    734     1  0.0000000  1.2552000  3
    729    741    747    748     1  0.0000000  0.6508444  3
    729    741    747    749     1  0.0000000  0.6508444  3
    730    729    725    732     1  0.0000000  1.2552000  3
    730    729    741    747     1  0.0000000  0.6508444  3
    730    729    741    742     1  0.0000000  0.6508444  3
    730    729    741    743     1  0.0000000  0.6508444  3
    731    729    725    732     1  0.0000000  1.2552000  3
    731    729    741    747     1  0.0000000  0.6508444  3
    731    729    741    742     1  0.0000000  0.6508444  3
    731    729    741    743     1  0.0000000  0.6508444  3
    732    735    744    745     1  0.0000000  0.6508444  3
    732    735    744    746     1  0.0000000  0.6508444  3
    733    732    735    744     1  0.0000000  0.6508444  3
    733    732    735    736     1  0.0000000  0.6508444  3
    733    732    735    737     1  0.0000000  0.6508444  3
    734    732    735    744     1  0.0000000  0.6508444  3
    734    732    735    736     1  0.0000000  0.6508444  3
    734    732    735    737     1  0.0000000  0.6508444  3
    736    735    744    753     1  0.0000000  1.0460000  1
    736    735    744    753     1  0.0000000  0.0000000  3
    736    735    744    745     1  0.0000000  0.6508444  3
    736    735    744    746     1  0.0000000  0.6508444  3
    737    735    744    753     1  0.0000000  1.0460000  1
    737    735    744    753     1  0.0000000  0.0000000  3
    737    735    744    745     1  0.0000000  0.6508444  3
    737    735    744    746     1  0.0000000  0.6508444  3
    739    738    750   1581     1  0.0000000  1.0460000  1
    739    738    750   1581     1  0.0000000  0.0000000  3
    739    738    750    751     1  0.0000000  0.6508444  3
    739    738    750    752     1  0.0000000  0.6508444  3
    740    738    750   1581     1  0.0000000  1.0460000  1
    740    738    750   1581     1  0.0000000  0.0000000  3
    740    738    750    751     1  0.0000000  0.6508444  3
    740    738    750    752     1  0.0000000  0.6508444  3
    742    741    747   1550     1  0.0000000  1.0460000  1
    742    741    747   1550     1  0.0000000  0.0000000  3
    742    741    747    748     1  0.0000000  0.6508444  3
    742    741    747    749     1  0.0000000  0.6508444  3
    743    741    747   1550     1  0.0000000  1.0460000  1
    743    741    747   1550     1  0.0000000  0.0000000  3
    743    741    747    748     1  0.0000000  0.6508444  3
    743    741    747    749     1  0.0000000  0.6508444  3
    747   1550   1520   1521     1  0.0000000  1.6038667  3
    747   1550   1520   1522     1  0.0000000  1.6038667  3
    748    747   1550   1520     1  0.0000000  1.6038667  3
    749    747   1550   1520     1  0.0000000  1.6038667  3
    750   1581   1551   1552     1  0.0000000  1.6038667  3
    750   1581   1551   1553     1  0.0000000  1.6038667  3
    751    750   1581   1551     1  0.0000000  1.6038667  3
    752    750   1581   1551     1  0.0000000  1.6038667  3
    754    755    767    768     1  0.0000000  0.6508444  3
    754    755    767    769     1  0.0000000  0.6508444  3
    754    758    770    771     1  0.0000000  0.6508444  3
    754    758    770    772     1  0.0000000  0.6508444  3
    754    761    764    765     1  0.0000000  0.6508444  3
    754    761    764    766     1  0.0000000  0.6508444  3
    755    754    758    759     1  0.0000000  1.2552000  3
    755    754    758    760     1  0.0000000  1.2552000  3
    755    754    761    762     1  0.0000000  1.2552000  3
    755    754    761    763     1  0.0000000  1.2552000  3
    755    767    779    780     1  0.0000000  0.6508444  3
    755    767    779    781     1  0.0000000  0.6508444  3
    756    755    754    758     1  0.0000000  1.2552000  3
    756    755    754    761     1  0.0000000  1.2552000  3
    756    755    767    779     1  0.0000000  0.6508444  3
    756    755    767    768     1  0.0000000  0.6508444  3
    756    755    767    769     1  0.0000000  0.6508444  3
    757    755    754    758     1  0.0000000  1.2552000  3
    757    755    754    761     1  0.0000000  1.2552000  3
    757    755    767    779     1  0.0000000  0.6508444  3
    757    755    767    768     1  0.0000000  0.6508444  3
    757    755    767    769     1  0.0000000  0.6508444  3
    758    754    761    762     1  0.0000000  1.2552000  3
    758    754    761    763     1  0.0000000  1.2552000  3
    758    770    776    777     1  0.0000000  0.6508444  3
    758    770    776    778     1  0.0000000  0.6508444  3
    759    758    754    761     1  0.0000000  1.2552000  3
    759    758    770    776     1  0.0000000  0.6508444  3
    759    758    770    771     1  0.0000000  0.6508444  3
    759    758    770    772     1  0.0000000  0.6508444  3
    760    758    754    761     1  0.0000000  1.2552000  3
    760    758    770    776     1  0.0000000  0.6508444  3
    760    758    770    771     1  0.0000000  0.6508444  3
    760    758    770    772     1  0.0000000  0.6508444  3
    761    764    773    774     1  0.0000000  0.6508444  3
    761    764    773    775     1  0.0000000  0.6508444  3
    762    761    764    773     1  0.0000000  0.6508444  3
    762    761    764    765     1  0.0000000  0.6508444  3
    762    761    764    766     1  0.0000000  0.6508444  3
    763    761    764    773     1  0.0000000  0.6508444  3
    763    761    764    765     1  0.0000000  0.6508444  3
    763    761    764    766     1  0.0000000  0.6508444  3
    765    764    773    782     1  0.0000000  1.0460000  1
    765    764    773    782     1  0.0000000  0.0000000  3
    765    764    773    774     1  0.0000000  0.6508444  3
    765    764    773    775     1  0.0000000  0.6508444  3
    766    764    773    782     1  0.0000000  1.0460000  1
    766    764    773    782     1  0.0000000  0.0000000  3
    766    764    773    774     1  0.0000000  0.6508444  3
    766    764    773    775     1  0.0000000  0.6508444  3
    768    767    779   1643     1  0.0000000  1.0460000  1
    768    767    779   1643     1  0.0000000  0.0000000  3
    768    767    779    780     1  0.0000000  0.6508444  3
    768    767    779    781     1  0.0000000  0.6508444  3
    769    767    779   1643     1  0.0000000  1.0460000  1
    769    767    779   1643     1  0.0000000  0.0000000  3
    769    767    779    780     1  0.0000000  0.6508444  3
    769    767    779    781     1  0.0000000  0.6508444  3
    771    770    776   1612     1  0.0000000  1.0460000  1
    771    770    776   1612     1  0.0000000  0.0000000  3
    771    770    776    777     1  0.0000000  0.6508444  3
    771    770    776    778     1  0.0000000  0.6508444  3
    772    770    776   1612     1  0.0000000  1.0460000  1
    772    770    776   1612     1  0.0000000  0.0000000  3
    772    770    776    777     1  0.0000000  0.6508444  3
    772    770    776    778     1  0.0000000  0.6508444  3
    776   1612   1582   1583     1  0.0000000  1.6038667  3
    776   1612   1582   1584     1  0.0000000  1.6038667  3
    777    776   1612   1582     1  0.0000000  1.6038667  3
    778    776   1612   1582     1  0.0000000  1.6038667  3
    779   1643   1613   1614     1  0.0000000  1.6038667  3
    779   1643   1613   1615     1  0.0000000  1.6038667  3
    780    779   1643   1613     1  0.0000000  1.6038667  3
    781    779   1643   1613     1  0.0000000  1.6038667  3
    783    784    796    797     1  0.0000000  0.6508444  3
    783    784    796    798     1  0.0000000  0.6508444  3
    783    787    799    800     1  0.0000000  0.6508444  3
    783    787    799    801     1  0.0000000  0.6508444  3
    783    790    793    794     1  0.0000000  0.6508444  3
    783    790    793    795     1  0.0000000  0.6508444  3
    784    783    787    788     1  0.0000000  1.2552000  3
    784    783    787    789     1  0.0000000  1.2552000  3
    784    783    790    791     1  0.0000000  1.2552000  3
    784    783    790    792     1  0.0000000  1.2552000  3
    784    796    808    809     1  0.0000000  0.6508444  3
    784    796    808    810     1  0.0000000  0.6508444  3
    785    784    783    787     1  0.0000000  1.2552000  3
    785    784    783    790     1  0.0000000  1.2552000  3
    785    784    796    808     1  0.0000000  0.6508444  3
    785    784    796    797     1  0.0000000  0.6508444  3
    785    784    796    798     1  0.0000000  0.6508444  3
    786    784    783    787     1  0.0000000  1.2552000  3
    786    784    783    790     1  0.0000000  1.2552000  3
    786    784    796    808     1  0.0000000  0.6508444  3
    786    784    796    797     1  0.0000000  0.6508444  3
    786    784    796    798     1  0.0000000  0.6508444  3
    787    783    790    791     1  0.0000000  1.2552000  3
    787    783    790    792     1  0.0000000  1.2552000  3
    787    799    805    806     1  0.0000000  0.6508444  3
    787    799    805    807     1  0.0000000  0.6508444  3
    788    787    783    790     1  0.0000000  1.2552000  3
    788    787    799    805     1  0.0000000  0.6508444  3
    788    787    799    800     1  0.0000000  0.6508444  3
    788    787    799    801     1  0.0000000  0.6508444  3
    789    787    783    790     1  0.0000000  1.2552000  3
    789    787    799    805     1  0.0000000  0.6508444  3
    789    787    799    800     1  0.0000000  0.6508444  3
    789    787    799    801     1  0.0000000  0.6508444  3
    790    793    802    803     1  0.0000000  0.6508444  3
    790    793    802    804     1  0.0000000  0.6508444  3
    791    790    793    802     1  0.0000000  0.6508444  3
    791    790    793    794     1  0.0000000  0.6508444  3
    791    790    793    795     1  0.0000000  0.6508444  3
    792    790    793    802     1  0.0000000  0.6508444  3
    792    790    793    794     1  0.0000000  0.6508444  3
    792    790    793    795     1  0.0000000  0.6508444  3
    794    793    802    811     1  0.0000000  1.0460000  1
    794    793    802    811     1  0.0000000  0.0000000  3
    794    793    802    803     1  0.0000000  0.6508444  3
    794    793    802    804     1  0.0000000  0.6508444  3
    795    793    802    811     1  0.0000000  1.0460000  1
    795    793    802    811     1  0.0000000  0.0000000  3
    795    793    802    803     1  0.0000000  0.6508444  3
    795    793    802    804     1  0.0000000  0.6508444  3
    797    796    808   1705     1  0.0000000  1.0460000  1
    797    796    808   1705     1  0.0000000  0.0000000  3
    797    796    808    809     1  0.0000000  0.6508444  3
    797    796    808    810     1  0.0000000  0.6508444  3
    798    796    808   1705     1  0.0000000  1.0460000  1
    798    796    808   1705     1  0.0000000  0.0000000  3
    798    796    808    809     1  0.0000000  0.6508444  3
    798    796    808    810     1  0.0000000  0.6508444  3
    800    799    805   1674     1  0.0000000  1.0460000  1
    800    799    805   1674     1  0.0000000  0.0000000  3
    800    799    805    806     1  0.0000000  0.6508444  3
    800    799    805    807     1  0.0000000  0.6508444  3
    801    799    805   1674     1  0.0000000  1.0460000  1
    801    799    805   1674     1  0.0000000  0.0000000  3
    801    799    805    806     1  0.0000000  0.6508444  3
    801    799    805    807     1  0.0000000  0.6508444  3
    805   1674   1644   1645     1  0.0000000  1.6038667  3
    805   1674   1644   1646     1  0.0000000  1.6038667  3
    806    805   1674   1644     1  0.0000000  1.6038667  3
    807    805   1674   1644     1  0.0000000  1.6038667  3
    808   1705   1675   1676     1  0.0000000  1.6038667  3
    808   1705   1675   1677     1  0.0000000  1.6038667  3
    809    808   1705   1675     1  0.0000000  1.6038667  3
    810    808   1705   1675     1  0.0000000  1.6038667  3
    812    813    825    826     1  0.0000000  0.6508444  3
    812    813    825    827     1  0.0000000  0.6508444  3
    812    816    828    829     1  0.0000000  0.6508444  3
    812    816    828    830     1  0.0000000  0.6508444  3
    812    819    822    823     1  0.0000000  0.6508444  3
    812    819    822    824     1  0.0000000  0.6508444  3
    813    812    816    817     1  0.0000000  1.2552000  3
    813    812    816    818     1  0.0000000  1.2552000  3
    813    812    819    820     1  0.0000000  1.2552000  3
    813    812    819    821     1  0.0000000  1.2552000  3
    813    825    837    838     1  0.0000000  0.6508444  3
    813    825    837    839     1  0.0000000  0.6508444  3
    814    813    812    816     1  0.0000000  1.2552000  3
    814    813    812    819     1  0.0000000  1.2552000  3
    814    813    825    837     1  0.0000000  0.6508444  3
    814    813    825    826     1  0.0000000  0.6508444  3
    814    813    825    827     1  0.0000000  0.6508444  3
    815    813    812    816     1  0.0000000  1.2552000  3
    815    813    812    819     1  0.0000000  1.2552000  3
    815    813    825    837     1  0.0000000  0.6508444  3
    815    813    825    826     1  0.0000000  0.6508444  3
    815    813    825    827     1  0.0000000  0.6508444  3
    816    812    819    820     1  0.0000000  1.2552000  3
    816    812    819    821     1  0.0000000  1.2552000  3
    816    828    834    835     1  0.0000000  0.6508444  3
    816    828    834    836     1  0.0000000  0.6508444  3
    817    816    812    819     1  0.0000000  1.2552000  3
    817    816    828    834     1  0.0000000  0.6508444  3
    817    816    828    829     1  0.0000000  0.6508444  3
    817    816    828    830     1  0.0000000  0.6508444  3
    818    816    812    819     1  0.0000000  1.2552000  3
    818    816    828    834     1  0.0000000  0.6508444  3
    818    816    828    829     1  0.0000000  0.6508444  3
    818    816    828    830     1  0.0000000  0.6508444  3
    819    822    831    832     1  0.0000000  0.6508444  3
    819    822    831    833     1  0.0000000  0.6508444  3
    820    819    822    831     1  0.0000000  0.6508444  3
    820    819    822    823     1  0.0000000  0.6508444  3
    820    819    822    824     1  0.0000000  0.6508444  3
    821    819    822    831     1  0.0000000  0.6508444  3
    821    819    822    823     1  0.0000000  0.6508444  3
    821    819    822    824     1  0.0000000  0.6508444  3
    823    822    831    840     1  0.0000000  1.0460000  1
    823    822    831    840     1  0.0000000  0.0000000  3
    823    822    831    832     1  0.0000000  0.6508444  3
    823    822    831    833     1  0.0000000  0.6508444  3
    824    822    831    840     1  0.0000000  1.0460000  1
    824    822    831    840     1  0.0000000  0.0000000  3
    824    822    831    832     1  0.0000000  0.6508444  3
    824    822    831    833     1  0.0000000  0.6508444  3
    826    825    837   1767     1  0.0000000  1.0460000  1
    826    825    837   1767     1  0.0000000  0.0000000  3
    826    825    837    838     1  0.0000000  0.6508444  3
    826    825    837    839     1  0.0000000  0.6508444  3
    827    825    837   1767     1  0.0000000  1.0460000  1
    827    825    837   1767     1  0.0000000  0.0000000  3
    827    825    837    838     1  0.0000000  0.6508444  3
    827    825    837    839     1  0.0000000  0.6508444  3
    829    828    834   1736     1  0.0000000  1.0460000  1
    829    828    834   1736     1  0.0000000  0.0000000  3
    829    828    834    835     1  0.0000000  0.6508444  3
    829    828    834    836     1  0.0000000  0.6508444  3
    830    828    834   1736     1  0.0000000  1.0460000  1
    830    828    834   1736     1  0.0000000  0.0000000  3
    830    828    834    835     1  0.0000000  0.6508444  3
    830    828    834    836     1  0.0000000  0.6508444  3
    834   1736   1706   1707     1  0.0000000  1.6038667  3
    834   1736   1706   1708     1  0.0000000  1.6038667  3
    835    834   1736   1706     1  0.0000000  1.6038667  3
    836    834   1736   1706     1  0.0000000  1.6038667  3
    837   1767   1737   1738     1  0.0000000  1.6038667  3
    837   1767   1737   1739     1  0.0000000  1.6038667  3
    838    837   1767   1737     1  0.0000000  1.6038667  3
    839    837   1767   1737     1  0.0000000  1.6038667  3
    841    842    854    855     1  0.0000000  0.6508444  3
    841    842    854    856     1  0.0000000  0.6508444  3
    841    845    857    858     1  0.0000000  0.6508444  3
    841    845    857    859     1  0.0000000  0.6508444  3
    841    848    851    852     1  0.0000000  0.6508444  3
    841    848    851    853     1  0.0000000  0.6508444  3
    842    841    845    846     1  0.0000000  1.2552000  3
    842    841    845    847     1  0.0000000  1.2552000  3
    842    841    848    849     1  0.0000000  1.2552000  3
    842    841    848    850     1  0.0000000  1.2552000  3
    842    854    866    867     1  0.0000000  0.6508444  3
    842    854    866    868     1  0.0000000  0.6508444  3
    843    842    841    845     1  0.0000000  1.2552000  3
    843    842    841    848     1  0.0000000  1.2552000  3
    843    842    854    866     1  0.0000000  0.6508444  3
    843    842    854    855     1  0.0000000  0.6508444  3
    843    842    854    856     1  0.0000000  0.6508444  3
    844    842    841    845     1  0.0000000  1.2552000  3
    844    842    841    848     1  0.0000000  1.2552000  3
    844    842    854    866     1  0.0000000  0.6508444  3
    844    842    854    855     1  0.0000000  0.6508444  3
    844    842    854    856     1  0.0000000  0.6508444  3
    845    841    848    849     1  0.0000000  1.2552000  3
    845    841    848    850     1  0.0000000  1.2552000  3
    845    857    863    864     1  0.0000000  0.6508444  3
    845    857    863    865     1  0.0000000  0.6508444  3
    846    845    841    848     1  0.0000000  1.2552000  3
    846    845    857    863     1  0.0000000  0.6508444  3
    846    845    857    858     1  0.0000000  0.6508444  3
    846    845    857    859     1  0.0000000  0.6508444  3
    847    845    841    848     1  0.0000000  1.2552000  3
    847    845    857    863     1  0.0000000  0.6508444  3
    847    845    857    858     1  0.0000000  0.6508444  3
    847    845    857    859     1  0.0000000  0.6508444  3
    848    851    860    861     1  0.0000000  0.6508444  3
    848    851    860    862     1  0.0000000  0.6508444  3
    849    848    851    860     1  0.0000000  0.6508444  3
    849    848    851    852     1  0.0000000  0.6508444  3
    849    848    851    853     1  0.0000000  0.6508444  3
    850    848    851    860     1  0.0000000  0.6508444  3
    850    848    851    852     1  0.0000000  0.6508444  3
    850    848    851    853     1  0.0000000  0.6508444  3
    852    851    860    869     1  0.0000000  1.0460000  1
    852    851    860    869     1  0.0000000  0.0000000  3
    852    851    860    861     1  0.0000000  0.6508444  3
    852    851    860    862     1  0.0000000  0.6508444  3
    853    851    860    869     1  0.0000000  1.0460000  1
    853    851    860    869     1  0.0000000  0.0000000  3
    853    851    860    861     1  0.0000000  0.6508444  3
    853    851    860    862     1  0.0000000  0.6508444  3
    855    854    866   1829     1  0.0000000  1.0460000  1
    855    854    866   1829     1  0.0000000  0.0000000  3
    855    854    866    867     1  0.0000000  0.6508444  3
    855    854    866    868     1  0.0000000  0.6508444  3
    856    854    866   1829     1  0.0000000  1.0460000  1
    856    854    866   1829     1  0.0000000  0.0000000  3
    856    854    866    867     1  0.0000000  0.6508444  3
    856    854    866    868     1  0.0000000  0.6508444  3
    858    857    863   1798     1  0.0000000  1.0460000  1
    858    857    863   1798     1  0.0000000  0.0000000  3
    858    857    863    864     1  0.0000000  0.6508444  3
    858    857    863    865     1  0.0000000  0.6508444  3
    859    857    863   1798     1  0.0000000  1.0460000  1
    859    857    863   1798     1  0.0000000  0.0000000  3
    859    857    863    864     1  0.0000000  0.6508444  3
    859    857    863    865     1  0.0000000  0.6508444  3
    863   1798   1768   1769     1  0.0000000  1.6038667  3
    863   1798   1768   1770     1  0.0000000  1.6038667  3
    864    863   1798   1768     1  0.0000000  1.6038667  3
    865    863   1798   1768     1  0.0000000  1.6038667  3
    866   1829   1799   1800     1  0.0000000  1.6038667  3
    866   1829   1799   1801     1  0.0000000  1.6038667  3
    867    866   1829   1799     1  0.0000000  1.6038667  3
    868    866   1829   1799     1  0.0000000  1.6038667  3
    870    871    883    884     1  0.0000000  0.6508444  3
    870    871    883    885     1  0.0000000  0.6508444  3
    870    874    886    887     1  0.0000000  0.6508444  3
    870    874    886    888     1  0.0000000  0.6508444  3
    870    877    880    881     1  0.0000000  0.6508444  3
    870    877    880    882     1  0.0000000  0.6508444  3
    871    870    874    875     1  0.0000000  1.2552000  3
    871    870    874    876     1  0.0000000  1.2552000  3
    871    870    877    878     1  0.0000000  1.2552000  3
    871    870    877    879     1  0.0000000  1.2552000  3
    871    883    895    896     1  0.0000000  0.6508444  3
    871    883    895    897     1  0.0000000  0.6508444  3
    872    871    870    874     1  0.0000000  1.2552000  3
    872    871    870    877     1  0.0000000  1.2552000  3
    872    871    883    895     1  0.0000000  0.6508444  3
    872    871    883    884     1  0.0000000  0.6508444  3
    872    871    883    885     1  0.0000000  0.6508444  3
    873    871    870    874     1  0.0000000  1.2552000  3
    873    871    870    877     1  0.0000000  1.2552000  3
    873    871    883    895     1  0.0000000  0.6508444  3
    873    871    883    884     1  0.0000000  0.6508444  3
    873    871    883    885     1  0.0000000  0.6508444  3
    874    870    877    878     1  0.0000000  1.2552000  3
    874    870    877    879     1  0.0000000  1.2552000  3
    874    886    892    893     1  0.0000000  0.6508444  3
    874    886    892    894     1  0.0000000  0.6508444  3
    875    874    870    877     1  0.0000000  1.2552000  3
    875    874    886    892     1  0.0000000  0.6508444  3
    875    874    886    887     1  0.0000000  0.6508444  3
    875    874    886    888     1  0.0000000  0.6508444  3
    876    874    870    877     1  0.0000000  1.2552000  3
    876    874    886    892     1  0.0000000  0.6508444  3
    876    874    886    887     1  0.0000000  0.6508444  3
    876    874    886    888     1  0.0000000  0.6508444  3
    877    880    889    890     1  0.0000000  0.6508444  3
    877    880    889    891     1  0.0000000  0.6508444  3
    878    877    880    889     1  0.0000000  0.6508444  3
    878    877    880    881     1  0.0000000  0.6508444  3
    878    877    880    882     1  0.0000000  0.6508444  3
    879    877    880    889     1  0.0000000  0.6508444  3
    879    877    880    881     1  0.0000000  0.6508444  3
    879    877    880    882     1  0.0000000  0.6508444  3
    881    880    889    898     1  0.0000000  1.0460000  1
    881    880    889    898     1  0.0000000  0.0000000  3
    881    880    889    890     1  0.0000000  0.6508444  3
    881    880    889    891     1  0.0000000  0.6508444  3
    882    880    889    898     1  0.0000000  1.0460000  1
    882    880    889    898     1  0.0000000  0.0000000  3
    882    880    889    890     1  0.0000000  0.6508444  3
    882    880    889    891     1  0.0000000  0.6508444  3
    884    883    895   1891     1  0.0000000  1.0460000  1
    884    883    895   1891     1  0.0000000  0.0000000  3
    884    883    895    896     1  0.0000000  0.6508444  3
    884    883    895    897     1  0.0000000  0.6508444  3
    885    883    895   1891     1  0.0000000  1.0460000  1
    885    883    895   1891     1  0.0000000  0.0000000  3
    885    883    895    896     1  0.0000000  0.6508444  3
    885    883    895    897     1  0.0000000  0.6508444  3
    887    886    892   1860     1  0.0000000  1.0460000  1
    887    886    892   1860     1  0.0000000  0.0000000  3
    887    886    892    893     1  0.0000000  0.6508444  3
    887    886    892    894     1  0.0000000  0.6508444  3
    888    886    892   1860     1  0.0000000  1.0460000  1
    888    886    892   1860     1  0.0000000  0.0000000  3
    888    886    892    893     1  0.0000000  0.6508444  3
    888    886    892    894     1  0.0000000  0.6508444  3
    892   1860   1830   1831     1  0.0000000  1.6038667  3
    892   1860   1830   1832     1  0.0000000  1.6038667  3
    893    892   1860   1830     1  0.0000000  1.6038667  3
    894    892   1860   1830     1  0.0000000  1.6038667  3
    895   1891   1861   1862     1  0.0000000  1.6038667  3
    895   1891   1861   1863     1  0.0000000  1.6038667  3
    896    895   1891   1861     1  0.0000000  1.6038667  3
    897    895   1891   1861     1  0.0000000  1.6038667  3
    899    900    912    913     1  0.0000000  0.6508444  3
    899    900    912    914     1  0.0000000  0.6508444  3
    899    903    915    916     1  0.0000000  0.6508444  3
    899    903    915    917     1  0.0000000  0.6508444  3
    899    906    909    910     1  0.0000000  0.6508444  3
    899    906    909    911     1  0.0000000  0.6508444  3
    900    899    903    904     1  0.0000000  1.2552000  3
    900    899    903    905     1  0.0000000  1.2552000  3
    900    899    906    907     1  0.0000000  1.2552000  3
    900    899    906    908     1  0.0000000  1.2552000  3
    900    912    924    925     1  0.0000000  0.6508444  3
    900    912    924    926     1  0.0000000  0.6508444  3
    901    900    899    903     1  0.0000000  1.2552000  3
    901    900    899    906     1  0.0000000  1.2552000  3
    901    900    912    924     1  0.0000000  0.6508444  3
    901    900    912    913     1  0.0000000  0.6508444  3
    901    900    912    914     1  0.0000000  0.6508444  3
    902    900    899    903     1  0.0000000  1.2552000  3
    902    900    899    906     1  0.0000000  1.2552000  3
    902    900    912    924     1  0.0000000  0.6508444  3
    902    900    912    913     1  0.0000000  0.6508444  3
    902    900    912    914     1  0.0000000  0.6508444  3
    903    899    906    907     1  0.0000000  1.2552000  3
    903    899    906    908     1  0.0000000  1.2552000  3
    903    915    921    922     1  0.0000000  0.6508444  3
    903    915    921    923     1  0.0000000  0.6508444  3
    904    903    899    906     1  0.0000000  1.2552000  3
    904    903    915    921     1  0.0000000  0.6508444  3
    904    903    915    916     1  0.0000000  0.6508444  3
    904    903    915    917     1  0.0000000  0.6508444  3
    905    903    899    906     1  0.0000000  1.2552000  3
    905    903    915    921     1  0.0000000  0.6508444  3
    905    903    915    916     1  0.0000000  0.6508444  3
    905    903    915    917     1  0.0000000  0.6508444  3
    906    909    918    919     1  0.0000000  0.6508444  3
    906    909    918    920     1  0.0000000  0.6508444  3
    907    906    909    918     1  0.0000000  0.6508444  3
    907    906    909    910     1  0.0000000  0.6508444  3
    907    906    909    911     1  0.0000000  0.6508444  3
    908    906    909    918     1  0.0000000  0.6508444  3
    908    906    909    910     1  0.0000000  0.6508444  3
    908    906    909    911     1  0.0000000  0.6508444  3
    910    909    918    927     1  0.0000000  1.0460000  1
    910    909    918    927     1  0.0000000  0.0000000  3
    910    909    918    919     1  0.0000000  0.6508444  3
    910    909    918    920     1  0.0000000  0.6508444  3
    911    909    918    927     1  0.0000000  1.0460000  1
    911    909    918    927     1  0.0000000  0.0000000  3
    911    909    918    919     1  0.0000000  0.6508444  3
    911    909    918    920     1  0.0000000  0.6508444  3
    913    912    924   1953     1  0.0000000  1.0460000  1
    913    912    924   1953     1  0.0000000  0.0000000  3
    913    912    924    925     1  0.0000000  0.6508444  3
    913    912    924    926     1  0.0000000  0.6508444  3
    914    912    924   1953     1  0.0000000  1.0460000  1
    914    912    924   1953     1  0.0000000  0.0000000  3
    914    912    924    925     1  0.0000000  0.6508444  3
    914    912    924    926     1  0.0000000  0.6508444  3
    916    915    921   1922     1  0.0000000  1.0460000  1
    916    915    921   1922     1  0.0000000  0.0000000  3
    916    915    921    922     1  0.0000000  0.6508444  3
    916    915    921    923     1  0.0000000  0.6508444  3
    917    915    921   1922     1  0.0000000  1.0460000  1
    917    915    921   1922     1  0.0000000  0.0000000  3
    917    915    921    922     1  0.0000000  0.6508444  3
    917    915    921    923     1  0.0000000  0.6508444  3
    921   1922   1892   1893     1  0.0000000  1.6038667  3
    921   1922   1892   1894     1  0.0000000  1.6038667  3
    922    921   1922   1892     1  0.0000000  1.6038667  3
    923    921   1922   1892     1  0.0000000  1.6038667  3
    924   1953   1923   1924     1  0.0000000  1.6038667  3
    924   1953   1923   1925     1  0.0000000  1.6038667  3
    925    924   1953   1923     1  0.0000000  1.6038667  3
    926    924   1953   1923     1  0.0000000  1.6038667  3
    928    929    941    942     1  0.0000000  0.6508444  3
    928    929    941    943     1  0.0000000  0.6508444  3
    928    932    944    945     1  0.0000000  0.6508444  3
    928    932    944    946     1  0.0000000  0.6508444  3
    928    935    938    939     1  0.0000000  0.6508444  3
    928    935    938    940     1  0.0000000  0.6508444  3
    929    928    932    933     1  0.0000000  1.2552000  3
    929    928    932    934     1  0.0000000  1.2552000  3
    929    928    935    936     1  0.0000000  1.2552000  3
    929    928    935    937     1  0.0000000  1.2552000  3
    929    941    953    954     1  0.0000000  0.6508444  3
    929    941    953    955     1  0.0000000  0.6508444  3
    930    929    928    932     1  0.0000000  1.2552000  3
    930    929    928    935     1  0.0000000  1.2552000  3
    930    929    941    953     1  0.0000000  0.6508444  3
    930    929    941    942     1  0.0000000  0.6508444  3
    930    929    941    943     1  0.0000000  0.6508444  3
    931    929    928    932     1  0.0000000  1.2552000  3
    931    929    928    935     1  0.0000000  1.2552000  3
    931    929    941    953     1  0.0000000  0.6508444  3
    931    929    941    942     1  0.0000000  0.6508444  3
    931    929    941    943     1  0.0000000  0.6508444  3
    932    928    935    936     1  0.0000000  1.2552000  3
    932    928    935    937     1  0.0000000  1.2552000  3
    932    944    950    951     1  0.0000000  0.6508444  3
    932    944    950    952     1  0.0000000  0.6508444  3
    933    932    928    935     1  0.0000000  1.2552000  3
    933    932    944    950     1  0.0000000  0.6508444  3
    933    932    944    945     1  0.0000000  0.6508444  3
    933    932    944    946     1  0.0000000  0.6508444  3
    934    932    928    935     1  0.0000000  1.2552000  3
    934    932    944    950     1  0.0000000  0.6508444  3
    934    932    944    945     1  0.0000000  0.6508444  3
    934    932    944    946     1  0.0000000  0.6508444  3
    935    938    947    948     1  0.0000000  0.6508444  3
    935    938    947    949     1  0.0000000  0.6508444  3
    936    935    938    947     1  0.0000000  0.6508444  3
    936    935    938    939     1  0.0000000  0.6508444  3
    936    935    938    940     1  0.0000000  0.6508444  3
    937    935    938    947     1  0.0000000  0.6508444  3
    937    935    938    939     1  0.0000000  0.6508444  3
    937    935    938    940     1  0.0000000  0.6508444  3
    939    938    947    956     1  0.0000000  1.0460000  1
    939    938    947    956     1  0.0000000  0.0000000  3
    939    938    947    948     1  0.0000000  0.6508444  3
    939    938    947    949     1  0.0000000  0.6508444  3
    940    938    947    956     1  0.0000000  1.0460000  1
    940    938    947    956     1  0.0000000  0.0000000  3
    940    938    947    948     1  0.0000000  0.6508444  3
    940    938    947    949     1  0.0000000  0.6508444  3
    942    941    953   2015     1  0.0000000  1.0460000  1
    942    941    953   2015     1  0.0000000  0.0000000  3
    942    941    953    954     1  0.0000000  0.6508444  3
    942    941    953    955     1  0.0000000  0.6508444  3
    943    941    953   2015     1  0.0000000  1.0460000  1
    943    941    953   2015     1  0.0000000  0.0000000  3
    943    941    953    954     1  0.0000000  0.6508444  3
    943    941    953    955     1  0.0000000  0.6508444  3
    945    944    950   1984     1  0.0000000  1.0460000  1
    945    944    950   1984     1  0.0000000  0.0000000  3
    945    944    950    951     1  0.0000000  0.6508444  3
    945    944    950    952     1  0.0000000  0.6508444  3
    946    944    950   1984     1  0.0000000  1.0460000  1
    946    944    950   1984     1  0.0000000  0.0000000  3
    946    944    950    951     1  0.0000000  0.6508444  3
    946    944    950    952     1  0.0000000  0.6508444  3
    950   1984   1954   1955     1  0.0000000  1.6038667  3
    950   1984   1954   1956     1  0.0000000  1.6038667  3
    951    950   1984   1954     1  0.0000000  1.6038667  3
    952    950   1984   1954     1  0.0000000  1.6038667  3
    953   2015   1985   1986     1  0.0000000  1.6038667  3
    953   2015   1985   1987     1  0.0000000  1.6038667  3
    954    953   2015   1985     1  0.0000000  1.6038667  3
    955    953   2015   1985     1  0.0000000  1.6038667  3
    957    958    970    971     1  0.0000000  0.6508444  3
    957    958    970    972     1  0.0000000  0.6508444  3
    957    961    973    974     1  0.0000000  0.6508444  3
    957    961    973    975     1  0.0000000  0.6508444  3
    957    964    967    968     1  0.0000000  0.6508444  3
    957    964    967    969     1  0.0000000  0.6508444  3
    958    957    961    962     1  0.0000000  1.2552000  3
    958    957    961    963     1  0.0000000  1.2552000  3
    958    957    964    965     1  0.0000000  1.2552000  3
    958    957    964    966     1  0.0000000  1.2552000  3
    958    970    982    983     1  0.0000000  0.6508444  3
    958    970    982    984     1  0.0000000  0.6508444  3
    959    958    957    961     1  0.0000000  1.2552000  3
    959    958    957    964     1  0.0000000  1.2552000  3
    959    958    970    982     1  0.0000000  0.6508444  3
    959    958    970    971     1  0.0000000  0.6508444  3
    959    958    970    972     1  0.0000000  0.6508444  3
    960    958    957    961     1  0.0000000  1.2552000  3
    960    958    957    964     1  0.0000000  1.2552000  3
    960    958    970    982     1  0.0000000  0.6508444  3
    960    958    970    971     1  0.0000000  0.6508444  3
    960    958    970    972     1  0.0000000  0.6508444  3
    961    957    964    965     1  0.0000000  1.2552000  3
    961    957    964    966     1  0.0000000  1.2552000  3
    961    973    979    980     1  0.0000000  0.6508444  3
    961    973    979    981     1  0.0000000  0.6508444  3
    962    961    957    964     1  0.0000000  1.2552000  3
    962    961    973    979     1  0.0000000  0.6508444  3
    962    961    973    974     1  0.0000000  0.6508444  3
    962    961    973    975     1  0.0000000  0.6508444  3
    963    961    957    964     1  0.0000000  1.2552000  3
    963    961    973    979     1  0.0000000  0.6508444  3
    963    961    973    974     1  0.0000000  0.6508444  3
    963    961    973    975     1  0.0000000  0.6508444  3
    964    967    976    977     1  0.0000000  0.6508444  3
    964    967    976    978     1  0.0000000  0.6508444  3
    965    964    967    976     1  0.0000000  0.6508444  3
    965    964    967    968     1  0.0000000  0.6508444  3
    965    964    967    969     1  0.0000000  0.6508444  3
    966    964    967    976     1  0.0000000  0.6508444  3
    966    964    967    968     1  0.0000000  0.6508444  3
    966    964    967    969     1  0.0000000  0.6508444  3
    968    967    976    985     1  0.0000000  1.0460000  1
    968    967    976    985     1  0.0000000  0.0000000  3
    968    967    976    977     1  0.0000000  0.6508444  3
    968    967    976    978     1  0.0000000  0.6508444  3
    969    967    976    985     1  0.0000000  1.0460000  1
    969    967    976    985     1  0.0000000  0.0000000  3
    969    967    976    977     1  0.0000000  0.6508444  3
    969    967    976    978     1  0.0000000  0.6508444  3
    971    970    982   2077     1  0.0000000  1.0460000  1
    971    970    982   2077     1  0.0000000  0.0000000  3
    971    970    982    983     1  0.0000000  0.6508444  3
    971    970    982    984     1  0.0000000  0.6508444  3
    972    970    982   2077     1  0.0000000  1.0460000  1
    972    970    982   2077     1  0.0000000  0.0000000  3
    972    970    982    983     1  0.0000000  0.6508444  3
    972    970    982    984     1  0.0000000  0.6508444  3
    974    973    979   2046     1  0.0000000  1.0460000  1
    974    973    979   2046     1  0.0000000  0.0000000  3
    974    973    979    980     1  0.0000000  0.6508444  3
    974    973    979    981     1  0.0000000  0.6508444  3
    975    973    979   2046     1  0.0000000  1.0460000  1
    975    973    979   2046     1  0.0000000  0.0000000  3
    975    973    979    980     1  0.0000000  0.6508444  3
    975    973    979    981     1  0.0000000  0.6508444  3
    979   2046   2016   2017     1  0.0000000  1.6038667  3
    979   2046   2016   2018     1  0.0000000  1.6038667  3
    980    979   2046   2016     1  0.0000000  1.6038667  3
    981    979   2046   2016     1  0.0000000  1.6038667  3
    982   2077   2047   2048     1  0.0000000  1.6038667  3
    982   2077   2047   2049     1  0.0000000  1.6038667  3
    983    982   2077   2047     1  0.0000000  1.6038667  3
    984    982   2077   2047     1  0.0000000  1.6038667  3
    986    987    999   1000     1  0.0000000  0.6508444  3
    986    987    999   1001     1  0.0000000  0.6508444  3
    986    990   1002   1003     1  0.0000000  0.6508444  3
    986    990   1002   1004     1  0.0000000  0.6508444  3
    986    993    996    997     1  0.0000000  0.6508444  3
    986    993    996    998     1  0.0000000  0.6508444  3
    987    986    990    991     1  0.0000000  1.2552000  3
    987    986    990    992     1  0.0000000  1.2552000  3
    987    986    993    994     1  0.0000000  1.2552000  3
    987    986    993    995     1  0.0000000  1.2552000  3
    987    999   1011   1012     1  0.0000000  0.6508444  3
    987    999   1011   1013     1  0.0000000  0.6508444  3
    988    987    986    990     1  0.0000000  1.2552000  3
    988    987    986    993     1  0.0000000  1.2552000  3
    988    987    999   1011     1  0.0000000  0.6508444  3
    988    987    999   1000     1  0.0000000  0.6508444  3
    988    987    999   1001     1  0.0000000  0.6508444  3
    989    987    986    990     1  0.0000000  1.2552000  3
    989    987    986    993     1  0.0000000  1.2552000  3
    989    987    999   1011     1  0.0000000  0.6508444  3
    989    987    999   1000     1  0.0000000  0.6508444  3
    989    987    999   1001     1  0.0000000  0.6508444  3
    990    986    993    994     1  0.0000000  1.2552000  3
    990    986    993    995     1  0.0000000  1.2552000  3
    990   1002   1008   1009     1  0.0000000  0.6508444  3
    990   1002   1008   1010     1  0.0000000  0.6508444  3
    991    990    986    993     1  0.0000000  1.2552000  3
    991    990   1002   1008     1  0.0000000  0.6508444  3
    991    990   1002   1003     1  0.0000000  0.6508444  3
    991    990   1002   1004     1  0.0000000  0.6508444  3
    992    990    986    993     1  0.0000000  1.2552000  3
    992    990   1002   1008     1  0.0000000  0.6508444  3
    992    990   1002   1003     1  0.0000000  0.6508444  3
    992    990   1002   1004     1  0.0000000  0.6508444  3
    993    996   1005   1006     1  0.0000000  0.6508444  3
    993    996   1005   1007     1  0.0000000  0.6508444  3
    994    993    996   1005     1  0.0000000  0.6508444  3
    994    993    996    997     1  0.0000000  0.6508444  3
    994    993    996    998     1  0.0000000  0.6508444  3
    995    993    996   1005     1  0.0000000  0.6508444  3
    995    993    996    997     1  0.0000000  0.6508444  3
    995    993    996    998     1  0.0000000  0.6508444  3
    997    996   1005   1014     1  0.0000000  1.0460000  1
    997    996   1005   1014     1  0.0000000  0.0000000  3
    997    996   1005   1006     1  0.0000000  0.6508444  3
    997    996   1005   1007     1  0.0000000  0.6508444  3
    998    996   1005   1014     1  0.0000000  1.0460000  1
    998    996   1005   1014     1  0.0000000  0.0000000  3
    998    996   1005   1006     1  0.0000000  0.6508444  3
    998    996   1005   1007     1  0.0000000  0.6508444  3
   1000    999   1011   2139     1  0.0000000  1.0460000  1
   1000    999   1011   2139     1  0.0000000  0.0000000  3
   1000    999   1011   1012     1  0.0000000  0.6508444  3
   1000    999   1011   1013     1  0.0000000  0.6508444  3
   1001    999   1011   2139     1  0.0000000  1.0460000  1
   1001    999   1011   2139     1  0.0000000  0.0000000  3
   1001    999   1011   1012     1  0.0000000  0.6508444  3
   1001    999   1011   1013     1  0.0000000  0.6508444  3
   1003   1002   1008   2108     1  0.0000000  1.0460000  1
   1003   1002   1008   2108     1  0.0000000  0.0000000  3
   1003   1002   1008   1009     1  0.0000000  0.6508444  3
   1003   1002   1008   1010     1  0.0000000  0.6508444  3
   1004   1002   1008   2108     1  0.0000000  1.0460000  1
   1004   1002   1008   2108     1  0.0000000  0.0000000  3
   1004   1002   1008   1009     1  0.0000000  0.6508444  3
   1004   1002   1008   1010     1  0.0000000  0.6508444  3
   1008   2108   2078   2079     1  0.0000000  1.6038667  3
   1008   2108   2078   2080     1  0.0000000  1.6038667  3
   1009   1008   2108   2078     1  0.0000000  1.6038667  3
   1010   1008   2108   2078     1  0.0000000  1.6038667  3
   1011   2139   2109   2110     1  0.0000000  1.6038667  3
   1011   2139   2109   2111     1  0.0000000  1.6038667  3
   1012   1011   2139   2109     1  0.0000000  1.6038667  3
   1013   1011   2139   2109     1  0.0000000  1.6038667  3
   1015   1016   1028   1029     1  0.0000000  0.6508444  3
   1015   1016   1028   1030     1  0.0000000  0.6508444  3
   1015   1019   1031   1032     1  0.0000000  0.6508444  3
   1015   1019   1031   1033     1  0.0000000  0.6508444  3
   1015   1022   1025   1026     1  0.0000000  0.6508444  3
   1015   1022   1025   1027     1  0.0000000  0.6508444  3
   1016   1015   1019   1020     1  0.0000000  1.2552000  3
   1016   1015   1019   1021     1  0.0000000  1.2552000  3
   1016   1015   1022   1023     1  0.0000000  1.2552000  3
   1016   1015   1022   1024     1  0.0000000  1.2552000  3
   1016   1028   1040   1041     1  0.0000000  0.6508444  3
   1016   1028   1040   1042     1  0.0000000  0.6508444  3
   1017   1016   1015   1019     1  0.0000000  1.2552000  3
   1017   1016   1015   1022     1  0.0000000  1.2552000  3
   1017   1016   1028   1040     1  0.0000000  0.6508444  3
   1017   1016   1028   1029     1  0.0000000  0.6508444  3
   1017   1016   1028   1030     1  0.0000000  0.6508444  3
   1018   1016   1015   1019     1  0.0000000  1.2552000  3
   1018   1016   1015   1022     1  0.0000000  1.2552000  3
   1018   1016   1028   1040     1  0.0000000  0.6508444  3
   1018   1016   1028   1029     1  0.0000000  0.6508444  3
   1018   1016   1028   1030     1  0.0000000  0.6508444  3
   1019   1015   1022   1023     1  0.0000000  1.2552000  3
   1019   1015   1022   1024     1  0.0000000  1.2552000  3
   1019   1031   1037   1038     1  0.0000000  0.6508444  3
   1019   1031   1037   1039     1  0.0000000  0.6508444  3
   1020   1019   1015   1022     1  0.0000000  1.2552000  3
   1020   1019   1031   1037     1  0.0000000  0.6508444  3
   1020   1019   1031   1032     1  0.0000000  0.6508444  3
   1020   1019   1031   1033     1  0.0000000  0.6508444  3
   1021   1019   1015   1022     1  0.0000000  1.2552000  3
   1021   1019   1031   1037     1  0.0000000  0.6508444  3
   1021   1019   1031   1032     1  0.0000000  0.6508444  3
   1021   1019   1031   1033     1  0.0000000  0.6508444  3
   1022   1025   1034   1035     1  0.0000000  0.6508444  3
   1022   1025   1034   1036     1  0.0000000  0.6508444  3
   1023   1022   1025   1034     1  0.0000000  0.6508444  3
   1023   1022   1025   1026     1  0.0000000  0.6508444  3
   1023   1022   1025   1027     1  0.0000000  0.6508444  3
   1024   1022   1025   1034     1  0.0000000  0.6508444  3
   1024   1022   1025   1026     1  0.0000000  0.6508444  3
   1024   1022   1025   1027     1  0.0000000  0.6508444  3
   1026   1025   1034   1043     1  0.0000000  1.0460000  1
   1026   1025   1034   1043     1  0.0000000  0.0000000  3
   1026   1025   1034   1035     1  0.0000000  0.6508444  3
   1026   1025   1034   1036     1  0.0000000  0.6508444  3
   1027   1025   1034   1043     1  0.0000000  1.0460000  1
   1027   1025   1034   1043     1  0.0000000  0.0000000  3
   1027   1025   1034   1035     1  0.0000000  0.6508444  3
   1027   1025   1034   1036     1  0.0000000  0.6508444  3
   1029   1028   1040   2201     1  0.0000000  1.0460000  1
   1029   1028   1040   2201     1  0.0000000  0.0000000  3
   1029   1028   1040   1041     1  0.0000000  0.6508444  3
   1029   1028   1040   1042     1  0.0000000  0.6508444  3
   1030   1028   1040   2201     1  0.0000000  1.0460000  1
   1030   1028   1040   2201     1  0.0000000  0.0000000  3
   1030   1028   1040   1041     1  0.0000000  0.6508444  3
   1030   1028   1040   1042     1  0.0000000  0.6508444  3
   1032   1031   1037   2170     1  0.0000000  1.0460000  1
   1032   1031   1037   2170     1  0.0000000  0.0000000  3
   1032   1031   1037   1038     1  0.0000000  0.6508444  3
   1032   1031   1037   1039     1  0.0000000  0.6508444  3
   1033   1031   1037   2170     1  0.0000000  1.0460000  1
   1033   1031   1037   2170     1  0.0000000  0.0000000  3
   1033   1031   1037   1038     1  0.0000000  0.6508444  3
   1033   1031   1037   1039     1  0.0000000  0.6508444  3
   1037   2170   2140   2141     1  0.0000000  1.6038667  3
   1037   2170   2140   2142     1  0.0000000  1.6038667  3
   1038   1037   2170   2140     1  0.0000000  1.6038667  3
   1039   1037   2170   2140     1  0.0000000  1.6038667  3
   1040   2201   2171   2172     1  0.0000000  1.6038667  3
   1040   2201   2171   2173     1  0.0000000  1.6038667  3
   1041   1040   2201   2171     1  0.0000000  1.6038667  3
   1042   1040   2201   2171     1  0.0000000  1.6038667  3
   1044   1045   1057   1058     1  0.0000000  0.6508444  3
   1044   1045   1057   1059     1  0.0000000  0.6508444  3
   1044   1048   1060   1061     1  0.0000000  0.6508444  3
   1044   1048   1060   1062     1  0.0000000  0.6508444  3
   1044   1051   1054   1055     1  0.0000000  0.6508444  3
   1044   1051   1054   1056     1  0.0000000  0.6508444  3
   1045   1044   1048   1049     1  0.0000000  1.2552000  3
   1045   1044   1048   1050     1  0.0000000  1.2552000  3
   1045   1044   1051   1052     1  0.0000000  1.2552000  3
   1045   1044   1051   1053     1  0.0000000  1.2552000  3
   1045   1057   1069   1070     1  0.0000000  0.6508444  3
   1045   1057   1069   1071     1  0.0000000  0.6508444  3
   1046   1045   1044   1048     1  0.0000000  1.2552000  3
   1046   1045   1044   1051     1  0.0000000  1.2552000  3
   1046   1045   1057   1069     1  0.0000000  0.6508444  3
   1046   1045   1057   1058     1  0.0000000  0.6508444  3
   1046   1045   1057   1059     1  0.0000000  0.6508444  3
   1047   1045   1044   1048     1  0.0000000  1.2552000  3
   1047   1045   1044   1051     1  0.0000000  1.2552000  3
   1047   1045   1057   1069     1  0.0000000  0.6508444  3
   1047   1045   1057   1058     1  0.0000000  0.6508444  3
   1047   1045   1057   1059     1  0.0000000  0.6508444  3
   1048   1044   1051   1052     1  0.0000000  1.2552000  3
   1048   1044   1051   1053     1  0.0000000  1.2552000  3
   1048   1060   1066   1067     1  0.0000000  0.6508444  3
   1048   1060   1066   1068     1  0.0000000  0.6508444  3
   1049   1048   1044   1051     1  0.0000000  1.2552000  3
   1049   1048   1060   1066     1  0.0000000  0.6508444  3
   1049   1048   1060   1061     1  0.0000000  0.6508444  3
   1049   1048   1060   1062     1  0.0000000  0.6508444  3
   1050   1048   1044   1051     1  0.0000000  1.2552000  3
   1050   1048   1060   1066     1  0.0000000  0.6508444  3
   1050   1048   1060   1061     1  0.0000000  0.6508444  3
   1050   1048   1060   1062     1  0.0000000  0.6508444  3
   1051   1054   1063   1064     1  0.0000000  0.6508444  3
   1051   1054   1063   1065     1  0.0000000  0.6508444  3
   1052   1051   1054   1063     1  0.0000000  0.6508444  3
   1052   1051   1054   1055     1  0.0000000  0.6508444  3
   1052   1051   1054   1056     1  0.0000000  0.6508444  3
   1053   1051   1054   1063     1  0.0000000  0.6508444  3
   1053   1051   1054   1055     1  0.0000000  0.6508444  3
   1053   1051   1054   1056     1  0.0000000  0.6508444  3
   1055   1054   1063   1072     1  0.0000000  1.0460000  1
   1055   1054   1063   1072     1  0.0000000  0.0000000  3
   1055   1054   1063   1064     1  0.0000000  0.6508444  3
   1055   1054   1063   1065     1  0.0000000  0.6508444  3
   1056   1054   1063   1072     1  0.0000000  1.0460000  1
   1056   1054   1063   1072     1  0.0000000  0.0000000  3
   1056   1054   1063   1064     1  0.0000000  0.6508444  3
   1056   1054   1063   1065     1  0.0000000  0.6508444  3
   1058   1057   1069   2263     1  0.0000000  1.0460000  1
   1058   1057   1069   2263     1  0.0000000  0.0000000  3
   1058   1057   1069   1070     1  0.0000000  0.6508444  3
   1058   1057   1069   1071     1  0.0000000  0.6508444  3
   1059   1057   1069   2263     1  0.0000000  1.0460000  1
   1059   1057   1069   2263     1  0.0000000  0.0000000  3
   1059   1057   1069   1070     1  0.0000000  0.6508444  3
   1059   1057   1069   1071     1  0.0000000  0.6508444  3
   1061   1060   1066   2232     1  0.0000000  1.0460000  1
   1061   1060   1066   2232     1  0.0000000  0.0000000  3
   1061   1060   1066   1067     1  0.0000000  0.6508444  3
   1061   1060   1066   1068     1  0.0000000  0.6508444  3
   1062   1060   1066   2232     1  0.0000000  1.0460000  1
   1062   1060   1066   2232     1  0.0000000  0.0000000  3
   1062   1060   1066   1067     1  0.0000000  0.6508444  3
   1062   1060   1066   1068     1  0.0000000  0.6508444  3
   1066   2232   2202   2203     1  0.0000000  1.6038667  3
   1066   2232   2202   2204     1  0.0000000  1.6038667  3
   1067   1066   2232   2202     1  0.0000000  1.6038667  3
   1068   1066   2232   2202     1  0.0000000  1.6038667  3
   1069   2263   2233   2234     1  0.0000000  1.6038667  3
   1069   2263   2233   2235     1  0.0000000  1.6038667  3
   1070   1069   2263   2233     1  0.0000000  1.6038667  3
   1071   1069   2263   2233     1  0.0000000  1.6038667  3
   1073   1074   1086   1087     1  0.0000000  0.6508444  3
   1073   1074   1086   1088     1  0.0000000  0.6508444  3
   1073   1077   1089   1090     1  0.0000000  0.6508444  3
   1073   1077   1089   1091     1  0.0000000  0.6508444  3
   1073   1080   1083   1084     1  0.0000000  0.6508444  3
   1073   1080   1083   1085     1  0.0000000  0.6508444  3
   1074   1073   1077   1078     1  0.0000000  1.2552000  3
   1074   1073   1077   1079     1  0.0000000  1.2552000  3
   1074   1073   1080   1081     1  0.0000000  1.2552000  3
   1074   1073   1080   1082     1  0.0000000  1.2552000  3
   1074   1086   1098   1099     1  0.0000000  0.6508444  3
   1074   1086   1098   1100     1  0.0000000  0.6508444  3
   1075   1074   1073   1077     1  0.0000000  1.2552000  3
   1075   1074   1073   1080     1  0.0000000  1.2552000  3
   1075   1074   1086   1098     1  0.0000000  0.6508444  3
   1075   1074   1086   1087     1  0.0000000  0.6508444  3
   1075   1074   1086   1088     1  0.0000000  0.6508444  3
   1076   1074   1073   1077     1  0.0000000  1.2552000  3
   1076   1074   1073   1080     1  0.0000000  1.2552000  3
   1076   1074   1086   1098     1  0.0000000  0.6508444  3
   1076   1074   1086   1087     1  0.0000000  0.6508444  3
   1076   1074   1086   1088     1  0.0000000  0.6508444  3
   1077   1073   1080   1081     1  0.0000000  1.2552000  3
   1077   1073   1080   1082     1  0.0000000  1.2552000  3
   1077   1089   1095   1096     1  0.0000000  0.6508444  3
   1077   1089   1095   1097     1  0.0000000  0.6508444  3
   1078   1077   1073   1080     1  0.0000000  1.2552000  3
   1078   1077   1089   1095     1  0.0000000  0.6508444  3
   1078   1077   1089   1090     1  0.0000000  0.6508444  3
   1078   1077   1089   1091     1  0.0000000  0.6508444  3
   1079   1077   1073   1080     1  0.0000000  1.2552000  3
   1079   1077   1089   1095     1  0.0000000  0.6508444  3
   1079   1077   1089   1090     1  0.0000000  0.6508444  3
   1079   1077   1089   1091     1  0.0000000  0.6508444  3
   1080   1083   1092   1093     1  0.0000000  0.6508444  3
   1080   1083   1092   1094     1  0.0000000  0.6508444  3
   1081   1080   1083   1092     1  0.0000000  0.6508444  3
   1081   1080   1083   1084     1  0.0000000  0.6508444  3
   1081   1080   1083   1085     1  0.0000000  0.6508444  3
   1082   1080   1083   1092     1  0.0000000  0.6508444  3
   1082   1080   1083   1084     1  0.0000000  0.6508444  3
   1082   1080   1083   1085     1  0.0000000  0.6508444  3
   1084   1083   1092   1101     1  0.0000000  1.0460000  1
   1084   1083   1092   1101     1  0.0000000  0.0000000  3
   1084   1083   1092   1093     1  0.0000000  0.6508444  3
   1084   1083   1092   1094     1  0.0000000  0.6508444  3
   1085   1083   1092   1101     1  0.0000000  1.0460000  1
   1085   1083   1092   1101     1  0.0000000  0.0000000  3
   1085   1083   1092   1093     1  0.0000000  0.6508444  3
   1085   1083   1092   1094     1  0.0000000  0.6508444  3
   1087   1086   1098   2325     1  0.0000000  1.0460000  1
   1087   1086   1098   2325     1  0.0000000  0.0000000  3
   1087   1086   1098   1099     1  0.0000000  0.6508444  3
   1087   1086   1098   1100     1  0.0000000  0.6508444  3
   1088   1086   1098   2325     1  0.0000000  1.0460000  1
   1088   1086   1098   2325     1  0.0000000  0.0000000  3
   1088   1086   1098   1099     1  0.0000000  0.6508444  3
   1088   1086   1098   1100     1  0.0000000  0.6508444  3
   1090   1089   1095   2294     1  0.0000000  1.0460000  1
   1090   1089   1095   2294     1  0.0000000  0.0000000  3
   1090   1089   1095   1096     1  0.0000000  0.6508444  3
   1090   1089   1095   1097     1  0.0000000  0.6508444  3
   1091   1089   1095   2294     1  0.0000000  1.0460000  1
   1091   1089   1095   2294     1  0.0000000  0.0000000  3
   1091   1089   1095   1096     1  0.0000000  0.6508444  3
   1091   1089   1095   1097     1  0.0000000  0.6508444  3
   1095   2294   2264   2265     1  0.0000000  1.6038667  3
   1095   2294   2264   2266     1  0.0000000  1.6038667  3
   1096   1095   2294   2264     1  0.0000000  1.6038667  3
   1097   1095   2294   2264     1  0.0000000  1.6038667  3
   1098   2325   2295   2296     1  0.0000000  1.6038667  3
   1098   2325   2295   2297     1  0.0000000  1.6038667  3
   1099   1098   2325   2295     1  0.0000000  1.6038667  3
   1100   1098   2325   2295     1  0.0000000  1.6038667  3
   1102   1103   1115   1116     1  0.0000000  0.6508444  3
   1102   1103   1115   1117     1  0.0000000  0.6508444  3
   1102   1106   1118   1119     1  0.0000000  0.6508444  3
   1102   1106   1118   1120     1  0.0000000  0.6508444  3
   1102   1109   1112   1113     1  0.0000000  0.6508444  3
   1102   1109   1112   1114     1  0.0000000  0.6508444  3
   1103   1102   1106   1107     1  0.0000000  1.2552000  3
   1103   1102   1106   1108     1  0.0000000  1.2552000  3
   1103   1102   1109   1110     1  0.0000000  1.2552000  3
   1103   1102   1109   1111     1  0.0000000  1.2552000  3
   1103   1115   1127   1128     1  0.0000000  0.6508444  3
   1103   1115   1127   1129     1  0.0000000  0.6508444  3
   1104   1103   1102   1106     1  0.0000000  1.2552000  3
   1104   1103   1102   1109     1  0.0000000  1.2552000  3
   1104   1103   1115   1127     1  0.0000000  0.6508444  3
   1104   1103   1115   1116     1  0.0000000  0.6508444  3
   1104   1103   1115   1117     1  0.0000000  0.6508444  3
   1105   1103   1102   1106     1  0.0000000  1.2552000  3
   1105   1103   1102   1109     1  0.0000000  1.2552000  3
   1105   1103   1115   1127     1  0.0000000  0.6508444  3
   1105   1103   1115   1116     1  0.0000000  0.6508444  3
   1105   1103   1115   1117     1  0.0000000  0.6508444  3
   1106   1102   1109   1110     1  0.0000000  1.2552000  3
   1106   1102   1109   1111     1  0.0000000  1.2552000  3
   1106   1118   1124   1125     1  0.0000000  0.6508444  3
   1106   1118   1124   1126     1  0.0000000  0.6508444  3
   1107   1106   1102   1109     1  0.0000000  1.2552000  3
   1107   1106   1118   1124     1  0.0000000  0.6508444  3
   1107   1106   1118   1119     1  0.0000000  0.6508444  3
   1107   1106   1118   1120     1  0.0000000  0.6508444  3
   1108   1106   1102   1109     1  0.0000000  1.2552000  3
   1108   1106   1118   1124     1  0.0000000  0.6508444  3
   1108   1106   1118   1119     1  0.0000000  0.6508444  3
   1108   1106   1118   1120     1  0.0000000  0.6508444  3
   1109   1112   1121   1122     1  0.0000000  0.6508444  3
   1109   1112   1121   1123     1  0.0000000  0.6508444  3
   1110   1109   1112   1121     1  0.0000000  0.6508444  3
   1110   1109   1112   1113     1  0.0000000  0.6508444  3
   1110   1109   1112   1114     1  0.0000000  0.6508444  3
   1111   1109   1112   1121     1  0.0000000  0.6508444  3
   1111   1109   1112   1113     1  0.0000000  0.6508444  3
   1111   1109   1112   1114     1  0.0000000  0.6508444  3
   1113   1112   1121   1130     1  0.0000000  1.0460000  1
   1113   1112   1121   1130     1  0.0000000  0.0000000  3
   1113   1112   1121   1122     1  0.0000000  0.6508444  3
   1113   1112   1121   1123     1  0.0000000  0.6508444  3
   1114   1112   1121   1130     1  0.0000000  1.0460000  1
   1114   1112   1121   1130     1  0.0000000  0.0000000  3
   1114   1112   1121   1122     1  0.0000000  0.6508444  3
   1114   1112   1121   1123     1  0.0000000  0.6508444  3
   1116   1115   1127   2387     1  0.0000000  1.0460000  1
   1116   1115   1127   2387     1  0.0000000  0.0000000  3
   1116   1115   1127   1128     1  0.0000000  0.6508444  3
   1116   1115   1127   1129     1  0.0000000  0.6508444  3
   1117   1115   1127   2387     1  0.0000000  1.0460000  1
   1117   1115   1127   2387     1  0.0000000  0.0000000  3
   1117   1115   1127   1128     1  0.0000000  0.6508444  3
   1117   1115   1127   1129     1  0.0000000  0.6508444  3
   1119   1118   1124   2356     1  0.0000000  1.0460000  1
   1119   1118   1124   2356     1  0.0000000  0.0000000  3
   1119   1118   1124   1125     1  0.0000000  0.6508444  3
   1119   1118   1124   1126     1  0.0000000  0.6508444  3
   1120   1118   1124   2356     1  0.0000000  1.0460000  1
   1120   1118   1124   2356     1  0.0000000  0.0000000  3
   1120   1118   1124   1125     1  0.0000000  0.6508444  3
   1120   1118   1124   1126     1  0.0000000  0.6508444  3
   1124   2356   2326   2327     1  0.0000000  1.6038667  3
   1124   2356   2326   2328     1  0.0000000  1.6038667  3
   1125   1124   2356   2326     1  0.0000000  1.6038667  3
   1126   1124   2356   2326     1  0.0000000  1.6038667  3
   1127   2387   2357   2358     1  0.0000000  1.6038667  3
   1127   2387   2357   2359     1  0.0000000  1.6038667  3
   1128   1127   2387   2357     1  0.0000000  1.6038667  3
   1129   1127   2387   2357     1  0.0000000  1.6038667  3
   1131   1132   1144   1145     1  0.0000000  0.6508444  3
   1131   1132   1144   1146     1  0.0000000  0.6508444  3
   1131   1135   1147   1148     1  0.0000000  0.6508444  3
   1131   1135   1147   1149     1  0.0000000  0.6508444  3
   1131   1138   1141   1142     1  0.0000000  0.6508444  3
   1131   1138   1141   1143     1  0.0000000  0.6508444  3
   1132   1131   1135   1136     1  0.0000000  1.2552000  3
   1132   1131   1135   1137     1  0.0000000  1.2552000  3
   1132   1131   1138   1139     1  0.0000000  1.2552000  3
   1132   1131   1138   1140     1  0.0000000  1.2552000  3
   1132   1144   1156   1157     1  0.0000000  0.6508444  3
   1132   1144   1156   1158     1  0.0000000  0.6508444  3
   1133   1132   1131   1135     1  0.0000000  1.2552000  3
   1133   1132   1131   1138     1  0.0000000  1.2552000  3
   1133   1132   1144   1156     1  0.0000000  0.6508444  3
   1133   1132   1144   1145     1  0.0000000  0.6508444  3
   1133   1132   1144   1146     1  0.0000000  0.6508444  3
   1134   1132   1131   1135     1  0.0000000  1.2552000  3
   1134   1132   1131   1138     1  0.0000000  1.2552000  3
   1134   1132   1144   1156     1  0.0000000  0.6508444  3
   1134   1132   1144   1145     1  0.0000000  0.6508444  3
   1134   1132   1144   1146     1  0.0000000  0.6508444  3
   1135   1131   1138   1139     1  0.0000000  1.2552000  3
   1135   1131   1138   1140     1  0.0000000  1.2552000  3
   1135   1147   1153   1154     1  0.0000000  0.6508444  3
   1135   1147   1153   1155     1  0.0000000  0.6508444  3
   1136   1135   1131   1138     1  0.0000000  1.2552000  3
   1136   1135   1147   1153     1  0.0000000  0.6508444  3
   1136   1135   1147   1148     1  0.0000000  0.6508444  3
   1136   1135   1147   1149     1  0.0000000  0.6508444  3
   1137   1135   1131   1138     1  0.0000000  1.2552000  3
   1137   1135   1147   1153     1  0.0000000  0.6508444  3
   1137   1135   1147   1148     1  0.0000000  0.6508444  3
   1137   1135   1147   1149     1  0.0000000  0.6508444  3
   1138   1141   1150   1151     1  0.0000000  0.6508444  3
   1138   1141   1150   1152     1  0.0000000  0.6508444  3
   1139   1138   1141   1150     1  0.0000000  0.6508444  3
   1139   1138   1141   1142     1  0.0000000  0.6508444  3
   1139   1138   1141   1143     1  0.0000000  0.6508444  3
   1140   1138   1141   1150     1  0.0000000  0.6508444  3
   1140   1138   1141   1142     1  0.0000000  0.6508444  3
   1140   1138   1141   1143     1  0.0000000  0.6508444  3
   1142   1141   1150   1159     1  0.0000000  1.0460000  1
   1142   1141   1150   1159     1  0.0000000  0.0000000  3
   1142   1141   1150   1151     1  0.0000000  0.6508444  3
   1142   1141   1150   1152     1  0.0000000  0.6508444  3
   1143   1141   1150   1159     1  0.0000000  1.0460000  1
   1143   1141   1150   1159     1  0.0000000  0.0000000  3
   1143   1141   1150   1151     1  0.0000000  0.6508444  3
   1143   1141   1150   1152     1  0.0000000  0.6508444  3
   1145   1144   1156   2449     1  0.0000000  1.0460000  1
   1145   1144   1156   2449     1  0.0000000  0.0000000  3
   1145   1144   1156   1157     1  0.0000000  0.6508444  3
   1145   1144   1156   1158     1  0.0000000  0.6508444  3
   1146   1144   1156   2449     1  0.0000000  1.0460000  1
   1146   1144   1156   2449     1  0.0000000  0.0000000  3
   1146   1144   1156   1157     1  0.0000000  0.6508444  3
   1146   1144   1156   1158     1  0.0000000  0.6508444  3
   1148   1147   1153   2418     1  0.0000000  1.0460000  1
   1148   1147   1153   2418     1  0.0000000  0.0000000  3
   1148   1147   1153   1154     1  0.0000000  0.6508444  3
   1148   1147   1153   1155     1  0.0000000  0.6508444  3
   1149   1147   1153   2418     1  0.0000000  1.0460000  1
   1149   1147   1153   2418     1  0.0000000  0.0000000  3
   1149   1147   1153   1154     1  0.0000000  0.6508444  3
   1149   1147   1153   1155     1  0.0000000  0.6508444  3
   1153   2418   2388   2389     1  0.0000000  1.6038667  3
   1153   2418   2388   2390     1  0.0000000  1.6038667  3
   1154   1153   2418   2388     1  0.0000000  1.6038667  3
   1155   1153   2418   2388     1  0.0000000  1.6038667  3
   1156   2449   2419   2420     1  0.0000000  1.6038667  3
   1156   2449   2419   2421     1  0.0000000  1.6038667  3
   1157   1156   2449   2419     1  0.0000000  1.6038667  3
   1158   1156   2449   2419     1  0.0000000  1.6038667  3
   1160   1161   1173   1174     1  0.0000000  0.6508444  3
   1160   1161   1173   1175     1  0.0000000  0.6508444  3
   1160   1164   1176   1177     1  0.0000000  0.6508444  3
   1160   1164   1176   1178     1  0.0000000  0.6508444  3
   1160   1167   1170   1171     1  0.0000000  0.6508444  3
   1160   1167   1170   1172     1  0.0000000  0.6508444  3
   1161   1160   1164   1165     1  0.0000000  1.2552000  3
   1161   1160   1164   1166     1  0.0000000  1.2552000  3
   1161   1160   1167   1168     1  0.0000000  1.2552000  3
   1161   1160   1167   1169     1  0.0000000  1.2552000  3
   1161   1173   1185   1186     1  0.0000000  0.6508444  3
   1161   1173   1185   1187     1  0.0000000  0.6508444  3
   1162   1161   1160   1164     1  0.0000000  1.2552000  3
   1162   1161   1160   1167     1  0.0000000  1.2552000  3
   1162   1161   1173   1185     1  0.0000000  0.6508444  3
   1162   1161   1173   1174     1  0.0000000  0.6508444  3
   1162   1161   1173   1175     1  0.0000000  0.6508444  3
   1163   1161   1160   1164     1  0.0000000  1.2552000  3
   1163   1161   1160   1167     1  0.0000000  1.2552000  3
   1163   1161   1173   1185     1  0.0000000  0.6508444  3
   1163   1161   1173   1174     1  0.0000000  0.6508444  3
   1163   1161   1173   1175     1  0.0000000  0.6508444  3
   1164   1160   1167   1168     1  0.0000000  1.2552000  3
   1164   1160   1167   1169     1  0.0000000  1.2552000  3
   1164   1176   1182   1183     1  0.0000000  0.6508444  3
   1164   1176   1182   1184     1  0.0000000  0.6508444  3
   1165   1164   1160   1167     1  0.0000000  1.2552000  3
   1165   1164   1176   1182     1  0.0000000  0.6508444  3
   1165   1164   1176   1177     1  0.0000000  0.6508444  3
   1165   1164   1176   1178     1  0.0000000  0.6508444  3
   1166   1164   1160   1167     1  0.0000000  1.2552000  3
   1166   1164   1176   1182     1  0.0000000  0.6508444  3
   1166   1164   1176   1177     1  0.0000000  0.6508444  3
   1166   1164   1176   1178     1  0.0000000  0.6508444  3
   1167   1170   1179   1180     1  0.0000000  0.6508444  3
   1167   1170   1179   1181     1  0.0000000  0.6508444  3
   1168   1167   1170   1179     1  0.0000000  0.6508444  3
   1168   1167   1170   1171     1  0.0000000  0.6508444  3
   1168   1167   1170   1172     1  0.0000000  0.6508444  3
   1169   1167   1170   1179     1  0.0000000  0.6508444  3
   1169   1167   1170   1171     1  0.0000000  0.6508444  3
   1169   1167   1170   1172     1  0.0000000  0.6508444  3
   1171   1170   1179   1188     1  0.0000000  1.0460000  1
   1171   1170   1179   1188     1  0.0000000  0.0000000  3
   1171   1170   1179   1180     1  0.0000000  0.6508444  3
   1171   1170   1179   1181     1  0.0000000  0.6508444  3
   1172   1170   1179   1188     1  0.0000000  1.0460000  1
   1172   1170   1179   1188     1  0.0000000  0.0000000  3
   1172   1170   1179   1180     1  0.0000000  0.6508444  3
   1172   1170   1179   1181     1  0.0000000  0.6508444  3
   1174   1173   1185   2511     1  0.0000000  1.0460000  1
   1174   1173   1185   2511     1  0.0000000  0.0000000  3
   1174   1173   1185   1186     1  0.0000000  0.6508444  3
   1174   1173   1185   1187     1  0.0000000  0.6508444  3
   1175   1173   1185   2511     1  0.0000000  1.0460000  1
   1175   1173   1185   2511     1  0.0000000  0.0000000  3
   1175   1173   1185   1186     1  0.0000000  0.6508444  3
   1175   1173   1185   1187     1  0.0000000  0.6508444  3
   1177   1176   1182   2480     1  0.0000000  1.0460000  1
   1177   1176   1182   2480     1  0.0000000  0.0000000  3
   1177   1176   1182   1183     1  0.0000000  0.6508444  3
   1177   1176   1182   1184     1  0.0000000  0.6508444  3
   1178   1176   1182   2480     1  0.0000000  1.0460000  1
   1178   1176   1182   2480     1  0.0000000  0.0000000  3
   1178   1176   1182   1183     1  0.0000000  0.6508444  3
   1178   1176   1182   1184     1  0.0000000  0.6508444  3
   1182   2480   2450   2451     1  0.0000000  1.6038667  3
   1182   2480   2450   2452     1  0.0000000  1.6038667  3
   1183   1182   2480   2450     1  0.0000000  1.6038667  3
   1184   1182   2480   2450     1  0.0000000  1.6038667  3
   1185   2511   2481   2482     1  0.0000000  1.6038667  3
   1185   2511   2481   2483     1  0.0000000  1.6038667  3
   1186   1185   2511   2481     1  0.0000000  1.6038667  3
   1187   1185   2511   2481     1  0.0000000  1.6038667  3
   1189   1190   1202   1203     1  0.0000000  0.6508444  3
   1189   1190   1202   1204     1  0.0000000  0.6508444  3
   1189   1193   1205   1206     1  0.0000000  0.6508444  3
   1189   1193   1205   1207     1  0.0000000  0.6508444  3
   1189   1196   1199   1200     1  0.0000000  0.6508444  3
   1189   1196   1199   1201     1  0.0000000  0.6508444  3
   1190   1189   1193   1194     1  0.0000000  1.2552000  3
   1190   1189   1193   1195     1  0.0000000  1.2552000  3
   1190   1189   1196   1197     1  0.0000000  1.2552000  3
   1190   1189   1196   1198     1  0.0000000  1.2552000  3
   1190   1202   1214   1215     1  0.0000000  0.6508444  3
   1190   1202   1214   1216     1  0.0000000  0.6508444  3
   1191   1190   1189   1193     1  0.0000000  1.2552000  3
   1191   1190   1189   1196     1  0.0000000  1.2552000  3
   1191   1190   1202   1214     1  0.0000000  0.6508444  3
   1191   1190   1202   1203     1  0.0000000  0.6508444  3
   1191   1190   1202   1204     1  0.0000000  0.6508444  3
   1192   1190   1189   1193     1  0.0000000  1.2552000  3
   1192   1190   1189   1196     1  0.0000000  1.2552000  3
   1192   1190   1202   1214     1  0.0000000  0.6508444  3
   1192   1190   1202   1203     1  0.0000000  0.6508444  3
   1192   1190   1202   1204     1  0.0000000  0.6508444  3
   1193   1189   1196   1197     1  0.0000000  1.2552000  3
   1193   1189   1196   1198     1  0.0000000  1.2552000  3
   1193   1205   1211   1212     1  0.0000000  0.6508444  3
   1193   1205   1211   1213     1  0.0000000  0.6508444  3
   1194   1193   1189   1196     1  0.0000000  1.2552000  3
   1194   1193   1205   1211     1  0.0000000  0.6508444  3
   1194   1193   1205   1206     1  0.0000000  0.6508444  3
   1194   1193   1205   1207     1  0.0000000  0.6508444  3
   1195   1193   1189   1196     1  0.0000000  1.2552000  3
   1195   1193   1205   1211     1  0.0000000  0.6508444  3
   1195   1193   1205   1206     1  0.0000000  0.6508444  3
   1195   1193   1205   1207     1  0.0000000  0.6508444  3
   1196   1199   1208   1209     1  0.0000000  0.6508444  3
   1196   1199   1208   1210     1  0.0000000  0.6508444  3
   1197   1196   1199   1208     1  0.0000000  0.6508444  3
   1197   1196   1199   1200     1  0.0000000  0.6508444  3
   1197   1196   1199   1201     1  0.0000000  0.6508444  3
   1198   1196   1199   1208     1  0.0000000  0.6508444  3
   1198   1196   1199   1200     1  0.0000000  0.6508444  3
   1198   1196   1199   1201     1  0.0000000  0.6508444  3
   1200   1199   1208   1217     1  0.0000000  1.0460000  1
   1200   1199   1208   1217     1  0.0000000  0.0000000  3
   1200   1199   1208   1209     1  0.0000000  0.6508444  3
   1200   1199   1208   1210     1  0.0000000  0.6508444  3
   1201   1199   1208   1217     1  0.0000000  1.0460000  1
   1201   1199   1208   1217     1  0.0000000  0.0000000  3
   1201   1199   1208   1209     1  0.0000000  0.6508444  3
   1201   1199   1208   1210     1  0.0000000  0.6508444  3
   1203   1202   1214   2573     1  0.0000000  1.0460000  1
   1203   1202   1214   2573     1  0.0000000  0.0000000  3
   1203   1202   1214   1215     1  0.0000000  0.6508444  3
   1203   1202   1214   1216     1  0.0000000  0.6508444  3
   1204   1202   1214   2573     1  0.0000000  1.0460000  1
   1204   1202   1214   2573     1  0.0000000  0.0000000  3
   1204   1202   1214   1215     1  0.0000000  0.6508444  3
   1204   1202   1214   1216     1  0.0000000  0.6508444  3
   1206   1205   1211   2542     1  0.0000000  1.0460000  1
   1206   1205   1211   2542     1  0.0000000  0.0000000  3
   1206   1205   1211   1212     1  0.0000000  0.6508444  3
   1206   1205   1211   1213     1  0.0000000  0.6508444  3
   1207   1205   1211   2542     1  0.0000000  1.0460000  1
   1207   1205   1211   2542     1  0.0000000  0.0000000  3
   1207   1205   1211   1212     1  0.0000000  0.6508444  3
   1207   1205   1211   1213     1  0.0000000  0.6508444  3
   1211   2542   2512   2513     1  0.0000000  1.6038667  3
   1211   2542   2512   2514     1  0.0000000  1.6038667  3
   1212   1211   2542   2512     1  0.0000000  1.6038667  3
   1213   1211   2542   2512     1  0.0000000  1.6038667  3
   1214   2573   2543   2544     1  0.0000000  1.6038667  3
   1214   2573   2543   2545     1  0.0000000  1.6038667  3
   1215   1214   2573   2543     1  0.0000000  1.6038667  3
   1216   1214   2573   2543     1  0.0000000  1.6038667  3
   1218   1219   1231   1232     1  0.0000000  0.6508444  3
   1218   1219   1231   1233     1  0.0000000  0.6508444  3
   1218   1222   1234   1235     1  0.0000000  0.6508444  3
   1218   1222   1234   1236     1  0.0000000  0.6508444  3
   1218   1225   1228   1229     1  0.0000000  0.6508444  3
   1218   1225   1228   1230     1  0.0000000  0.6508444  3
   1219   1218   1222   1223     1  0.0000000  1.2552000  3
   1219   1218   1222   1224     1  0.0000000  1.2552000  3
   1219   1218   1225   1226     1  0.0000000  1.2552000  3
   1219   1218   1225   1227     1  0.0000000  1.2552000  3
   1219   1231   1243   1244     1  0.0000000  0.6508444  3
   1219   1231   1243   1245     1  0.0000000  0.6508444  3
   1220   1219   1218   1222     1  0.0000000  1.2552000  3
   1220   1219   1218   1225     1  0.0000000  1.2552000  3
   1220   1219   1231   1243     1  0.0000000  0.6508444  3
   1220   1219   1231   1232     1  0.0000000  0.6508444  3
   1220   1219   1231   1233     1  0.0000000  0.6508444  3
   1221   1219   1218   1222     1  0.0000000  1.2552000  3
   1221   1219   1218   1225     1  0.0000000  1.2552000  3
   1221   1219   1231   1243     1  0.0000000  0.6508444  3
   1221   1219   1231   1232     1  0.0000000  0.6508444  3
   1221   1219   1231   1233     1  0.0000000  0.6508444  3
   1222   1218   1225   1226     1  0.0000000  1.2552000  3
   1222   1218   1225   1227     1  0.0000000  1.2552000  3
   1222   1234   1240   1241     1  0.0000000  0.6508444  3
   1222   1234   1240   1242     1  0.0000000  0.6508444  3
   1223   1222   1218   1225     1  0.0000000  1.2552000  3
   1223   1222   1234   1240     1  0.0000000  0.6508444  3
   1223   1222   1234   1235     1  0.0000000  0.6508444  3
   1223   1222   1234   1236     1  0.0000000  0.6508444  3
   1224   1222   1218   1225     1  0.0000000  1.2552000  3
   1224   1222   1234   1240     1  0.0000000  0.6508444  3
   1224   1222   1234   1235     1  0.0000000  0.6508444  3
   1224   1222   1234   1236     1  0.0000000  0.6508444  3
   1225   1228   1237   1238     1  0.0000000  0.6508444  3
   1225   1228   1237   1239     1  0.0000000  0.6508444  3
   1226   1225   1228   1237     1  0.0000000  0.6508444  3
   1226   1225   1228   1229     1  0.0000000  0.6508444  3
   1226   1225   1228   1230     1  0.0000000  0.6508444  3
   1227   1225   1228   1237     1  0.0000000  0.6508444  3
   1227   1225   1228   1229     1  0.0000000  0.6508444  3
   1227   1225   1228   1230     1  0.0000000  0.6508444  3
   1229   1228   1237   1246     1  0.0000000  1.0460000  1
   1229   1228   1237   1246     1  0.0000000  0.0000000  3
   1229   1228   1237   1238     1  0.0000000  0.6508444  3
   1229   1228   1237   1239     1  0.0000000  0.6508444  3
   1230   1228   1237   1246     1  0.0000000  1.0460000  1
   1230   1228   1237   1246     1  0.0000000  0.0000000  3
   1230   1228   1237   1238     1  0.0000000  0.6508444  3
   1230   1228   1237   1239     1  0.0000000  0.6508444  3
   1232   1231   1243   2635     1  0.0000000  1.0460000  1
   1232   1231   1243   2635     1  0.0000000  0.0000000  3
   1232   1231   1243   1244     1  0.0000000  0.6508444  3
   1232   1231   1243   1245     1  0.0000000  0.6508444  3
   1233   1231   1243   2635     1  0.0000000  1.0460000  1
   1233   1231   1243   2635     1  0.0000000  0.0000000  3
   1233   1231   1243   1244     1  0.0000000  0.6508444  3
   1233   1231   1243   1245     1  0.0000000  0.6508444  3
   1235   1234   1240   2604     1  0.0000000  1.0460000  1
   1235   1234   1240   2604     1  0.0000000  0.0000000  3
   1235   1234   1240   1241     1  0.0000000  0.6508444  3
   1235   1234   1240   1242     1  0.0000000  0.6508444  3
   1236   1234   1240   2604     1  0.0000000  1.0460000  1
   1236   1234   1240   2604     1  0.0000000  0.0000000  3
   1236   1234   1240   1241     1  0.0000000  0.6508444  3
   1236   1234   1240   1242     1  0.0000000  0.6508444  3
   1240   2604   2574   2575     1  0.0000000  1.6038667  3
   1240   2604   2574   2576     1  0.0000000  1.6038667  3
   1241   1240   2604   2574     1  0.0000000  1.6038667  3
   1242   1240   2604   2574     1  0.0000000  1.6038667  3
   1243   2635   2605   2606     1  0.0000000  1.6038667  3
   1243   2635   2605   2607     1  0.0000000  1.6038667  3
   1244   1243   2635   2605     1  0.0000000  1.6038667  3
   1245   1243   2635   2605     1  0.0000000  1.6038667  3
   1247   1248   1260   1261     1  0.0000000  0.6508444  3
   1247   1248   1260   1262     1  0.0000000  0.6508444  3
   1247   1251   1263   1264     1  0.0000000  0.6508444  3
   1247   1251   1263   1265     1  0.0000000  0.6508444  3
   1247   1254   1257   1258     1  0.0000000  0.6508444  3
   1247   1254   1257   1259     1  0.0000000  0.6508444  3
   1248   1247   1251   1252     1  0.0000000  1.2552000  3
   1248   1247   1251   1253     1  0.0000000  1.2552000  3
   1248   1247   1254   1255     1  0.0000000  1.2552000  3
   1248   1247   1254   1256     1  0.0000000  1.2552000  3
   1248   1260   1272   1273     1  0.0000000  0.6508444  3
   1248   1260   1272   1274     1  0.0000000  0.6508444  3
   1249   1248   1247   1251     1  0.0000000  1.2552000  3
   1249   1248   1247   1254     1  0.0000000  1.2552000  3
   1249   1248   1260   1272     1  0.0000000  0.6508444  3
   1249   1248   1260   1261     1  0.0000000  0.6508444  3
   1249   1248   1260   1262     1  0.0000000  0.6508444  3
   1250   1248   1247   1251     1  0.0000000  1.2552000  3
   1250   1248   1247   1254     1  0.0000000  1.2552000  3
   1250   1248   1260   1272     1  0.0000000  0.6508444  3
   1250   1248   1260   1261     1  0.0000000  0.6508444  3
   1250   1248   1260   1262     1  0.0000000  0.6508444  3
   1251   1247   1254   1255     1  0.0000000  1.2552000  3
   1251   1247   1254   1256     1  0.0000000  1.2552000  3
   1251   1263   1269   1270     1  0.0000000  0.6508444  3
   1251   1263   1269   1271     1  0.0000000  0.6508444  3
   1252   1251   1247   1254     1  0.0000000  1.2552000  3
   1252   1251   1263   1269     1  0.0000000  0.6508444  3
   1252   1251   1263   1264     1  0.0000000  0.6508444  3
   1252   1251   1263   1265     1  0.0000000  0.6508444  3
   1253   1251   1247   1254     1  0.0000000  1.2552000  3
   1253   1251   1263   1269     1  0.0000000  0.6508444  3
   1253   1251   1263   1264     1  0.0000000  0.6508444  3
   1253   1251   1263   1265     1  0.0000000  0.6508444  3
   1254   1257   1266   1267     1  0.0000000  0.6508444  3
   1254   1257   1266   1268     1  0.0000000  0.6508444  3
   1255   1254   1257   1266     1  0.0000000  0.6508444  3
   1255   1254   1257   1258     1  0.0000000  0.6508444  3
   1255   1254   1257   1259     1  0.0000000  0.6508444  3
   1256   1254   1257   1266     1  0.0000000  0.6508444  3
   1256   1254   1257   1258     1  0.0000000  0.6508444  3
   1256   1254   1257   1259     1  0.0000000  0.6508444  3
   1258   1257   1266   1275     1  0.0000000  1.0460000  1
   1258   1257   1266   1275     1  0.0000000  0.0000000  3
   1258   1257   1266   1267     1  0.0000000  0.6508444  3
   1258   1257   1266   1268     1  0.0000000  0.6508444  3
   1259   1257   1266   1275     1  0.0000000  1.0460000  1
   1259   1257   1266   1275     1  0.0000000  0.0000000  3
   1259   1257   1266   1267     1  0.0000000  0.6508444  3
   1259   1257   1266   1268     1  0.0000000  0.6508444  3
   1261   1260   1272   2697     1  0.0000000  1.0460000  1
   1261   1260   1272   2697     1  0.0000000  0.0000000  3
   1261   1260   1272   1273     1  0.0000000  0.6508444  3
   1261   1260   1272   1274     1  0.0000000  0.6508444  3
   1262   1260   1272   2697     1  0.0000000  1.0460000  1
   1262   1260   1272   2697     1  0.0000000  0.0000000  3
   1262   1260   1272   1273     1  0.0000000  0.6508444  3
   1262   1260   1272   1274     1  0.0000000  0.6508444  3
   1264   1263   1269   2666     1  0.0000000  1.0460000  1
   1264   1263   1269   2666     1  0.0000000  0.0000000  3
   1264   1263   1269   1270     1  0.0000000  0.6508444  3
   1264   1263   1269   1271     1  0.0000000  0.6508444  3
   1265   1263   1269   2666     1  0.0000000  1.0460000  1
   1265   1263   1269   2666     1  0.0000000  0.0000000  3
   1265   1263   1269   1270     1  0.0000000  0.6508444  3
   1265   1263   1269   1271     1  0.0000000  0.6508444  3
   1269   2666   2636   2637     1  0.0000000  1.6038667  3
   1269   2666   2636   2638     1  0.0000000  1.6038667  3
   1270   1269   2666   2636     1  0.0000000  1.6038667  3
   1271   1269   2666   2636     1  0.0000000  1.6038667  3
   1272   2697   2667   2668     1  0.0000000  1.6038667  3
   1272   2697   2667   2669     1  0.0000000  1.6038667  3
   1273   1272   2697   2667     1  0.0000000  1.6038667  3
   1274   1272   2697   2667     1  0.0000000  1.6038667  3
   1276   1277   1289   1290     1  0.0000000  0.6508444  3
   1276   1277   1289   1291     1  0.0000000  0.6508444  3
   1276   1280   1292   1293     1  0.0000000  0.6508444  3
   1276   1280   1292   1294     1  0.0000000  0.6508444  3
   1276   1283   1286   1287     1  0.0000000  0.6508444  3
   1276   1283   1286   1288     1  0.0000000  0.6508444  3
   1277   1276   1280   1281     1  0.0000000  1.2552000  3
   1277   1276   1280   1282     1  0.0000000  1.2552000  3
   1277   1276   1283   1284     1  0.0000000  1.2552000  3
   1277   1276   1283   1285     1  0.0000000  1.2552000  3
   1277   1289   1301   1302     1  0.0000000  0.6508444  3
   1277   1289   1301   1303     1  0.0000000  0.6508444  3
   1278   1277   1276   1280     1  0.0000000  1.2552000  3
   1278   1277   1276   1283     1  0.0000000  1.2552000  3
   1278   1277   1289   1301     1  0.0000000  0.6508444  3
   1278   1277   1289   1290     1  0.0000000  0.6508444  3
   1278   1277   1289   1291     1  0.0000000  0.6508444  3
   1279   1277   1276   1280     1  0.0000000  1.2552000  3
   1279   1277   1276   1283     1  0.0000000  1.2552000  3
   1279   1277   1289   1301     1  0.0000000  0.6508444  3
   1279   1277   1289   1290     1  0.0000000  0.6508444  3
   1279   1277   1289   1291     1  0.0000000  0.6508444  3
   1280   1276   1283   1284     1  0.0000000  1.2552000  3
   1280   1276   1283   1285     1  0.0000000  1.2552000  3
   1280   1292   1298   1299     1  0.0000000  0.6508444  3
   1280   1292   1298   1300     1  0.0000000  0.6508444  3
   1281   1280   1276   1283     1  0.0000000  1.2552000  3
   1281   1280   1292   1298     1  0.0000000  0.6508444  3
   1281   1280   1292   1293     1  0.0000000  0.6508444  3
   1281   1280   1292   1294     1  0.0000000  0.6508444  3
   1282   1280   1276   1283     1  0.0000000  1.2552000  3
   1282   1280   1292   1298     1  0.0000000  0.6508444  3
   1282   1280   1292   1293     1  0.0000000  0.6508444  3
   1282   1280   1292   1294     1  0.0000000  0.6508444  3
   1283   1286   1295   1296     1  0.0000000  0.6508444  3
   1283   1286   1295   1297     1  0.0000000  0.6508444  3
   1284   1283   1286   1295     1  0.0000000  0.6508444  3
   1284   1283   1286   1287     1  0.0000000  0.6508444  3
   1284   1283   1286   1288     1  0.0000000  0.6508444  3
   1285   1283   1286   1295     1  0.0000000  0.6508444  3
   1285   1283   1286   1287     1  0.0000000  0.6508444  3
   1285   1283   1286   1288     1  0.0000000  0.6508444  3
   1287   1286   1295   1304     1  0.0000000  1.0460000  1
   1287   1286   1295   1304     1  0.0000000  0.0000000  3
   1287   1286   1295   1296     1  0.0000000  0.6508444  3
   1287   1286   1295   1297     1  0.0000000  0.6508444  3
   1288   1286   1295   1304     1  0.0000000  1.0460000  1
   1288   1286   1295   1304     1  0.0000000  0.0000000  3
   1288   1286   1295   1296     1  0.0000000  0.6508444  3
   1288   1286   1295   1297     1  0.0000000  0.6508444  3
   1290   1289   1301   2759     1  0.0000000  1.0460000  1
   1290   1289   1301   2759     1  0.0000000  0.0000000  3
   1290   1289   1301   1302     1  0.0000000  0.6508444  3
   1290   1289   1301   1303     1  0.0000000  0.6508444  3
   1291   1289   1301   2759     1  0.0000000  1.0460000  1
   1291   1289   1301   2759     1  0.0000000  0.0000000  3
   1291   1289   1301   1302     1  0.0000000  0.6508444  3
   1291   1289   1301   1303     1  0.0000000  0.6508444  3
   1293   1292   1298   2728     1  0.0000000  1.0460000  1
   1293   1292   1298   2728     1  0.0000000  0.0000000  3
   1293   1292   1298   1299     1  0.0000000  0.6508444  3
   1293   1292   1298   1300     1  0.0000000  0.6508444  3
   1294   1292   1298   2728     1  0.0000000  1.0460000  1
   1294   1292   1298   2728     1  0.0000000  0.0000000  3
   1294   1292   1298   1299     1  0.0000000  0.6508444  3
   1294   1292   1298   1300     1  0.0000000  0.6508444  3
   1298   2728   2698   2699     1  0.0000000  1.6038667  3
   1298   2728   2698   2700     1  0.0000000  1.6038667  3
   1299   1298   2728   2698     1  0.0000000  1.6038667  3
   1300   1298   2728   2698     1  0.0000000  1.6038667  3
   1301   2759   2729   2730     1  0.0000000  1.6038667  3
   1301   2759   2729   2731     1  0.0000000  1.6038667  3
   1302   1301   2759   2729     1  0.0000000  1.6038667  3
   1303   1301   2759   2729     1  0.0000000  1.6038667  3
   1305   1306   1318   1319     1  0.0000000  0.6508444  3
   1305   1306   1318   1320     1  0.0000000  0.6508444  3
   1305   1309   1321   1322     1  0.0000000  0.6508444  3
   1305   1309   1321   1323     1  0.0000000  0.6508444  3
   1305   1312   1315   1316     1  0.0000000  0.6508444  3
   1305   1312   1315   1317     1  0.0000000  0.6508444  3
   1306   1305   1309   1310     1  0.0000000  1.2552000  3
   1306   1305   1309   1311     1  0.0000000  1.2552000  3
   1306   1305   1312   1313     1  0.0000000  1.2552000  3
   1306   1305   1312   1314     1  0.0000000  1.2552000  3
   1306   1318   1330   1331     1  0.0000000  0.6508444  3
   1306   1318   1330   1332     1  0.0000000  0.6508444  3
   1307   1306   1305   1309     1  0.0000000  1.2552000  3
   1307   1306   1305   1312     1  0.0000000  1.2552000  3
   1307   1306   1318   1330     1  0.0000000  0.6508444  3
   1307   1306   1318   1319     1  0.0000000  0.6508444  3
   1307   1306   1318   1320     1  0.0000000  0.6508444  3
   1308   1306   1305   1309     1  0.0000000  1.2552000  3
   1308   1306   1305   1312     1  0.0000000  1.2552000  3
   1308   1306   1318   1330     1  0.0000000  0.6508444  3
   1308   1306   1318   1319     1  0.0000000  0.6508444  3
   1308   1306   1318   1320     1  0.0000000  0.6508444  3
   1309   1305   1312   1313     1  0.0000000  1.2552000  3
   1309   1305   1312   1314     1  0.0000000  1.2552000  3
   1309   1321   1327   1328     1  0.0000000  0.6508444  3
   1309   1321   1327   1329     1  0.0000000  0.6508444  3
   1310   1309   1305   1312     1  0.0000000  1.2552000  3
   1310   1309   1321   1327     1  0.0000000  0.6508444  3
   1310   1309   1321   1322     1  0.0000000  0.6508444  3
   1310   1309   1321   1323     1  0.0000000  0.6508444  3
   1311   1309   1305   1312     1  0.0000000  1.2552000  3
   1311   1309   1321   1327     1  0.0000000  0.6508444  3
   1311   1309   1321   1322     1  0.0000000  0.6508444  3
   1311   1309   1321   1323     1  0.0000000  0.6508444  3
   1312   1315   1324   1325     1  0.0000000  0.6508444  3
   1312   1315   1324   1326     1  0.0000000  0.6508444  3
   1313   1312   1315   1324     1  0.0000000  0.6508444  3
   1313   1312   1315   1316     1  0.0000000  0.6508444  3
   1313   1312   1315   1317     1  0.0000000  0.6508444  3
   1314   1312   1315   1324     1  0.0000000  0.6508444  3
   1314   1312   1315   1316     1  0.0000000  0.6508444  3
   1314   1312   1315   1317     1  0.0000000  0.6508444  3
   1316   1315   1324   1333     1  0.0000000  1.0460000  1
   1316   1315   1324   1333     1  0.0000000  0.0000000  3
   1316   1315   1324   1325     1  0.0000000  0.6508444  3
   1316   1315   1324   1326     1  0.0000000  0.6508444  3
   1317   1315   1324   1333     1  0.0000000  1.0460000  1
   1317   1315   1324   1333     1  0.0000000  0.0000000  3
   1317   1315   1324   1325     1  0.0000000  0.6508444  3
   1317   1315   1324   1326     1  0.0000000  0.6508444  3
   1319   1318   1330   2821     1  0.0000000  1.0460000  1
   1319   1318   1330   2821     1  0.0000000  0.0000000  3
   1319   1318   1330   1331     1  0.0000000  0.6508444  3
   1319   1318   1330   1332     1  0.0000000  0.6508444  3
   1320   1318   1330   2821     1  0.0000000  1.0460000  1
   1320   1318   1330   2821     1  0.0000000  0.0000000  3
   1320   1318   1330   1331     1  0.0000000  0.6508444  3
   1320   1318   1330   1332     1  0.0000000  0.6508444  3
   1322   1321   1327   2790     1  0.0000000  1.0460000  1
   1322   1321   1327   2790     1  0.0000000  0.0000000  3
   1322   1321   1327   1328     1  0.0000000  0.6508444  3
   1322   1321   1327   1329     1  0.0000000  0.6508444  3
   1323   1321   1327   2790     1  0.0000000  1.0460000  1
   1323   1321   1327   2790     1  0.0000000  0.0000000  3
   1323   1321   1327   1328     1  0.0000000  0.6508444  3
   1323   1321   1327   1329     1  0.0000000  0.6508444  3
   1327   2790   2760   2761     1  0.0000000  1.6038667  3
   1327   2790   2760   2762     1  0.0000000  1.6038667  3
   1328   1327   2790   2760     1  0.0000000  1.6038667  3
   1329   1327   2790   2760     1  0.0000000  1.6038667  3
   1330   2821   2791   2792     1  0.0000000  1.6038667  3
   1330   2821   2791   2793     1  0.0000000  1.6038667  3
   1331   1330   2821   2791     1  0.0000000  1.6038667  3
   1332   1330   2821   2791     1  0.0000000  1.6038667  3
   1334   1337   1340   1341     1  0.0000000  0.6508444  3
   1334   1337   1340   1342     1  0.0000000  0.6508444  3
   1335   1334   1337   1340     1  0.0000000  0.6508444  3
   1335   1334   1337   1338     1  0.0000000  0.6508444  3
   1335   1334   1337   1339     1  0.0000000  0.6508444  3
   1336   1334   1337   1340     1  0.0000000  0.6508444  3
   1336   1334   1337   1338     1  0.0000000  0.6508444  3
   1336   1334   1337   1339     1  0.0000000  0.6508444  3
   1338   1337   1334   1364     1  0.0000000  1.0460000  1
   1338   1337   1334   1364     1  0.0000000  0.0000000  3
   1338   1337   1340   1343     1  0.0000000  0.6508444  3
   1338   1337   1340   1341     1  0.0000000  0.6508444  3
   1338   1337   1340   1342     1  0.0000000  0.6508444  3
   1339   1337   1334   1364     1  0.0000000  1.0460000  1
   1339   1337   1334   1364     1  0.0000000  0.0000000  3
   1339   1337   1340   1343     1  0.0000000  0.6508444  3
   1339   1337   1340   1341     1  0.0000000  0.6508444  3
   1339   1337   1340   1342     1  0.0000000  0.6508444  3
   1340   1343   1344   1345     1  0.0000000  1.2552000  3
   1340   1343   1344   1346     1  0.0000000  1.2552000  3
   1340   1343   1354   1355     1  0.0000000  1.2552000  3
   1340   1343   1354   1356     1  0.0000000  1.2552000  3
   1341   1340   1343   1344     1  0.0000000  1.2552000  3
   1341   1340   1343   1354     1  0.0000000  1.2552000  3
   1342   1340   1343   1344     1  0.0000000  1.2552000  3
   1342   1340   1343   1354     1  0.0000000  1.2552000  3
   1343   1344   1347   1348     1  0.0000000  0.6508444  3
   1343   1344   1347   1349     1  0.0000000  0.6508444  3
   1343   1354   1357   1358     1  0.0000000  0.6508444  3
   1343   1354   1357   1359     1  0.0000000  0.6508444  3
   1344   1343   1354   1355     1  0.0000000  1.2552000  3
   1344   1343   1354   1356     1  0.0000000  1.2552000  3
   1345   1344   1343   1354     1  0.0000000  1.2552000  3
   1345   1344   1347   1350     1  0.0000000  0.6508444  3
   1345   1344   1347   1348     1  0.0000000  0.6508444  3
   1345   1344   1347   1349     1  0.0000000  0.6508444  3
   1346   1344   1343   1354     1  0.0000000  1.2552000  3
   1346   1344   1347   1350     1  0.0000000  0.6508444  3
   1346   1344   1347   1348     1  0.0000000  0.6508444  3
   1346   1344   1347   1349     1  0.0000000  0.6508444  3
   1347   1350   1352   1353     1  180.0000771  9.6232000  2
   1348   1347   1350   1351     1  0.0000000  3.3472000  1
   1348   1347   1350   1351     1  0.0000000  0.0000000  2
   1348   1347   1350   1351     1  180.0000771  0.3347200  3
   1348   1347   1350   1352     1  180.0000771  0.0000000  2
   1349   1347   1350   1351     1  0.0000000  3.3472000  1
   1349   1347   1350   1351     1  0.0000000  0.0000000  2
   1349   1347   1350   1351     1  180.0000771  0.3347200  3
   1349   1347   1350   1352     1  180.0000771  0.0000000  2
   1351   1350   1352   1353     1  0.0000000  7.9496000  1
   1351   1350   1352   1353     1  180.0000771  9.6232000  2
   1355   1354   1357   1360     1  0.0000000  0.6508444  3
   1355   1354   1357   1358     1  0.0000000  0.6508444  3
   1355   1354   1357   1359     1  0.0000000  0.6508444  3
   1356   1354   1357   1360     1  0.0000000  0.6508444  3
   1356   1354   1357   1358     1  0.0000000  0.6508444  3
   1356   1354   1357   1359     1  0.0000000  0.6508444  3
   1357   1360   1362   1363     1  180.0000771  9.6232000  2
   1358   1357   1360   1361     1  0.0000000  3.3472000  1
   1358   1357   1360   1361     1  0.0000000  0.0000000  2
   1358   1357   1360   1361     1  180.0000771  0.3347200  3
   1358   1357   1360   1362     1  180.0000771  0.0000000  2
   1359   1357   1360   1361     1  0.0000000  3.3472000  1
   1359   1357   1360   1361     1  0.0000000  0.0000000  2
   1359   1357   1360   1361     1  180.0000771  0.3347200  3
   1359   1357   1360   1362     1  180.0000771  0.0000000  2
   1361   1360   1362   1363     1  0.0000000  7.9496000  1
   1361   1360   1362   1363     1  180.0000771  9.6232000  2
   1365   1368   1371   1372     1  0.0000000  0.6508444  3
   1365   1368   1371   1373     1  0.0000000  0.6508444  3
   1366   1365   1368   1371     1  0.0000000  0.6508444  3
   1366   1365   1368   1369     1  0.0000000  0.6508444  3
   1366   1365   1368   1370     1  0.0000000  0.6508444  3
   1367   1365   1368   1371     1  0.0000000  0.6508444  3
   1367   1365   1368   1369     1  0.0000000  0.6508444  3
   1367   1365   1368   1370     1  0.0000000  0.6508444  3
   1369   1368   1371   1374     1  0.0000000  0.6508444  3
   1369   1368   1371   1372     1  0.0000000  0.6508444  3
   1369   1368   1371   1373     1  0.0000000  0.6508444  3
   1369   1368   1365   1395     1  0.0000000  1.0460000  1
   1369   1368   1365   1395     1  0.0000000  0.0000000  3
   1370   1368   1371   1374     1  0.0000000  0.6508444  3
   1370   1368   1371   1372     1  0.0000000  0.6508444  3
   1370   1368   1371   1373     1  0.0000000  0.6508444  3
   1370   1368   1365   1395     1  0.0000000  1.0460000  1
   1370   1368   1365   1395     1  0.0000000  0.0000000  3
   1371   1374   1375   1376     1  0.0000000  1.2552000  3
   1371   1374   1375   1377     1  0.0000000  1.2552000  3
   1371   1374   1385   1386     1  0.0000000  1.2552000  3
   1371   1374   1385   1387     1  0.0000000  1.2552000  3
   1372   1371   1374   1375     1  0.0000000  1.2552000  3
   1372   1371   1374   1385     1  0.0000000  1.2552000  3
   1373   1371   1374   1375     1  0.0000000  1.2552000  3
   1373   1371   1374   1385     1  0.0000000  1.2552000  3
   1374   1375   1378   1379     1  0.0000000  0.6508444  3
   1374   1375   1378   1380     1  0.0000000  0.6508444  3
   1374   1385   1388   1389     1  0.0000000  0.6508444  3
   1374   1385   1388   1390     1  0.0000000  0.6508444  3
   1375   1374   1385   1386     1  0.0000000  1.2552000  3
   1375   1374   1385   1387     1  0.0000000  1.2552000  3
   1376   1375   1378   1381     1  0.0000000  0.6508444  3
   1376   1375   1378   1379     1  0.0000000  0.6508444  3
   1376   1375   1378   1380     1  0.0000000  0.6508444  3
   1376   1375   1374   1385     1  0.0000000  1.2552000  3
   1377   1375   1378   1381     1  0.0000000  0.6508444  3
   1377   1375   1378   1379     1  0.0000000  0.6508444  3
   1377   1375   1378   1380     1  0.0000000  0.6508444  3
   1377   1375   1374   1385     1  0.0000000  1.2552000  3
   1378   1381   1383   1384     1  180.0000771  9.6232000  2
   1379   1378   1381   1382     1  0.0000000  3.3472000  1
   1379   1378   1381   1382     1  0.0000000  0.0000000  2
   1379   1378   1381   1382     1  180.0000771  0.3347200  3
   1379   1378   1381   1383     1  180.0000771  0.0000000  2
   1380   1378   1381   1382     1  0.0000000  3.3472000  1
   1380   1378   1381   1382     1  0.0000000  0.0000000  2
   1380   1378   1381   1382     1  180.0000771  0.3347200  3
   1380   1378   1381   1383     1  180.0000771  0.0000000  2
   1382   1381   1383   1384     1  0.0000000  7.9496000  1
   1382   1381   1383   1384     1  180.0000771  9.6232000  2
   1386   1385   1388   1391     1  0.0000000  0.6508444  3
   1386   1385   1388   1389     1  0.0000000  0.6508444  3
   1386   1385   1388   1390     1  0.0000000  0.6508444  3
   1387   1385   1388   1391     1  0.0000000  0.6508444  3
   1387   1385   1388   1389     1  0.0000000  0.6508444  3
   1387   1385   1388   1390     1  0.0000000  0.6508444  3
   1388   1391   1393   1394     1  180.0000771  9.6232000  2
   1389   1388   1391   1392     1  0.0000000  3.3472000  1
   1389   1388   1391   1392     1  0.0000000  0.0000000  2
   1389   1388   1391   1392     1  180.0000771  0.3347200  3
   1389   1388   1391   1393     1  180.0000771  0.0000000  2
   1390   1388   1391   1392     1  0.0000000  3.3472000  1
   1390   1388   1391   1392     1  0.0000000  0.0000000  2
   1390   1388   1391   1392     1  180.0000771  0.3347200  3
   1390   1388   1391   1393     1  180.0000771  0.0000000  2
   1392   1391   1393   1394     1  0.0000000  7.9496000  1
   1392   1391   1393   1394     1  180.0000771  9.6232000  2
   1396   1399   1402   1403     1  0.0000000  0.6508444  3
   1396   1399   1402   1404     1  0.0000000  0.6508444  3
   1397   1396   1399   1402     1  0.0000000  0.6508444  3
   1397   1396   1399   1400     1  0.0000000  0.6508444  3
   1397   1396   1399   1401     1  0.0000000  0.6508444  3
   1398   1396   1399   1402     1  0.0000000  0.6508444  3
   1398   1396   1399   1400     1  0.0000000  0.6508444  3
   1398   1396   1399   1401     1  0.0000000  0.6508444  3
   1400   1399   1396   1426     1  0.0000000  1.0460000  1
   1400   1399   1396   1426     1  0.0000000  0.0000000  3
   1400   1399   1402   1405     1  0.0000000  0.6508444  3
   1400   1399   1402   1403     1  0.0000000  0.6508444  3
   1400   1399   1402   1404     1  0.0000000  0.6508444  3
   1401   1399   1396   1426     1  0.0000000  1.0460000  1
   1401   1399   1396   1426     1  0.0000000  0.0000000  3
   1401   1399   1402   1405     1  0.0000000  0.6508444  3
   1401   1399   1402   1403     1  0.0000000  0.6508444  3
   1401   1399   1402   1404     1  0.0000000  0.6508444  3
   1402   1405   1406   1407     1  0.0000000  1.2552000  3
   1402   1405   1406   1408     1  0.0000000  1.2552000  3
   1402   1405   1416   1417     1  0.0000000  1.2552000  3
   1402   1405   1416   1418     1  0.0000000  1.2552000  3
   1403   1402   1405   1406     1  0.0000000  1.2552000  3
   1403   1402   1405   1416     1  0.0000000  1.2552000  3
   1404   1402   1405   1406     1  0.0000000  1.2552000  3
   1404   1402   1405   1416     1  0.0000000  1.2552000  3
   1405   1406   1409   1410     1  0.0000000  0.6508444  3
   1405   1406   1409   1411     1  0.0000000  0.6508444  3
   1405   1416   1419   1420     1  0.0000000  0.6508444  3
   1405   1416   1419   1421     1  0.0000000  0.6508444  3
   1406   1405   1416   1417     1  0.0000000  1.2552000  3
   1406   1405   1416   1418     1  0.0000000  1.2552000  3
   1407   1406   1405   1416     1  0.0000000  1.2552000  3
   1407   1406   1409   1412     1  0.0000000  0.6508444  3
   1407   1406   1409   1410     1  0.0000000  0.6508444  3
   1407   1406   1409   1411     1  0.0000000  0.6508444  3
   1408   1406   1405   1416     1  0.0000000  1.2552000  3
   1408   1406   1409   1412     1  0.0000000  0.6508444  3
   1408   1406   1409   1410     1  0.0000000  0.6508444  3
   1408   1406   1409   1411     1  0.0000000  0.6508444  3
   1409   1412   1414   1415     1  180.0000771  9.6232000  2
   1410   1409   1412   1413     1  0.0000000  3.3472000  1
   1410   1409   1412   1413     1  0.0000000  0.0000000  2
   1410   1409   1412   1413     1  180.0000771  0.3347200  3
   1410   1409   1412   1414     1  180.0000771  0.0000000  2
   1411   1409   1412   1413     1  0.0000000  3.3472000  1
   1411   1409   1412   1413     1  0.0000000  0.0000000  2
   1411   1409   1412   1413     1  180.0000771  0.3347200  3
   1411   1409   1412   1414     1  180.0000771  0.0000000  2
   1413   1412   1414   1415     1  0.0000000  7.9496000  1
   1413   1412   1414   1415     1  180.0000771  9.6232000  2
   1417   1416   1419   1422     1  0.0000000  0.6508444  3
   1417   1416   1419   1420     1  0.0000000  0.6508444  3
   1417   1416   1419   1421     1  0.0000000  0.6508444  3
   1418   1416   1419   1422     1  0.0000000  0.6508444  3
   1418   1416   1419   1420     1  0.0000000  0.6508444  3
   1418   1416   1419   1421     1  0.0000000  0.6508444  3
   1419   1422   1424   1425     1  180.0000771  9.6232000  2
   1420   1419   1422   1423     1  0.0000000  3.3472000  1
   1420   1419   1422   1423     1  0.0000000  0.0000000  2
   1420   1419   1422   1423     1  180.0000771  0.3347200  3
   1420   1419   1422   1424     1  180.0000771  0.0000000  2
   1421   1419   1422   1423     1  0.0000000  3.3472000  1
   1421   1419   1422   1423     1  0.0000000  0.0000000  2
   1421   1419   1422   1423     1  180.0000771  0.3347200  3
   1421   1419   1422   1424     1  180.0000771  0.0000000  2
   1423   1422   1424   1425     1  0.0000000  7.9496000  1
   1423   1422   1424   1425     1  180.0000771  9.6232000  2
   1427   1430   1433   1434     1  0.0000000  0.6508444  3
   1427   1430   1433   1435     1  0.0000000  0.6508444  3
   1428   1427   1430   1433     1  0.0000000  0.6508444  3
   1428   1427   1430   1431     1  0.0000000  0.6508444  3
   1428   1427   1430   1432     1  0.0000000  0.6508444  3
   1429   1427   1430   1433     1  0.0000000  0.6508444  3
   1429   1427   1430   1431     1  0.0000000  0.6508444  3
   1429   1427   1430   1432     1  0.0000000  0.6508444  3
   1431   1430   1433   1436     1  0.0000000  0.6508444  3
   1431   1430   1433   1434     1  0.0000000  0.6508444  3
   1431   1430   1433   1435     1  0.0000000  0.6508444  3
   1431   1430   1427   1457     1  0.0000000  1.0460000  1
   1431   1430   1427   1457     1  0.0000000  0.0000000  3
   1432   1430   1433   1436     1  0.0000000  0.6508444  3
   1432   1430   1433   1434     1  0.0000000  0.6508444  3
   1432   1430   1433   1435     1  0.0000000  0.6508444  3
   1432   1430   1427   1457     1  0.0000000  1.0460000  1
   1432   1430   1427   1457     1  0.0000000  0.0000000  3
   1433   1436   1437   1438     1  0.0000000  1.2552000  3
   1433   1436   1437   1439     1  0.0000000  1.2552000  3
   1433   1436   1447   1448     1  0.0000000  1.2552000  3
   1433   1436   1447   1449     1  0.0000000  1.2552000  3
   1434   1433   1436   1437     1  0.0000000  1.2552000  3
   1434   1433   1436   1447     1  0.0000000  1.2552000  3
   1435   1433   1436   1437     1  0.0000000  1.2552000  3
   1435   1433   1436   1447     1  0.0000000  1.2552000  3
   1436   1437   1440   1441     1  0.0000000  0.6508444  3
   1436   1437   1440   1442     1  0.0000000  0.6508444  3
   1436   1447   1450   1451     1  0.0000000  0.6508444  3
   1436   1447   1450   1452     1  0.0000000  0.6508444  3
   1437   1436   1447   1448     1  0.0000000  1.2552000  3
   1437   1436   1447   1449     1  0.0000000  1.2552000  3
   1438   1437   1440   1443     1  0.0000000  0.6508444  3
   1438   1437   1440   1441     1  0.0000000  0.6508444  3
   1438   1437   1440   1442     1  0.0000000  0.6508444  3
   1438   1437   1436   1447     1  0.0000000  1.2552000  3
   1439   1437   1440   1443     1  0.0000000  0.6508444  3
   1439   1437   1440   1441     1  0.0000000  0.6508444  3
   1439   1437   1440   1442     1  0.0000000  0.6508444  3
   1439   1437   1436   1447     1  0.0000000  1.2552000  3
   1440   1443   1445   1446     1  180.0000771  9.6232000  2
   1441   1440   1443   1444     1  0.0000000  3.3472000  1
   1441   1440   1443   1444     1  0.0000000  0.0000000  2
   1441   1440   1443   1444     1  180.0000771  0.3347200  3
   1441   1440   1443   1445     1  180.0000771  0.0000000  2
   1442   1440   1443   1444     1  0.0000000  3.3472000  1
   1442   1440   1443   1444     1  0.0000000  0.0000000  2
   1442   1440   1443   1444     1  180.0000771  0.3347200  3
   1442   1440   1443   1445     1  180.0000771  0.0000000  2
   1444   1443   1445   1446     1  0.0000000  7.9496000  1
   1444   1443   1445   1446     1  180.0000771  9.6232000  2
   1448   1447   1450   1453     1  0.0000000  0.6508444  3
   1448   1447   1450   1451     1  0.0000000  0.6508444  3
   1448   1447   1450   1452     1  0.0000000  0.6508444  3
   1449   1447   1450   1453     1  0.0000000  0.6508444  3
   1449   1447   1450   1451     1  0.0000000  0.6508444  3
   1449   1447   1450   1452     1  0.0000000  0.6508444  3
   1450   1453   1455   1456     1  180.0000771  9.6232000  2
   1451   1450   1453   1454     1  0.0000000  3.3472000  1
   1451   1450   1453   1454     1  0.0000000  0.0000000  2
   1451   1450   1453   1454     1  180.0000771  0.3347200  3
   1451   1450   1453   1455     1  180.0000771  0.0000000  2
   1452   1450   1453   1454     1  0.0000000  3.3472000  1
   1452   1450   1453   1454     1  0.0000000  0.0000000  2
   1452   1450   1453   1454     1  180.0000771  0.3347200  3
   1452   1450   1453   1455     1  180.0000771  0.0000000  2
   1454   1453   1455   1456     1  0.0000000  7.9496000  1
   1454   1453   1455   1456     1  180.0000771  9.6232000  2
   1458   1461   1464   1465     1  0.0000000  0.6508444  3
   1458   1461   1464   1466     1  0.0000000  0.6508444  3
   1459   1458   1461   1464     1  0.0000000  0.6508444  3
   1459   1458   1461   1462     1  0.0000000  0.6508444  3
   1459   1458   1461   1463     1  0.0000000  0.6508444  3
   1460   1458   1461   1464     1  0.0000000  0.6508444  3
   1460   1458   1461   1462     1  0.0000000  0.6508444  3
   1460   1458   1461   1463     1  0.0000000  0.6508444  3
   1462   1461   1458   1488     1  0.0000000  1.0460000  1
   1462   1461   1458   1488     1  0.0000000  0.0000000  3
   1462   1461   1464   1467     1  0.0000000  0.6508444  3
   1462   1461   1464   1465     1  0.0000000  0.6508444  3
   1462   1461   1464   1466     1  0.0000000  0.6508444  3
   1463   1461   1458   1488     1  0.0000000  1.0460000  1
   1463   1461   1458   1488     1  0.0000000  0.0000000  3
   1463   1461   1464   1467     1  0.0000000  0.6508444  3
   1463   1461   1464   1465     1  0.0000000  0.6508444  3
   1463   1461   1464   1466     1  0.0000000  0.6508444  3
   1464   1467   1468   1469     1  0.0000000  1.2552000  3
   1464   1467   1468   1470     1  0.0000000  1.2552000  3
   1464   1467   1478   1479     1  0.0000000  1.2552000  3
   1464   1467   1478   1480     1  0.0000000  1.2552000  3
   1465   1464   1467   1468     1  0.0000000  1.2552000  3
   1465   1464   1467   1478     1  0.0000000  1.2552000  3
   1466   1464   1467   1468     1  0.0000000  1.2552000  3
   1466   1464   1467   1478     1  0.0000000  1.2552000  3
   1467   1468   1471   1472     1  0.0000000  0.6508444  3
   1467   1468   1471   1473     1  0.0000000  0.6508444  3
   1467   1478   1481   1482     1  0.0000000  0.6508444  3
   1467   1478   1481   1483     1  0.0000000  0.6508444  3
   1468   1467   1478   1479     1  0.0000000  1.2552000  3
   1468   1467   1478   1480     1  0.0000000  1.2552000  3
   1469   1468   1467   1478     1  0.0000000  1.2552000  3
   1469   1468   1471   1474     1  0.0000000  0.6508444  3
   1469   1468   1471   1472     1  0.0000000  0.6508444  3
   1469   1468   1471   1473     1  0.0000000  0.6508444  3
   1470   1468   1467   1478     1  0.0000000  1.2552000  3
   1470   1468   1471   1474     1  0.0000000  0.6508444  3
   1470   1468   1471   1472     1  0.0000000  0.6508444  3
   1470   1468   1471   1473     1  0.0000000  0.6508444  3
   1471   1474   1476   1477     1  180.0000771  9.6232000  2
   1472   1471   1474   1475     1  0.0000000  3.3472000  1
   1472   1471   1474   1475     1  0.0000000  0.0000000  2
   1472   1471   1474   1475     1  180.0000771  0.3347200  3
   1472   1471   1474   1476     1  180.0000771  0.0000000  2
   1473   1471   1474   1475     1  0.0000000  3.3472000  1
   1473   1471   1474   1475     1  0.0000000  0.0000000  2
   1473   1471   1474   1475     1  180.0000771  0.3347200  3
   1473   1471   1474   1476     1  180.0000771  0.0000000  2
   1475   1474   1476   1477     1  0.0000000  7.9496000  1
   1475   1474   1476   1477     1  180.0000771  9.6232000  2
   1479   1478   1481   1484     1  0.0000000  0.6508444  3
   1479   1478   1481   1482     1  0.0000000  0.6508444  3
   1479   1478   1481   1483     1  0.0000000  0.6508444  3
   1480   1478   1481   1484     1  0.0000000  0.6508444  3
   1480   1478   1481   1482     1  0.0000000  0.6508444  3
   1480   1478   1481   1483     1  0.0000000  0.6508444  3
   1481   1484   1486   1487     1  180.0000771  9.6232000  2
   1482   1481   1484   1485     1  0.0000000  3.3472000  1
   1482   1481   1484   1485     1  0.0000000  0.0000000  2
   1482   1481   1484   1485     1  180.0000771  0.3347200  3
   1482   1481   1484   1486     1  180.0000771  0.0000000  2
   1483   1481   1484   1485     1  0.0000000  3.3472000  1
   1483   1481   1484   1485     1  0.0000000  0.0000000  2
   1483   1481   1484   1485     1  180.0000771  0.3347200  3
   1483   1481   1484   1486     1  180.0000771  0.0000000  2
   1485   1484   1486   1487     1  0.0000000  7.9496000  1
   1485   1484   1486   1487     1  180.0000771  9.6232000  2
   1489   1492   1495   1496     1  0.0000000  0.6508444  3
   1489   1492   1495   1497     1  0.0000000  0.6508444  3
   1490   1489   1492   1495     1  0.0000000  0.6508444  3
   1490   1489   1492   1493     1  0.0000000  0.6508444  3
   1490   1489   1492   1494     1  0.0000000  0.6508444  3
   1491   1489   1492   1495     1  0.0000000  0.6508444  3
   1491   1489   1492   1493     1  0.0000000  0.6508444  3
   1491   1489   1492   1494     1  0.0000000  0.6508444  3
   1493   1492   1495   1498     1  0.0000000  0.6508444  3
   1493   1492   1495   1496     1  0.0000000  0.6508444  3
   1493   1492   1495   1497     1  0.0000000  0.6508444  3
   1493   1492   1489   1519     1  0.0000000  1.0460000  1
   1493   1492   1489   1519     1  0.0000000  0.0000000  3
   1494   1492   1495   1498     1  0.0000000  0.6508444  3
   1494   1492   1495   1496     1  0.0000000  0.6508444  3
   1494   1492   1495   1497     1  0.0000000  0.6508444  3
   1494   1492   1489   1519     1  0.0000000  1.0460000  1
   1494   1492   1489   1519     1  0.0000000  0.0000000  3
   1495   1498   1499   1500     1  0.0000000  1.2552000  3
   1495   1498   1499   1501     1  0.0000000  1.2552000  3
   1495   1498   1509   1510     1  0.0000000  1.2552000  3
   1495   1498   1509   1511     1  0.0000000  1.2552000  3
   1496   1495   1498   1499     1  0.0000000  1.2552000  3
   1496   1495   1498   1509     1  0.0000000  1.2552000  3
   1497   1495   1498   1499     1  0.0000000  1.2552000  3
   1497   1495   1498   1509     1  0.0000000  1.2552000  3
   1498   1499   1502   1503     1  0.0000000  0.6508444  3
   1498   1499   1502   1504     1  0.0000000  0.6508444  3
   1498   1509   1512   1513     1  0.0000000  0.6508444  3
   1498   1509   1512   1514     1  0.0000000  0.6508444  3
   1499   1498   1509   1510     1  0.0000000  1.2552000  3
   1499   1498   1509   1511     1  0.0000000  1.2552000  3
   1500   1499   1502   1505     1  0.0000000  0.6508444  3
   1500   1499   1502   1503     1  0.0000000  0.6508444  3
   1500   1499   1502   1504     1  0.0000000  0.6508444  3
   1500   1499   1498   1509     1  0.0000000  1.2552000  3
   1501   1499   1502   1505     1  0.0000000  0.6508444  3
   1501   1499   1502   1503     1  0.0000000  0.6508444  3
   1501   1499   1502   1504     1  0.0000000  0.6508444  3
   1501   1499   1498   1509     1  0.0000000  1.2552000  3
   1502   1505   1507   1508     1  180.0000771  9.6232000  2
   1503   1502   1505   1506     1  0.0000000  3.3472000  1
   1503   1502   1505   1506     1  0.0000000  0.0000000  2
   1503   1502   1505   1506     1  180.0000771  0.3347200  3
   1503   1502   1505   1507     1  180.0000771  0.0000000  2
   1504   1502   1505   1506     1  0.0000000  3.3472000  1
   1504   1502   1505   1506     1  0.0000000  0.0000000  2
   1504   1502   1505   1506     1  180.0000771  0.3347200  3
   1504   1502   1505   1507     1  180.0000771  0.0000000  2
   1506   1505   1507   1508     1  0.0000000  7.9496000  1
   1506   1505   1507   1508     1  180.0000771  9.6232000  2
   1510   1509   1512   1515     1  0.0000000  0.6508444  3
   1510   1509   1512   1513     1  0.0000000  0.6508444  3
   1510   1509   1512   1514     1  0.0000000  0.6508444  3
   1511   1509   1512   1515     1  0.0000000  0.6508444  3
   1511   1509   1512   1513     1  0.0000000  0.6508444  3
   1511   1509   1512   1514     1  0.0000000  0.6508444  3
   1512   1515   1517   1518     1  180.0000771  9.6232000  2
   1513   1512   1515   1516     1  0.0000000  3.3472000  1
   1513   1512   1515   1516     1  0.0000000  0.0000000  2
   1513   1512   1515   1516     1  180.0000771  0.3347200  3
   1513   1512   1515   1517     1  180.0000771  0.0000000  2
   1514   1512   1515   1516     1  0.0000000  3.3472000  1
   1514   1512   1515   1516     1  0.0000000  0.0000000  2
   1514   1512   1515   1516     1  180.0000771  0.3347200  3
   1514   1512   1515   1517     1  180.0000771  0.0000000  2
   1516   1515   1517   1518     1  0.0000000  7.9496000  1
   1516   1515   1517   1518     1  180.0000771  9.6232000  2
   1520   1523   1526   1527     1  0.0000000  0.6508444  3
   1520   1523   1526   1528     1  0.0000000  0.6508444  3
   1521   1520   1523   1526     1  0.0000000  0.6508444  3
   1521   1520   1523   1524     1  0.0000000  0.6508444  3
   1521   1520   1523   1525     1  0.0000000  0.6508444  3
   1522   1520   1523   1526     1  0.0000000  0.6508444  3
   1522   1520   1523   1524     1  0.0000000  0.6508444  3
   1522   1520   1523   1525     1  0.0000000  0.6508444  3
   1524   1523   1520   1550     1  0.0000000  1.0460000  1
   1524   1523   1520   1550     1  0.0000000  0.0000000  3
   1524   1523   1526   1529     1  0.0000000  0.6508444  3
   1524   1523   1526   1527     1  0.0000000  0.6508444  3
   1524   1523   1526   1528     1  0.0000000  0.6508444  3
   1525   1523   1520   1550     1  0.0000000  1.0460000  1
   1525   1523   1520   1550     1  0.0000000  0.0000000  3
   1525   1523   1526   1529     1  0.0000000  0.6508444  3
   1525   1523   1526   1527     1  0.0000000  0.6508444  3
   1525   1523   1526   1528     1  0.0000000  0.6508444  3
   1526   1529   1530   1531     1  0.0000000  1.2552000  3
   1526   1529   1530   1532     1  0.0000000  1.2552000  3
   1526   1529   1540   1541     1  0.0000000  1.2552000  3
   1526   1529   1540   1542     1  0.0000000  1.2552000  3
   1527   1526   1529   1530     1  0.0000000  1.2552000  3
   1527   1526   1529   1540     1  0.0000000  1.2552000  3
   1528   1526   1529   1530     1  0.0000000  1.2552000  3
   1528   1526   1529   1540     1  0.0000000  1.2552000  3
   1529   1530   1533   1534     1  0.0000000  0.6508444  3
   1529   1530   1533   1535     1  0.0000000  0.6508444  3
   1529   1540   1543   1544     1  0.0000000  0.6508444  3
   1529   1540   1543   1545     1  0.0000000  0.6508444  3
   1530   1529   1540   1541     1  0.0000000  1.2552000  3
   1530   1529   1540   1542     1  0.0000000  1.2552000  3
   1531   1530   1529   1540     1  0.0000000  1.2552000  3
   1531   1530   1533   1536     1  0.0000000  0.6508444  3
   1531   1530   1533   1534     1  0.0000000  0.6508444  3
   1531   1530   1533   1535     1  0.0000000  0.6508444  3
   1532   1530   1529   1540     1  0.0000000  1.2552000  3
   1532   1530   1533   1536     1  0.0000000  0.6508444  3
   1532   1530   1533   1534     1  0.0000000  0.6508444  3
   1532   1530   1533   1535     1  0.0000000  0.6508444  3
   1533   1536   1538   1539     1  180.0000771  9.6232000  2
   1534   1533   1536   1537     1  0.0000000  3.3472000  1
   1534   1533   1536   1537     1  0.0000000  0.0000000  2
   1534   1533   1536   1537     1  180.0000771  0.3347200  3
   1534   1533   1536   1538     1  180.0000771  0.0000000  2
   1535   1533   1536   1537     1  0.0000000  3.3472000  1
   1535   1533   1536   1537     1  0.0000000  0.0000000  2
   1535   1533   1536   1537     1  180.0000771  0.3347200  3
   1535   1533   1536   1538     1  180.0000771  0.0000000  2
   1537   1536   1538   1539     1  0.0000000  7.9496000  1
   1537   1536   1538   1539     1  180.0000771  9.6232000  2
   1541   1540   1543   1546     1  0.0000000  0.6508444  3
   1541   1540   1543   1544     1  0.0000000  0.6508444  3
   1541   1540   1543   1545     1  0.0000000  0.6508444  3
   1542   1540   1543   1546     1  0.0000000  0.6508444  3
   1542   1540   1543   1544     1  0.0000000  0.6508444  3
   1542   1540   1543   1545     1  0.0000000  0.6508444  3
   1543   1546   1548   1549     1  180.0000771  9.6232000  2
   1544   1543   1546   1547     1  0.0000000  3.3472000  1
   1544   1543   1546   1547     1  0.0000000  0.0000000  2
   1544   1543   1546   1547     1  180.0000771  0.3347200  3
   1544   1543   1546   1548     1  180.0000771  0.0000000  2
   1545   1543   1546   1547     1  0.0000000  3.3472000  1
   1545   1543   1546   1547     1  0.0000000  0.0000000  2
   1545   1543   1546   1547     1  180.0000771  0.3347200  3
   1545   1543   1546   1548     1  180.0000771  0.0000000  2
   1547   1546   1548   1549     1  0.0000000  7.9496000  1
   1547   1546   1548   1549     1  180.0000771  9.6232000  2
   1551   1554   1557   1558     1  0.0000000  0.6508444  3
   1551   1554   1557   1559     1  0.0000000  0.6508444  3
   1552   1551   1554   1557     1  0.0000000  0.6508444  3
   1552   1551   1554   1555     1  0.0000000  0.6508444  3
   1552   1551   1554   1556     1  0.0000000  0.6508444  3
   1553   1551   1554   1557     1  0.0000000  0.6508444  3
   1553   1551   1554   1555     1  0.0000000  0.6508444  3
   1553   1551   1554   1556     1  0.0000000  0.6508444  3
   1555   1554   1557   1560     1  0.0000000  0.6508444  3
   1555   1554   1557   1558     1  0.0000000  0.6508444  3
   1555   1554   1557   1559     1  0.0000000  0.6508444  3
   1555   1554   1551   1581     1  0.0000000  1.0460000  1
   1555   1554   1551   1581     1  0.0000000  0.0000000  3
   1556   1554   1557   1560     1  0.0000000  0.6508444  3
   1556   1554   1557   1558     1  0.0000000  0.6508444  3
   1556   1554   1557   1559     1  0.0000000  0.6508444  3
   1556   1554   1551   1581     1  0.0000000  1.0460000  1
   1556   1554   1551   1581     1  0.0000000  0.0000000  3
   1557   1560   1561   1562     1  0.0000000  1.2552000  3
   1557   1560   1561   1563     1  0.0000000  1.2552000  3
   1557   1560   1571   1572     1  0.0000000  1.2552000  3
   1557   1560   1571   1573     1  0.0000000  1.2552000  3
   1558   1557   1560   1561     1  0.0000000  1.2552000  3
   1558   1557   1560   1571     1  0.0000000  1.2552000  3
   1559   1557   1560   1561     1  0.0000000  1.2552000  3
   1559   1557   1560   1571     1  0.0000000  1.2552000  3
   1560   1561   1564   1565     1  0.0000000  0.6508444  3
   1560   1561   1564   1566     1  0.0000000  0.6508444  3
   1560   1571   1574   1575     1  0.0000000  0.6508444  3
   1560   1571   1574   1576     1  0.0000000  0.6508444  3
   1561   1560   1571   1572     1  0.0000000  1.2552000  3
   1561   1560   1571   1573     1  0.0000000  1.2552000  3
   1562   1561   1564   1567     1  0.0000000  0.6508444  3
   1562   1561   1564   1565     1  0.0000000  0.6508444  3
   1562   1561   1564   1566     1  0.0000000  0.6508444  3
   1562   1561   1560   1571     1  0.0000000  1.2552000  3
   1563   1561   1564   1567     1  0.0000000  0.6508444  3
   1563   1561   1564   1565     1  0.0000000  0.6508444  3
   1563   1561   1564   1566     1  0.0000000  0.6508444  3
   1563   1561   1560   1571     1  0.0000000  1.2552000  3
   1564   1567   1569   1570     1  180.0000771  9.6232000  2
   1565   1564   1567   1568     1  0.0000000  3.3472000  1
   1565   1564   1567   1568     1  0.0000000  0.0000000  2
   1565   1564   1567   1568     1  180.0000771  0.3347200  3
   1565   1564   1567   1569     1  180.0000771  0.0000000  2
   1566   1564   1567   1568     1  0.0000000  3.3472000  1
   1566   1564   1567   1568     1  0.0000000  0.0000000  2
   1566   1564   1567   1568     1  180.0000771  0.3347200  3
   1566   1564   1567   1569     1  180.0000771  0.0000000  2
   1568   1567   1569   1570     1  0.0000000  7.9496000  1
   1568   1567   1569   1570     1  180.0000771  9.6232000  2
   1572   1571   1574   1577     1  0.0000000  0.6508444  3
   1572   1571   1574   1575     1  0.0000000  0.6508444  3
   1572   1571   1574   1576     1  0.0000000  0.6508444  3
   1573   1571   1574   1577     1  0.0000000  0.6508444  3
   1573   1571   1574   1575     1  0.0000000  0.6508444  3
   1573   1571   1574   1576     1  0.0000000  0.6508444  3
   1574   1577   1579   1580     1  180.0000771  9.6232000  2
   1575   1574   1577   1578     1  0.0000000  3.3472000  1
   1575   1574   1577   1578     1  0.0000000  0.0000000  2
   1575   1574   1577   1578     1  180.0000771  0.3347200  3
   1575   1574   1577   1579     1  180.0000771  0.0000000  2
   1576   1574   1577   1578     1  0.0000000  3.3472000  1
   1576   1574   1577   1578     1  0.0000000  0.0000000  2
   1576   1574   1577   1578     1  180.0000771  0.3347200  3
   1576   1574   1577   1579     1  180.0000771  0.0000000  2
   1578   1577   1579   1580     1  0.0000000  7.9496000  1
   1578   1577   1579   1580     1  180.0000771  9.6232000  2
   1582   1585   1588   1589     1  0.0000000  0.6508444  3
   1582   1585   1588   1590     1  0.0000000  0.6508444  3
   1583   1582   1585   1588     1  0.0000000  0.6508444  3
   1583   1582   1585   1586     1  0.0000000  0.6508444  3
   1583   1582   1585   1587     1  0.0000000  0.6508444  3
   1584   1582   1585   1588     1  0.0000000  0.6508444  3
   1584   1582   1585   1586     1  0.0000000  0.6508444  3
   1584   1582   1585   1587     1  0.0000000  0.6508444  3
   1586   1585   1582   1612     1  0.0000000  1.0460000  1
   1586   1585   1582   1612     1  0.0000000  0.0000000  3
   1586   1585   1588   1591     1  0.0000000  0.6508444  3
   1586   1585   1588   1589     1  0.0000000  0.6508444  3
   1586   1585   1588   1590     1  0.0000000  0.6508444  3
   1587   1585   1582   1612     1  0.0000000  1.0460000  1
   1587   1585   1582   1612     1  0.0000000  0.0000000  3
   1587   1585   1588   1591     1  0.0000000  0.6508444  3
   1587   1585   1588   1589     1  0.0000000  0.6508444  3
   1587   1585   1588   1590     1  0.0000000  0.6508444  3
   1588   1591   1592   1593     1  0.0000000  1.2552000  3
   1588   1591   1592   1594     1  0.0000000  1.2552000  3
   1588   1591   1602   1603     1  0.0000000  1.2552000  3
   1588   1591   1602   1604     1  0.0000000  1.2552000  3
   1589   1588   1591   1592     1  0.0000000  1.2552000  3
   1589   1588   1591   1602     1  0.0000000  1.2552000  3
   1590   1588   1591   1592     1  0.0000000  1.2552000  3
   1590   1588   1591   1602     1  0.0000000  1.2552000  3
   1591   1592   1595   1596     1  0.0000000  0.6508444  3
   1591   1592   1595   1597     1  0.0000000  0.6508444  3
   1591   1602   1605   1606     1  0.0000000  0.6508444  3
   1591   1602   1605   1607     1  0.0000000  0.6508444  3
   1592   1591   1602   1603     1  0.0000000  1.2552000  3
   1592   1591   1602   1604     1  0.0000000  1.2552000  3
   1593   1592   1591   1602     1  0.0000000  1.2552000  3
   1593   1592   1595   1598     1  0.0000000  0.6508444  3
   1593   1592   1595   1596     1  0.0000000  0.6508444  3
   1593   1592   1595   1597     1  0.0000000  0.6508444  3
   1594   1592   1591   1602     1  0.0000000  1.2552000  3
   1594   1592   1595   1598     1  0.0000000  0.6508444  3
   1594   1592   1595   1596     1  0.0000000  0.6508444  3
   1594   1592   1595   1597     1  0.0000000  0.6508444  3
   1595   1598   1600   1601     1  180.0000771  9.6232000  2
   1596   1595   1598   1599     1  0.0000000  3.3472000  1
   1596   1595   1598   1599     1  0.0000000  0.0000000  2
   1596   1595   1598   1599     1  180.0000771  0.3347200  3
   1596   1595   1598   1600     1  180.0000771  0.0000000  2
   1597   1595   1598   1599     1  0.0000000  3.3472000  1
   1597   1595   1598   1599     1  0.0000000  0.0000000  2
   1597   1595   1598   1599     1  180.0000771  0.3347200  3
   1597   1595   1598   1600     1  180.0000771  0.0000000  2
   1599   1598   1600   1601     1  0.0000000  7.9496000  1
   1599   1598   1600   1601     1  180.0000771  9.6232000  2
   1603   1602   1605   1608     1  0.0000000  0.6508444  3
   1603   1602   1605   1606     1  0.0000000  0.6508444  3
   1603   1602   1605   1607     1  0.0000000  0.6508444  3
   1604   1602   1605   1608     1  0.0000000  0.6508444  3
   1604   1602   1605   1606     1  0.0000000  0.6508444  3
   1604   1602   1605   1607     1  0.0000000  0.6508444  3
   1605   1608   1610   1611     1  180.0000771  9.6232000  2
   1606   1605   1608   1609     1  0.0000000  3.3472000  1
   1606   1605   1608   1609     1  0.0000000  0.0000000  2
   1606   1605   1608   1609     1  180.0000771  0.3347200  3
   1606   1605   1608   1610     1  180.0000771  0.0000000  2
   1607   1605   1608   1609     1  0.0000000  3.3472000  1
   1607   1605   1608   1609     1  0.0000000  0.0000000  2
   1607   1605   1608   1609     1  180.0000771  0.3347200  3
   1607   1605   1608   1610     1  180.0000771  0.0000000  2
   1609   1608   1610   1611     1  0.0000000  7.9496000  1
   1609   1608   1610   1611     1  180.0000771  9.6232000  2
   1613   1616   1619   1620     1  0.0000000  0.6508444  3
   1613   1616   1619   1621     1  0.0000000  0.6508444  3
   1614   1613   1616   1619     1  0.0000000  0.6508444  3
   1614   1613   1616   1617     1  0.0000000  0.6508444  3
   1614   1613   1616   1618     1  0.0000000  0.6508444  3
   1615   1613   1616   1619     1  0.0000000  0.6508444  3
   1615   1613   1616   1617     1  0.0000000  0.6508444  3
   1615   1613   1616   1618     1  0.0000000  0.6508444  3
   1617   1616   1619   1622     1  0.0000000  0.6508444  3
   1617   1616   1619   1620     1  0.0000000  0.6508444  3
   1617   1616   1619   1621     1  0.0000000  0.6508444  3
   1617   1616   1613   1643     1  0.0000000  1.0460000  1
   1617   1616   1613   1643     1  0.0000000  0.0000000  3
   1618   1616   1619   1622     1  0.0000000  0.6508444  3
   1618   1616   1619   1620     1  0.0000000  0.6508444  3
   1618   1616   1619   1621     1  0.0000000  0.6508444  3
   1618   1616   1613   1643     1  0.0000000  1.0460000  1
   1618   1616   1613   1643     1  0.0000000  0.0000000  3
   1619   1622   1623   1624     1  0.0000000  1.2552000  3
   1619   1622   1623   1625     1  0.0000000  1.2552000  3
   1619   1622   1633   1634     1  0.0000000  1.2552000  3
   1619   1622   1633   1635     1  0.0000000  1.2552000  3
   1620   1619   1622   1623     1  0.0000000  1.2552000  3
   1620   1619   1622   1633     1  0.0000000  1.2552000  3
   1621   1619   1622   1623     1  0.0000000  1.2552000  3
   1621   1619   1622   1633     1  0.0000000  1.2552000  3
   1622   1623   1626   1627     1  0.0000000  0.6508444  3
   1622   1623   1626   1628     1  0.0000000  0.6508444  3
   1622   1633   1636   1637     1  0.0000000  0.6508444  3
   1622   1633   1636   1638     1  0.0000000  0.6508444  3
   1623   1622   1633   1634     1  0.0000000  1.2552000  3
   1623   1622   1633   1635     1  0.0000000  1.2552000  3
   1624   1623   1626   1629     1  0.0000000  0.6508444  3
   1624   1623   1626   1627     1  0.0000000  0.6508444  3
   1624   1623   1626   1628     1  0.0000000  0.6508444  3
   1624   1623   1622   1633     1  0.0000000  1.2552000  3
   1625   1623   1626   1629     1  0.0000000  0.6508444  3
   1625   1623   1626   1627     1  0.0000000  0.6508444  3
   1625   1623   1626   1628     1  0.0000000  0.6508444  3
   1625   1623   1622   1633     1  0.0000000  1.2552000  3
   1626   1629   1631   1632     1  180.0000771  9.6232000  2
   1627   1626   1629   1630     1  0.0000000  3.3472000  1
   1627   1626   1629   1630     1  0.0000000  0.0000000  2
   1627   1626   1629   1630     1  180.0000771  0.3347200  3
   1627   1626   1629   1631     1  180.0000771  0.0000000  2
   1628   1626   1629   1630     1  0.0000000  3.3472000  1
   1628   1626   1629   1630     1  0.0000000  0.0000000  2
   1628   1626   1629   1630     1  180.0000771  0.3347200  3
   1628   1626   1629   1631     1  180.0000771  0.0000000  2
   1630   1629   1631   1632     1  0.0000000  7.9496000  1
   1630   1629   1631   1632     1  180.0000771  9.6232000  2
   1634   1633   1636   1639     1  0.0000000  0.6508444  3
   1634   1633   1636   1637     1  0.0000000  0.6508444  3
   1634   1633   1636   1638     1  0.0000000  0.6508444  3
   1635   1633   1636   1639     1  0.0000000  0.6508444  3
   1635   1633   1636   1637     1  0.0000000  0.6508444  3
   1635   1633   1636   1638     1  0.0000000  0.6508444  3
   1636   1639   1641   1642     1  180.0000771  9.6232000  2
   1637   1636   1639   1640     1  0.0000000  3.3472000  1
   1637   1636   1639   1640     1  0.0000000  0.0000000  2
   1637   1636   1639   1640     1  180.0000771  0.3347200  3
   1637   1636   1639   1641     1  180.0000771  0.0000000  2
   1638   1636   1639   1640     1  0.0000000  3.3472000  1
   1638   1636   1639   1640     1  0.0000000  0.0000000  2
   1638   1636   1639   1640     1  180.0000771  0.3347200  3
   1638   1636   1639   1641     1  180.0000771  0.0000000  2
   1640   1639   1641   1642     1  0.0000000  7.9496000  1
   1640   1639   1641   1642     1  180.0000771  9.6232000  2
   1644   1647   1650   1651     1  0.0000000  0.6508444  3
   1644   1647   1650   1652     1  0.0000000  0.6508444  3
   1645   1644   1647   1650     1  0.0000000  0.6508444  3
   1645   1644   1647   1648     1  0.0000000  0.6508444  3
   1645   1644   1647   1649     1  0.0000000  0.6508444  3
   1646   1644   1647   1650     1  0.0000000  0.6508444  3
   1646   1644   1647   1648     1  0.0000000  0.6508444  3
   1646   1644   1647   1649     1  0.0000000  0.6508444  3
   1648   1647   1644   1674     1  0.0000000  1.0460000  1
   1648   1647   1644   1674     1  0.0000000  0.0000000  3
   1648   1647   1650   1653     1  0.0000000  0.6508444  3
   1648   1647   1650   1651     1  0.0000000  0.6508444  3
   1648   1647   1650   1652     1  0.0000000  0.6508444  3
   1649   1647   1644   1674     1  0.0000000  1.0460000  1
   1649   1647   1644   1674     1  0.0000000  0.0000000  3
   1649   1647   1650   1653     1  0.0000000  0.6508444  3
   1649   1647   1650   1651     1  0.0000000  0.6508444  3
   1649   1647   1650   1652     1  0.0000000  0.6508444  3
   1650   1653   1654   1655     1  0.0000000  1.2552000  3
   1650   1653   1654   1656     1  0.0000000  1.2552000  3
   1650   1653   1664   1665     1  0.0000000  1.2552000  3
   1650   1653   1664   1666     1  0.0000000  1.2552000  3
   1651   1650   1653   1654     1  0.0000000  1.2552000  3
   1651   1650   1653   1664     1  0.0000000  1.2552000  3
   1652   1650   1653   1654     1  0.0000000  1.2552000  3
   1652   1650   1653   1664     1  0.0000000  1.2552000  3
   1653   1654   1657   1658     1  0.0000000  0.6508444  3
   1653   1654   1657   1659     1  0.0000000  0.6508444  3
   1653   1664   1667   1668     1  0.0000000  0.6508444  3
   1653   1664   1667   1669     1  0.0000000  0.6508444  3
   1654   1653   1664   1665     1  0.0000000  1.2552000  3
   1654   1653   1664   1666     1  0.0000000  1.2552000  3
   1655   1654   1653   1664     1  0.0000000  1.2552000  3
   1655   1654   1657   1660     1  0.0000000  0.6508444  3
   1655   1654   1657   1658     1  0.0000000  0.6508444  3
   1655   1654   1657   1659     1  0.0000000  0.6508444  3
   1656   1654   1653   1664     1  0.0000000  1.2552000  3
   1656   1654   1657   1660     1  0.0000000  0.6508444  3
   1656   1654   1657   1658     1  0.0000000  0.6508444  3
   1656   1654   1657   1659     1  0.0000000  0.6508444  3
   1657   1660   1662   1663     1  180.0000771  9.6232000  2
   1658   1657   1660   1661     1  0.0000000  3.3472000  1
   1658   1657   1660   1661     1  0.0000000  0.0000000  2
   1658   1657   1660   1661     1  180.0000771  0.3347200  3
   1658   1657   1660   1662     1  180.0000771  0.0000000  2
   1659   1657   1660   1661     1  0.0000000  3.3472000  1
   1659   1657   1660   1661     1  0.0000000  0.0000000  2
   1659   1657   1660   1661     1  180.0000771  0.3347200  3
   1659   1657   1660   1662     1  180.0000771  0.0000000  2
   1661   1660   1662   1663     1  0.0000000  7.9496000  1
   1661   1660   1662   1663     1  180.0000771  9.6232000  2
   1665   1664   1667   1670     1  0.0000000  0.6508444  3
   1665   1664   1667   1668     1  0.0000000  0.6508444  3
   1665   1664   1667   1669     1  0.0000000  0.6508444  3
   1666   1664   1667   1670     1  0.0000000  0.6508444  3
   1666   1664   1667   1668     1  0.0000000  0.6508444  3
   1666   1664   1667   1669     1  0.0000000  0.6508444  3
   1667   1670   1672   1673     1  180.0000771  9.6232000  2
   1668   1667   1670   1671     1  0.0000000  3.3472000  1
   1668   1667   1670   1671     1  0.0000000  0.0000000  2
   1668   1667   1670   1671     1  180.0000771  0.3347200  3
   1668   1667   1670   1672     1  180.0000771  0.0000000  2
   1669   1667   1670   1671     1  0.0000000  3.3472000  1
   1669   1667   1670   1671     1  0.0000000  0.0000000  2
   1669   1667   1670   1671     1  180.0000771  0.3347200  3
   1669   1667   1670   1672     1  180.0000771  0.0000000  2
   1671   1670   1672   1673     1  0.0000000  7.9496000  1
   1671   1670   1672   1673     1  180.0000771  9.6232000  2
   1675   1678   1681   1682     1  0.0000000  0.6508444  3
   1675   1678   1681   1683     1  0.0000000  0.6508444  3
   1676   1675   1678   1681     1  0.0000000  0.6508444  3
   1676   1675   1678   1679     1  0.0000000  0.6508444  3
   1676   1675   1678   1680     1  0.0000000  0.6508444  3
   1677   1675   1678   1681     1  0.0000000  0.6508444  3
   1677   1675   1678   1679     1  0.0000000  0.6508444  3
   1677   1675   1678   1680     1  0.0000000  0.6508444  3
   1679   1678   1681   1684     1  0.0000000  0.6508444  3
   1679   1678   1681   1682     1  0.0000000  0.6508444  3
   1679   1678   1681   1683     1  0.0000000  0.6508444  3
   1679   1678   1675   1705     1  0.0000000  1.0460000  1
   1679   1678   1675   1705     1  0.0000000  0.0000000  3
   1680   1678   1681   1684     1  0.0000000  0.6508444  3
   1680   1678   1681   1682     1  0.0000000  0.6508444  3
   1680   1678   1681   1683     1  0.0000000  0.6508444  3
   1680   1678   1675   1705     1  0.0000000  1.0460000  1
   1680   1678   1675   1705     1  0.0000000  0.0000000  3
   1681   1684   1685   1686     1  0.0000000  1.2552000  3
   1681   1684   1685   1687     1  0.0000000  1.2552000  3
   1681   1684   1695   1696     1  0.0000000  1.2552000  3
   1681   1684   1695   1697     1  0.0000000  1.2552000  3
   1682   1681   1684   1685     1  0.0000000  1.2552000  3
   1682   1681   1684   1695     1  0.0000000  1.2552000  3
   1683   1681   1684   1685     1  0.0000000  1.2552000  3
   1683   1681   1684   1695     1  0.0000000  1.2552000  3
   1684   1685   1688   1689     1  0.0000000  0.6508444  3
   1684   1685   1688   1690     1  0.0000000  0.6508444  3
   1684   1695   1698   1699     1  0.0000000  0.6508444  3
   1684   1695   1698   1700     1  0.0000000  0.6508444  3
   1685   1684   1695   1696     1  0.0000000  1.2552000  3
   1685   1684   1695   1697     1  0.0000000  1.2552000  3
   1686   1685   1688   1691     1  0.0000000  0.6508444  3
   1686   1685   1688   1689     1  0.0000000  0.6508444  3
   1686   1685   1688   1690     1  0.0000000  0.6508444  3
   1686   1685   1684   1695     1  0.0000000  1.2552000  3
   1687   1685   1688   1691     1  0.0000000  0.6508444  3
   1687   1685   1688   1689     1  0.0000000  0.6508444  3
   1687   1685   1688   1690     1  0.0000000  0.6508444  3
   1687   1685   1684   1695     1  0.0000000  1.2552000  3
   1688   1691   1693   1694     1  180.0000771  9.6232000  2
   1689   1688   1691   1692     1  0.0000000  3.3472000  1
   1689   1688   1691   1692     1  0.0000000  0.0000000  2
   1689   1688   1691   1692     1  180.0000771  0.3347200  3
   1689   1688   1691   1693     1  180.0000771  0.0000000  2
   1690   1688   1691   1692     1  0.0000000  3.3472000  1
   1690   1688   1691   1692     1  0.0000000  0.0000000  2
   1690   1688   1691   1692     1  180.0000771  0.3347200  3
   1690   1688   1691   1693     1  180.0000771  0.0000000  2
   1692   1691   1693   1694     1  0.0000000  7.9496000  1
   1692   1691   1693   1694     1  180.0000771  9.6232000  2
   1696   1695   1698   1701     1  0.0000000  0.6508444  3
   1696   1695   1698   1699     1  0.0000000  0.6508444  3
   1696   1695   1698   1700     1  0.0000000  0.6508444  3
   1697   1695   1698   1701     1  0.0000000  0.6508444  3
   1697   1695   1698   1699     1  0.0000000  0.6508444  3
   1697   1695   1698   1700     1  0.0000000  0.6508444  3
   1698   1701   1703   1704     1  180.0000771  9.6232000  2
   1699   1698   1701   1702     1  0.0000000  3.3472000  1
   1699   1698   1701   1702     1  0.0000000  0.0000000  2
   1699   1698   1701   1702     1  180.0000771  0.3347200  3
   1699   1698   1701   1703     1  180.0000771  0.0000000  2
   1700   1698   1701   1702     1  0.0000000  3.3472000  1
   1700   1698   1701   1702     1  0.0000000  0.0000000  2
   1700   1698   1701   1702     1  180.0000771  0.3347200  3
   1700   1698   1701   1703     1  180.0000771  0.0000000  2
   1702   1701   1703   1704     1  0.0000000  7.9496000  1
   1702   1701   1703   1704     1  180.0000771  9.6232000  2
   1706   1709   1712   1713     1  0.0000000  0.6508444  3
   1706   1709   1712   1714     1  0.0000000  0.6508444  3
   1707   1706   1709   1712     1  0.0000000  0.6508444  3
   1707   1706   1709   1710     1  0.0000000  0.6508444  3
   1707   1706   1709   1711     1  0.0000000  0.6508444  3
   1708   1706   1709   1712     1  0.0000000  0.6508444  3
   1708   1706   1709   1710     1  0.0000000  0.6508444  3
   1708   1706   1709   1711     1  0.0000000  0.6508444  3
   1710   1709   1706   1736     1  0.0000000  1.0460000  1
   1710   1709   1706   1736     1  0.0000000  0.0000000  3
   1710   1709   1712   1715     1  0.0000000  0.6508444  3
   1710   1709   1712   1713     1  0.0000000  0.6508444  3
   1710   1709   1712   1714     1  0.0000000  0.6508444  3
   1711   1709   1706   1736     1  0.0000000  1.0460000  1
   1711   1709   1706   1736     1  0.0000000  0.0000000  3
   1711   1709   1712   1715     1  0.0000000  0.6508444  3
   1711   1709   1712   1713     1  0.0000000  0.6508444  3
   1711   1709   1712   1714     1  0.0000000  0.6508444  3
   1712   1715   1716   1717     1  0.0000000  1.2552000  3
   1712   1715   1716   1718     1  0.0000000  1.2552000  3
   1712   1715   1726   1727     1  0.0000000  1.2552000  3
   1712   1715   1726   1728     1  0.0000000  1.2552000  3
   1713   1712   1715   1716     1  0.0000000  1.2552000  3
   1713   1712   1715   1726     1  0.0000000  1.2552000  3
   1714   1712   1715   1716     1  0.0000000  1.2552000  3
   1714   1712   1715   1726     1  0.0000000  1.2552000  3
   1715   1716   1719   1720     1  0.0000000  0.6508444  3
   1715   1716   1719   1721     1  0.0000000  0.6508444  3
   1715   1726   1729   1730     1  0.0000000  0.6508444  3
   1715   1726   1729   1731     1  0.0000000  0.6508444  3
   1716   1715   1726   1727     1  0.0000000  1.2552000  3
   1716   1715   1726   1728     1  0.0000000  1.2552000  3
   1717   1716   1715   1726     1  0.0000000  1.2552000  3
   1717   1716   1719   1722     1  0.0000000  0.6508444  3
   1717   1716   1719   1720     1  0.0000000  0.6508444  3
   1717   1716   1719   1721     1  0.0000000  0.6508444  3
   1718   1716   1715   1726     1  0.0000000  1.2552000  3
   1718   1716   1719   1722     1  0.0000000  0.6508444  3
   1718   1716   1719   1720     1  0.0000000  0.6508444  3
   1718   1716   1719   1721     1  0.0000000  0.6508444  3
   1719   1722   1724   1725     1  180.0000771  9.6232000  2
   1720   1719   1722   1723     1  0.0000000  3.3472000  1
   1720   1719   1722   1723     1  0.0000000  0.0000000  2
   1720   1719   1722   1723     1  180.0000771  0.3347200  3
   1720   1719   1722   1724     1  180.0000771  0.0000000  2
   1721   1719   1722   1723     1  0.0000000  3.3472000  1
   1721   1719   1722   1723     1  0.0000000  0.0000000  2
   1721   1719   1722   1723     1  180.0000771  0.3347200  3
   1721   1719   1722   1724     1  180.0000771  0.0000000  2
   1723   1722   1724   1725     1  0.0000000  7.9496000  1
   1723   1722   1724   1725     1  180.0000771  9.6232000  2
   1727   1726   1729   1732     1  0.0000000  0.6508444  3
   1727   1726   1729   1730     1  0.0000000  0.6508444  3
   1727   1726   1729   1731     1  0.0000000  0.6508444  3
   1728   1726   1729   1732     1  0.0000000  0.6508444  3
   1728   1726   1729   1730     1  0.0000000  0.6508444  3
   1728   1726   1729   1731     1  0.0000000  0.6508444  3
   1729   1732   1734   1735     1  180.0000771  9.6232000  2
   1730   1729   1732   1733     1  0.0000000  3.3472000  1
   1730   1729   1732   1733     1  0.0000000  0.0000000  2
   1730   1729   1732   1733     1  180.0000771  0.3347200  3
   1730   1729   1732   1734     1  180.0000771  0.0000000  2
   1731   1729   1732   1733     1  0.0000000  3.3472000  1
   1731   1729   1732   1733     1  0.0000000  0.0000000  2
   1731   1729   1732   1733     1  180.0000771  0.3347200  3
   1731   1729   1732   1734     1  180.0000771  0.0000000  2
   1733   1732   1734   1735     1  0.0000000  7.9496000  1
   1733   1732   1734   1735     1  180.0000771  9.6232000  2
   1737   1740   1743   1744     1  0.0000000  0.6508444  3
   1737   1740   1743   1745     1  0.0000000  0.6508444  3
   1738   1737   1740   1743     1  0.0000000  0.6508444  3
   1738   1737   1740   1741     1  0.0000000  0.6508444  3
   1738   1737   1740   1742     1  0.0000000  0.6508444  3
   1739   1737   1740   1743     1  0.0000000  0.6508444  3
   1739   1737   1740   1741     1  0.0000000  0.6508444  3
   1739   1737   1740   1742     1  0.0000000  0.6508444  3
   1741   1740   1743   1746     1  0.0000000  0.6508444  3
   1741   1740   1743   1744     1  0.0000000  0.6508444  3
   1741   1740   1743   1745     1  0.0000000  0.6508444  3
   1741   1740   1737   1767     1  0.0000000  1.0460000  1
   1741   1740   1737   1767     1  0.0000000  0.0000000  3
   1742   1740   1743   1746     1  0.0000000  0.6508444  3
   1742   1740   1743   1744     1  0.0000000  0.6508444  3
   1742   1740   1743   1745     1  0.0000000  0.6508444  3
   1742   1740   1737   1767     1  0.0000000  1.0460000  1
   1742   1740   1737   1767     1  0.0000000  0.0000000  3
   1743   1746   1747   1748     1  0.0000000  1.2552000  3
   1743   1746   1747   1749     1  0.0000000  1.2552000  3
   1743   1746   1757   1758     1  0.0000000  1.2552000  3
   1743   1746   1757   1759     1  0.0000000  1.2552000  3
   1744   1743   1746   1747     1  0.0000000  1.2552000  3
   1744   1743   1746   1757     1  0.0000000  1.2552000  3
   1745   1743   1746   1747     1  0.0000000  1.2552000  3
   1745   1743   1746   1757     1  0.0000000  1.2552000  3
   1746   1747   1750   1751     1  0.0000000  0.6508444  3
   1746   1747   1750   1752     1  0.0000000  0.6508444  3
   1746   1757   1760   1761     1  0.0000000  0.6508444  3
   1746   1757   1760   1762     1  0.0000000  0.6508444  3
   1747   1746   1757   1758     1  0.0000000  1.2552000  3
   1747   1746   1757   1759     1  0.0000000  1.2552000  3
   1748   1747   1750   1753     1  0.0000000  0.6508444  3
   1748   1747   1750   1751     1  0.0000000  0.6508444  3
   1748   1747   1750   1752     1  0.0000000  0.6508444  3
   1748   1747   1746   1757     1  0.0000000  1.2552000  3
   1749   1747   1750   1753     1  0.0000000  0.6508444  3
   1749   1747   1750   1751     1  0.0000000  0.6508444  3
   1749   1747   1750   1752     1  0.0000000  0.6508444  3
   1749   1747   1746   1757     1  0.0000000  1.2552000  3
   1750   1753   1755   1756     1  180.0000771  9.6232000  2
   1751   1750   1753   1754     1  0.0000000  3.3472000  1
   1751   1750   1753   1754     1  0.0000000  0.0000000  2
   1751   1750   1753   1754     1  180.0000771  0.3347200  3
   1751   1750   1753   1755     1  180.0000771  0.0000000  2
   1752   1750   1753   1754     1  0.0000000  3.3472000  1
   1752   1750   1753   1754     1  0.0000000  0.0000000  2
   1752   1750   1753   1754     1  180.0000771  0.3347200  3
   1752   1750   1753   1755     1  180.0000771  0.0000000  2
   1754   1753   1755   1756     1  0.0000000  7.9496000  1
   1754   1753   1755   1756     1  180.0000771  9.6232000  2
   1758   1757   1760   1763     1  0.0000000  0.6508444  3
   1758   1757   1760   1761     1  0.0000000  0.6508444  3
   1758   1757   1760   1762     1  0.0000000  0.6508444  3
   1759   1757   1760   1763     1  0.0000000  0.6508444  3
   1759   1757   1760   1761     1  0.0000000  0.6508444  3
   1759   1757   1760   1762     1  0.0000000  0.6508444  3
   1760   1763   1765   1766     1  180.0000771  9.6232000  2
   1761   1760   1763   1764     1  0.0000000  3.3472000  1
   1761   1760   1763   1764     1  0.0000000  0.0000000  2
   1761   1760   1763   1764     1  180.0000771  0.3347200  3
   1761   1760   1763   1765     1  180.0000771  0.0000000  2
   1762   1760   1763   1764     1  0.0000000  3.3472000  1
   1762   1760   1763   1764     1  0.0000000  0.0000000  2
   1762   1760   1763   1764     1  180.0000771  0.3347200  3
   1762   1760   1763   1765     1  180.0000771  0.0000000  2
   1764   1763   1765   1766     1  0.0000000  7.9496000  1
   1764   1763   1765   1766     1  180.0000771  9.6232000  2
   1768   1771   1774   1775     1  0.0000000  0.6508444  3
   1768   1771   1774   1776     1  0.0000000  0.6508444  3
   1769   1768   1771   1774     1  0.0000000  0.6508444  3
   1769   1768   1771   1772     1  0.0000000  0.6508444  3
   1769   1768   1771   1773     1  0.0000000  0.6508444  3
   1770   1768   1771   1774     1  0.0000000  0.6508444  3
   1770   1768   1771   1772     1  0.0000000  0.6508444  3
   1770   1768   1771   1773     1  0.0000000  0.6508444  3
   1772   1771   1768   1798     1  0.0000000  1.0460000  1
   1772   1771   1768   1798     1  0.0000000  0.0000000  3
   1772   1771   1774   1777     1  0.0000000  0.6508444  3
   1772   1771   1774   1775     1  0.0000000  0.6508444  3
   1772   1771   1774   1776     1  0.0000000  0.6508444  3
   1773   1771   1768   1798     1  0.0000000  1.0460000  1
   1773   1771   1768   1798     1  0.0000000  0.0000000  3
   1773   1771   1774   1777     1  0.0000000  0.6508444  3
   1773   1771   1774   1775     1  0.0000000  0.6508444  3
   1773   1771   1774   1776     1  0.0000000  0.6508444  3
   1774   1777   1778   1779     1  0.0000000  1.2552000  3
   1774   1777   1778   1780     1  0.0000000  1.2552000  3
   1774   1777   1788   1789     1  0.0000000  1.2552000  3
   1774   1777   1788   1790     1  0.0000000  1.2552000  3
   1775   1774   1777   1778     1  0.0000000  1.2552000  3
   1775   1774   1777   1788     1  0.0000000  1.2552000  3
   1776   1774   1777   1778     1  0.0000000  1.2552000  3
   1776   1774   1777   1788     1  0.0000000  1.2552000  3
   1777   1778   1781   1782     1  0.0000000  0.6508444  3
   1777   1778   1781   1783     1  0.0000000  0.6508444  3
   1777   1788   1791   1792     1  0.0000000  0.6508444  3
   1777   1788   1791   1793     1  0.0000000  0.6508444  3
   1778   1777   1788   1789     1  0.0000000  1.2552000  3
   1778   1777   1788   1790     1  0.0000000  1.2552000  3
   1779   1778   1777   1788     1  0.0000000  1.2552000  3
   1779   1778   1781   1784     1  0.0000000  0.6508444  3
   1779   1778   1781   1782     1  0.0000000  0.6508444  3
   1779   1778   1781   1783     1  0.0000000  0.6508444  3
   1780   1778   1777   1788     1  0.0000000  1.2552000  3
   1780   1778   1781   1784     1  0.0000000  0.6508444  3
   1780   1778   1781   1782     1  0.0000000  0.6508444  3
   1780   1778   1781   1783     1  0.0000000  0.6508444  3
   1781   1784   1786   1787     1  180.0000771  9.6232000  2
   1782   1781   1784   1785     1  0.0000000  3.3472000  1
   1782   1781   1784   1785     1  0.0000000  0.0000000  2
   1782   1781   1784   1785     1  180.0000771  0.3347200  3
   1782   1781   1784   1786     1  180.0000771  0.0000000  2
   1783   1781   1784   1785     1  0.0000000  3.3472000  1
   1783   1781   1784   1785     1  0.0000000  0.0000000  2
   1783   1781   1784   1785     1  180.0000771  0.3347200  3
   1783   1781   1784   1786     1  180.0000771  0.0000000  2
   1785   1784   1786   1787     1  0.0000000  7.9496000  1
   1785   1784   1786   1787     1  180.0000771  9.6232000  2
   1789   1788   1791   1794     1  0.0000000  0.6508444  3
   1789   1788   1791   1792     1  0.0000000  0.6508444  3
   1789   1788   1791   1793     1  0.0000000  0.6508444  3
   1790   1788   1791   1794     1  0.0000000  0.6508444  3
   1790   1788   1791   1792     1  0.0000000  0.6508444  3
   1790   1788   1791   1793     1  0.0000000  0.6508444  3
   1791   1794   1796   1797     1  180.0000771  9.6232000  2
   1792   1791   1794   1795     1  0.0000000  3.3472000  1
   1792   1791   1794   1795     1  0.0000000  0.0000000  2
   1792   1791   1794   1795     1  180.0000771  0.3347200  3
   1792   1791   1794   1796     1  180.0000771  0.0000000  2
   1793   1791   1794   1795     1  0.0000000  3.3472000  1
   1793   1791   1794   1795     1  0.0000000  0.0000000  2
   1793   1791   1794   1795     1  180.0000771  0.3347200  3
   1793   1791   1794   1796     1  180.0000771  0.0000000  2
   1795   1794   1796   1797     1  0.0000000  7.9496000  1
   1795   1794   1796   1797     1  180.0000771  9.6232000  2
   1799   1802   1805   1806     1  0.0000000  0.6508444  3
   1799   1802   1805   1807     1  0.0000000  0.6508444  3
   1800   1799   1802   1805     1  0.0000000  0.6508444  3
   1800   1799   1802   1803     1  0.0000000  0.6508444  3
   1800   1799   1802   1804     1  0.0000000  0.6508444  3
   1801   1799   1802   1805     1  0.0000000  0.6508444  3
   1801   1799   1802   1803     1  0.0000000  0.6508444  3
   1801   1799   1802   1804     1  0.0000000  0.6508444  3
   1803   1802   1805   1808     1  0.0000000  0.6508444  3
   1803   1802   1805   1806     1  0.0000000  0.6508444  3
   1803   1802   1805   1807     1  0.0000000  0.6508444  3
   1803   1802   1799   1829     1  0.0000000  1.0460000  1
   1803   1802   1799   1829     1  0.0000000  0.0000000  3
   1804   1802   1805   1808     1  0.0000000  0.6508444  3
   1804   1802   1805   1806     1  0.0000000  0.6508444  3
   1804   1802   1805   1807     1  0.0000000  0.6508444  3
   1804   1802   1799   1829     1  0.0000000  1.0460000  1
   1804   1802   1799   1829     1  0.0000000  0.0000000  3
   1805   1808   1809   1810     1  0.0000000  1.2552000  3
   1805   1808   1809   1811     1  0.0000000  1.2552000  3
   1805   1808   1819   1820     1  0.0000000  1.2552000  3
   1805   1808   1819   1821     1  0.0000000  1.2552000  3
   1806   1805   1808   1809     1  0.0000000  1.2552000  3
   1806   1805   1808   1819     1  0.0000000  1.2552000  3
   1807   1805   1808   1809     1  0.0000000  1.2552000  3
   1807   1805   1808   1819     1  0.0000000  1.2552000  3
   1808   1809   1812   1813     1  0.0000000  0.6508444  3
   1808   1809   1812   1814     1  0.0000000  0.6508444  3
   1808   1819   1822   1823     1  0.0000000  0.6508444  3
   1808   1819   1822   1824     1  0.0000000  0.6508444  3
   1809   1808   1819   1820     1  0.0000000  1.2552000  3
   1809   1808   1819   1821     1  0.0000000  1.2552000  3
   1810   1809   1812   1815     1  0.0000000  0.6508444  3
   1810   1809   1812   1813     1  0.0000000  0.6508444  3
   1810   1809   1812   1814     1  0.0000000  0.6508444  3
   1810   1809   1808   1819     1  0.0000000  1.2552000  3
   1811   1809   1812   1815     1  0.0000000  0.6508444  3
   1811   1809   1812   1813     1  0.0000000  0.6508444  3
   1811   1809   1812   1814     1  0.0000000  0.6508444  3
   1811   1809   1808   1819     1  0.0000000  1.2552000  3
   1812   1815   1817   1818     1  180.0000771  9.6232000  2
   1813   1812   1815   1816     1  0.0000000  3.3472000  1
   1813   1812   1815   1816     1  0.0000000  0.0000000  2
   1813   1812   1815   1816     1  180.0000771  0.3347200  3
   1813   1812   1815   1817     1  180.0000771  0.0000000  2
   1814   1812   1815   1816     1  0.0000000  3.3472000  1
   1814   1812   1815   1816     1  0.0000000  0.0000000  2
   1814   1812   1815   1816     1  180.0000771  0.3347200  3
   1814   1812   1815   1817     1  180.0000771  0.0000000  2
   1816   1815   1817   1818     1  0.0000000  7.9496000  1
   1816   1815   1817   1818     1  180.0000771  9.6232000  2
   1820   1819   1822   1825     1  0.0000000  0.6508444  3
   1820   1819   1822   1823     1  0.0000000  0.6508444  3
   1820   1819   1822   1824     1  0.0000000  0.6508444  3
   1821   1819   1822   1825     1  0.0000000  0.6508444  3
   1821   1819   1822   1823     1  0.0000000  0.6508444  3
   1821   1819   1822   1824     1  0.0000000  0.6508444  3
   1822   1825   1827   1828     1  180.0000771  9.6232000  2
   1823   1822   1825   1826     1  0.0000000  3.3472000  1
   1823   1822   1825   1826     1  0.0000000  0.0000000  2
   1823   1822   1825   1826     1  180.0000771  0.3347200  3
   1823   1822   1825   1827     1  180.0000771  0.0000000  2
   1824   1822   1825   1826     1  0.0000000  3.3472000  1
   1824   1822   1825   1826     1  0.0000000  0.0000000  2
   1824   1822   1825   1826     1  180.0000771  0.3347200  3
   1824   1822   1825   1827     1  180.0000771  0.0000000  2
   1826   1825   1827   1828     1  0.0000000  7.9496000  1
   1826   1825   1827   1828     1  180.0000771  9.6232000  2
   1830   1833   1836   1837     1  0.0000000  0.6508444  3
   1830   1833   1836   1838     1  0.0000000  0.6508444  3
   1831   1830   1833   1836     1  0.0000000  0.6508444  3
   1831   1830   1833   1834     1  0.0000000  0.6508444  3
   1831   1830   1833   1835     1  0.0000000  0.6508444  3
   1832   1830   1833   1836     1  0.0000000  0.6508444  3
   1832   1830   1833   1834     1  0.0000000  0.6508444  3
   1832   1830   1833   1835     1  0.0000000  0.6508444  3
   1834   1833   1830   1860     1  0.0000000  1.0460000  1
   1834   1833   1830   1860     1  0.0000000  0.0000000  3
   1834   1833   1836   1839     1  0.0000000  0.6508444  3
   1834   1833   1836   1837     1  0.0000000  0.6508444  3
   1834   1833   1836   1838     1  0.0000000  0.6508444  3
   1835   1833   1830   1860     1  0.0000000  1.0460000  1
   1835   1833   1830   1860     1  0.0000000  0.0000000  3
   1835   1833   1836   1839     1  0.0000000  0.6508444  3
   1835   1833   1836   1837     1  0.0000000  0.6508444  3
   1835   1833   1836   1838     1  0.0000000  0.6508444  3
   1836   1839   1840   1841     1  0.0000000  1.2552000  3
   1836   1839   1840   1842     1  0.0000000  1.2552000  3
   1836   1839   1850   1851     1  0.0000000  1.2552000  3
   1836   1839   1850   1852     1  0.0000000  1.2552000  3
   1837   1836   1839   1840     1  0.0000000  1.2552000  3
   1837   1836   1839   1850     1  0.0000000  1.2552000  3
   1838   1836   1839   1840     1  0.0000000  1.2552000  3
   1838   1836   1839   1850     1  0.0000000  1.2552000  3
   1839   1840   1843   1844     1  0.0000000  0.6508444  3
   1839   1840   1843   1845     1  0.0000000  0.6508444  3
   1839   1850   1853   1854     1  0.0000000  0.6508444  3
   1839   1850   1853   1855     1  0.0000000  0.6508444  3
   1840   1839   1850   1851     1  0.0000000  1.2552000  3
   1840   1839   1850   1852     1  0.0000000  1.2552000  3
   1841   1840   1839   1850     1  0.0000000  1.2552000  3
   1841   1840   1843   1846     1  0.0000000  0.6508444  3
   1841   1840   1843   1844     1  0.0000000  0.6508444  3
   1841   1840   1843   1845     1  0.0000000  0.6508444  3
   1842   1840   1839   1850     1  0.0000000  1.2552000  3
   1842   1840   1843   1846     1  0.0000000  0.6508444  3
   1842   1840   1843   1844     1  0.0000000  0.6508444  3
   1842   1840   1843   1845     1  0.0000000  0.6508444  3
   1843   1846   1848   1849     1  180.0000771  9.6232000  2
   1844   1843   1846   1847     1  0.0000000  3.3472000  1
   1844   1843   1846   1847     1  0.0000000  0.0000000  2
   1844   1843   1846   1847     1  180.0000771  0.3347200  3
   1844   1843   1846   1848     1  180.0000771  0.0000000  2
   1845   1843   1846   1847     1  0.0000000  3.3472000  1
   1845   1843   1846   1847     1  0.0000000  0.0000000  2
   1845   1843   1846   1847     1  180.0000771  0.3347200  3
   1845   1843   1846   1848     1  180.0000771  0.0000000  2
   1847   1846   1848   1849     1  0.0000000  7.9496000  1
   1847   1846   1848   1849     1  180.0000771  9.6232000  2
   1851   1850   1853   1856     1  0.0000000  0.6508444  3
   1851   1850   1853   1854     1  0.0000000  0.6508444  3
   1851   1850   1853   1855     1  0.0000000  0.6508444  3
   1852   1850   1853   1856     1  0.0000000  0.6508444  3
   1852   1850   1853   1854     1  0.0000000  0.6508444  3
   1852   1850   1853   1855     1  0.0000000  0.6508444  3
   1853   1856   1858   1859     1  180.0000771  9.6232000  2
   1854   1853   1856   1857     1  0.0000000  3.3472000  1
   1854   1853   1856   1857     1  0.0000000  0.0000000  2
   1854   1853   1856   1857     1  180.0000771  0.3347200  3
   1854   1853   1856   1858     1  180.0000771  0.0000000  2
   1855   1853   1856   1857     1  0.0000000  3.3472000  1
   1855   1853   1856   1857     1  0.0000000  0.0000000  2
   1855   1853   1856   1857     1  180.0000771  0.3347200  3
   1855   1853   1856   1858     1  180.0000771  0.0000000  2
   1857   1856   1858   1859     1  0.0000000  7.9496000  1
   1857   1856   1858   1859     1  180.0000771  9.6232000  2
   1861   1864   1867   1868     1  0.0000000  0.6508444  3
   1861   1864   1867   1869     1  0.0000000  0.6508444  3
   1862   1861   1864   1867     1  0.0000000  0.6508444  3
   1862   1861   1864   1865     1  0.0000000  0.6508444  3
   1862   1861   1864   1866     1  0.0000000  0.6508444  3
   1863   1861   1864   1867     1  0.0000000  0.6508444  3
   1863   1861   1864   1865     1  0.0000000  0.6508444  3
   1863   1861   1864   1866     1  0.0000000  0.6508444  3
   1865   1864   1867   1870     1  0.0000000  0.6508444  3
   1865   1864   1867   1868     1  0.0000000  0.6508444  3
   1865   1864   1867   1869     1  0.0000000  0.6508444  3
   1865   1864   1861   1891     1  0.0000000  1.0460000  1
   1865   1864   1861   1891     1  0.0000000  0.0000000  3
   1866   1864   1867   1870     1  0.0000000  0.6508444  3
   1866   1864   1867   1868     1  0.0000000  0.6508444  3
   1866   1864   1867   1869     1  0.0000000  0.6508444  3
   1866   1864   1861   1891     1  0.0000000  1.0460000  1
   1866   1864   1861   1891     1  0.0000000  0.0000000  3
   1867   1870   1871   1872     1  0.0000000  1.2552000  3
   1867   1870   1871   1873     1  0.0000000  1.2552000  3
   1867   1870   1881   1882     1  0.0000000  1.2552000  3
   1867   1870   1881   1883     1  0.0000000  1.2552000  3
   1868   1867   1870   1871     1  0.0000000  1.2552000  3
   1868   1867   1870   1881     1  0.0000000  1.2552000  3
   1869   1867   1870   1871     1  0.0000000  1.2552000  3
   1869   1867   1870   1881     1  0.0000000  1.2552000  3
   1870   1871   1874   1875     1  0.0000000  0.6508444  3
   1870   1871   1874   1876     1  0.0000000  0.6508444  3
   1870   1881   1884   1885     1  0.0000000  0.6508444  3
   1870   1881   1884   1886     1  0.0000000  0.6508444  3
   1871   1870   1881   1882     1  0.0000000  1.2552000  3
   1871   1870   1881   1883     1  0.0000000  1.2552000  3
   1872   1871   1874   1877     1  0.0000000  0.6508444  3
   1872   1871   1874   1875     1  0.0000000  0.6508444  3
   1872   1871   1874   1876     1  0.0000000  0.6508444  3
   1872   1871   1870   1881     1  0.0000000  1.2552000  3
   1873   1871   1874   1877     1  0.0000000  0.6508444  3
   1873   1871   1874   1875     1  0.0000000  0.6508444  3
   1873   1871   1874   1876     1  0.0000000  0.6508444  3
   1873   1871   1870   1881     1  0.0000000  1.2552000  3
   1874   1877   1879   1880     1  180.0000771  9.6232000  2
   1875   1874   1877   1878     1  0.0000000  3.3472000  1
   1875   1874   1877   1878     1  0.0000000  0.0000000  2
   1875   1874   1877   1878     1  180.0000771  0.3347200  3
   1875   1874   1877   1879     1  180.0000771  0.0000000  2
   1876   1874   1877   1878     1  0.0000000  3.3472000  1
   1876   1874   1877   1878     1  0.0000000  0.0000000  2
   1876   1874   1877   1878     1  180.0000771  0.3347200  3
   1876   1874   1877   1879     1  180.0000771  0.0000000  2
   1878   1877   1879   1880     1  0.0000000  7.9496000  1
   1878   1877   1879   1880     1  180.0000771  9.6232000  2
   1882   1881   1884   1887     1  0.0000000  0.6508444  3
   1882   1881   1884   1885     1  0.0000000  0.6508444  3
   1882   1881   1884   1886     1  0.0000000  0.6508444  3
   1883   1881   1884   1887     1  0.0000000  0.6508444  3
   1883   1881   1884   1885     1  0.0000000  0.6508444  3
   1883   1881   1884   1886     1  0.0000000  0.6508444  3
   1884   1887   1889   1890     1  180.0000771  9.6232000  2
   1885   1884   1887   1888     1  0.0000000  3.3472000  1
   1885   1884   1887   1888     1  0.0000000  0.0000000  2
   1885   1884   1887   1888     1  180.0000771  0.3347200  3
   1885   1884   1887   1889     1  180.0000771  0.0000000  2
   1886   1884   1887   1888     1  0.0000000  3.3472000  1
   1886   1884   1887   1888     1  0.0000000  0.0000000  2
   1886   1884   1887   1888     1  180.0000771  0.3347200  3
   1886   1884   1887   1889     1  180.0000771  0.0000000  2
   1888   1887   1889   1890     1  0.0000000  7.9496000  1
   1888   1887   1889   1890     1  180.0000771  9.6232000  2
   1892   1895   1898   1899     1  0.0000000  0.6508444  3
   1892   1895   1898   1900     1  0.0000000  0.6508444  3
   1893   1892   1895   1898     1  0.0000000  0.6508444  3
   1893   1892   1895   1896     1  0.0000000  0.6508444  3
   1893   1892   1895   1897     1  0.0000000  0.6508444  3
   1894   1892   1895   1898     1  0.0000000  0.6508444  3
   1894   1892   1895   1896     1  0.0000000  0.6508444  3
   1894   1892   1895   1897     1  0.0000000  0.6508444  3
   1896   1895   1892   1922     1  0.0000000  1.0460000  1
   1896   1895   1892   1922     1  0.0000000  0.0000000  3
   1896   1895   1898   1901     1  0.0000000  0.6508444  3
   1896   1895   1898   1899     1  0.0000000  0.6508444  3
   1896   1895   1898   1900     1  0.0000000  0.6508444  3
   1897   1895   1892   1922     1  0.0000000  1.0460000  1
   1897   1895   1892   1922     1  0.0000000  0.0000000  3
   1897   1895   1898   1901     1  0.0000000  0.6508444  3
   1897   1895   1898   1899     1  0.0000000  0.6508444  3
   1897   1895   1898   1900     1  0.0000000  0.6508444  3
   1898   1901   1902   1903     1  0.0000000  1.2552000  3
   1898   1901   1902   1904     1  0.0000000  1.2552000  3
   1898   1901   1912   1913     1  0.0000000  1.2552000  3
   1898   1901   1912   1914     1  0.0000000  1.2552000  3
   1899   1898   1901   1902     1  0.0000000  1.2552000  3
   1899   1898   1901   1912     1  0.0000000  1.2552000  3
   1900   1898   1901   1902     1  0.0000000  1.2552000  3
   1900   1898   1901   1912     1  0.0000000  1.2552000  3
   1901   1902   1905   1906     1  0.0000000  0.6508444  3
   1901   1902   1905   1907     1  0.0000000  0.6508444  3
   1901   1912   1915   1916     1  0.0000000  0.6508444  3
   1901   1912   1915   1917     1  0.0000000  0.6508444  3
   1902   1901   1912   1913     1  0.0000000  1.2552000  3
   1902   1901   1912   1914     1  0.0000000  1.2552000  3
   1903   1902   1901   1912     1  0.0000000  1.2552000  3
   1903   1902   1905   1908     1  0.0000000  0.6508444  3
   1903   1902   1905   1906     1  0.0000000  0.6508444  3
   1903   1902   1905   1907     1  0.0000000  0.6508444  3
   1904   1902   1901   1912     1  0.0000000  1.2552000  3
   1904   1902   1905   1908     1  0.0000000  0.6508444  3
   1904   1902   1905   1906     1  0.0000000  0.6508444  3
   1904   1902   1905   1907     1  0.0000000  0.6508444  3
   1905   1908   1910   1911     1  180.0000771  9.6232000  2
   1906   1905   1908   1909     1  0.0000000  3.3472000  1
   1906   1905   1908   1909     1  0.0000000  0.0000000  2
   1906   1905   1908   1909     1  180.0000771  0.3347200  3
   1906   1905   1908   1910     1  180.0000771  0.0000000  2
   1907   1905   1908   1909     1  0.0000000  3.3472000  1
   1907   1905   1908   1909     1  0.0000000  0.0000000  2
   1907   1905   1908   1909     1  180.0000771  0.3347200  3
   1907   1905   1908   1910     1  180.0000771  0.0000000  2
   1909   1908   1910   1911     1  0.0000000  7.9496000  1
   1909   1908   1910   1911     1  180.0000771  9.6232000  2
   1913   1912   1915   1918     1  0.0000000  0.6508444  3
   1913   1912   1915   1916     1  0.0000000  0.6508444  3
   1913   1912   1915   1917     1  0.0000000  0.6508444  3
   1914   1912   1915   1918     1  0.0000000  0.6508444  3
   1914   1912   1915   1916     1  0.0000000  0.6508444  3
   1914   1912   1915   1917     1  0.0000000  0.6508444  3
   1915   1918   1920   1921     1  180.0000771  9.6232000  2
   1916   1915   1918   1919     1  0.0000000  3.3472000  1
   1916   1915   1918   1919     1  0.0000000  0.0000000  2
   1916   1915   1918   1919     1  180.0000771  0.3347200  3
   1916   1915   1918   1920     1  180.0000771  0.0000000  2
   1917   1915   1918   1919     1  0.0000000  3.3472000  1
   1917   1915   1918   1919     1  0.0000000  0.0000000  2
   1917   1915   1918   1919     1  180.0000771  0.3347200  3
   1917   1915   1918   1920     1  180.0000771  0.0000000  2
   1919   1918   1920   1921     1  0.0000000  7.9496000  1
   1919   1918   1920   1921     1  180.0000771  9.6232000  2
   1923   1926   1929   1930     1  0.0000000  0.6508444  3
   1923   1926   1929   1931     1  0.0000000  0.6508444  3
   1924   1923   1926   1929     1  0.0000000  0.6508444  3
   1924   1923   1926   1927     1  0.0000000  0.6508444  3
   1924   1923   1926   1928     1  0.0000000  0.6508444  3
   1925   1923   1926   1929     1  0.0000000  0.6508444  3
   1925   1923   1926   1927     1  0.0000000  0.6508444  3
   1925   1923   1926   1928     1  0.0000000  0.6508444  3
   1927   1926   1929   1932     1  0.0000000  0.6508444  3
   1927   1926   1929   1930     1  0.0000000  0.6508444  3
   1927   1926   1929   1931     1  0.0000000  0.6508444  3
   1927   1926   1923   1953     1  0.0000000  1.0460000  1
   1927   1926   1923   1953     1  0.0000000  0.0000000  3
   1928   1926   1929   1932     1  0.0000000  0.6508444  3
   1928   1926   1929   1930     1  0.0000000  0.6508444  3
   1928   1926   1929   1931     1  0.0000000  0.6508444  3
   1928   1926   1923   1953     1  0.0000000  1.0460000  1
   1928   1926   1923   1953     1  0.0000000  0.0000000  3
   1929   1932   1933   1934     1  0.0000000  1.2552000  3
   1929   1932   1933   1935     1  0.0000000  1.2552000  3
   1929   1932   1943   1944     1  0.0000000  1.2552000  3
   1929   1932   1943   1945     1  0.0000000  1.2552000  3
   1930   1929   1932   1933     1  0.0000000  1.2552000  3
   1930   1929   1932   1943     1  0.0000000  1.2552000  3
   1931   1929   1932   1933     1  0.0000000  1.2552000  3
   1931   1929   1932   1943     1  0.0000000  1.2552000  3
   1932   1933   1936   1937     1  0.0000000  0.6508444  3
   1932   1933   1936   1938     1  0.0000000  0.6508444  3
   1932   1943   1946   1947     1  0.0000000  0.6508444  3
   1932   1943   1946   1948     1  0.0000000  0.6508444  3
   1933   1932   1943   1944     1  0.0000000  1.2552000  3
   1933   1932   1943   1945     1  0.0000000  1.2552000  3
   1934   1933   1936   1939     1  0.0000000  0.6508444  3
   1934   1933   1936   1937     1  0.0000000  0.6508444  3
   1934   1933   1936   1938     1  0.0000000  0.6508444  3
   1934   1933   1932   1943     1  0.0000000  1.2552000  3
   1935   1933   1936   1939     1  0.0000000  0.6508444  3
   1935   1933   1936   1937     1  0.0000000  0.6508444  3
   1935   1933   1936   1938     1  0.0000000  0.6508444  3
   1935   1933   1932   1943     1  0.0000000  1.2552000  3
   1936   1939   1941   1942     1  180.0000771  9.6232000  2
   1937   1936   1939   1940     1  0.0000000  3.3472000  1
   1937   1936   1939   1940     1  0.0000000  0.0000000  2
   1937   1936   1939   1940     1  180.0000771  0.3347200  3
   1937   1936   1939   1941     1  180.0000771  0.0000000  2
   1938   1936   1939   1940     1  0.0000000  3.3472000  1
   1938   1936   1939   1940     1  0.0000000  0.0000000  2
   1938   1936   1939   1940     1  180.0000771  0.3347200  3
   1938   1936   1939   1941     1  180.0000771  0.0000000  2
   1940   1939   1941   1942     1  0.0000000  7.9496000  1
   1940   1939   1941   1942     1  180.0000771  9.6232000  2
   1944   1943   1946   1949     1  0.0000000  0.6508444  3
   1944   1943   1946   1947     1  0.0000000  0.6508444  3
   1944   1943   1946   1948     1  0.0000000  0.6508444  3
   1945   1943   1946   1949     1  0.0000000  0.6508444  3
   1945   1943   1946   1947     1  0.0000000  0.6508444  3
   1945   1943   1946   1948     1  0.0000000  0.6508444  3
   1946   1949   1951   1952     1  180.0000771  9.6232000  2
   1947   1946   1949   1950     1  0.0000000  3.3472000  1
   1947   1946   1949   1950     1  0.0000000  0.0000000  2
   1947   1946   1949   1950     1  180.0000771  0.3347200  3
   1947   1946   1949   1951     1  180.0000771  0.0000000  2
   1948   1946   1949   1950     1  0.0000000  3.3472000  1
   1948   1946   1949   1950     1  0.0000000  0.0000000  2
   1948   1946   1949   1950     1  180.0000771  0.3347200  3
   1948   1946   1949   1951     1  180.0000771  0.0000000  2
   1950   1949   1951   1952     1  0.0000000  7.9496000  1
   1950   1949   1951   1952     1  180.0000771  9.6232000  2
   1954   1957   1960   1961     1  0.0000000  0.6508444  3
   1954   1957   1960   1962     1  0.0000000  0.6508444  3
   1955   1954   1957   1960     1  0.0000000  0.6508444  3
   1955   1954   1957   1958     1  0.0000000  0.6508444  3
   1955   1954   1957   1959     1  0.0000000  0.6508444  3
   1956   1954   1957   1960     1  0.0000000  0.6508444  3
   1956   1954   1957   1958     1  0.0000000  0.6508444  3
   1956   1954   1957   1959     1  0.0000000  0.6508444  3
   1958   1957   1954   1984     1  0.0000000  1.0460000  1
   1958   1957   1954   1984     1  0.0000000  0.0000000  3
   1958   1957   1960   1963     1  0.0000000  0.6508444  3
   1958   1957   1960   1961     1  0.0000000  0.6508444  3
   1958   1957   1960   1962     1  0.0000000  0.6508444  3
   1959   1957   1954   1984     1  0.0000000  1.0460000  1
   1959   1957   1954   1984     1  0.0000000  0.0000000  3
   1959   1957   1960   1963     1  0.0000000  0.6508444  3
   1959   1957   1960   1961     1  0.0000000  0.6508444  3
   1959   1957   1960   1962     1  0.0000000  0.6508444  3
   1960   1963   1964   1965     1  0.0000000  1.2552000  3
   1960   1963   1964   1966     1  0.0000000  1.2552000  3
   1960   1963   1974   1975     1  0.0000000  1.2552000  3
   1960   1963   1974   1976     1  0.0000000  1.2552000  3
   1961   1960   1963   1964     1  0.0000000  1.2552000  3
   1961   1960   1963   1974     1  0.0000000  1.2552000  3
   1962   1960   1963   1964     1  0.0000000  1.2552000  3
   1962   1960   1963   1974     1  0.0000000  1.2552000  3
   1963   1964   1967   1968     1  0.0000000  0.6508444  3
   1963   1964   1967   1969     1  0.0000000  0.6508444  3
   1963   1974   1977   1978     1  0.0000000  0.6508444  3
   1963   1974   1977   1979     1  0.0000000  0.6508444  3
   1964   1963   1974   1975     1  0.0000000  1.2552000  3
   1964   1963   1974   1976     1  0.0000000  1.2552000  3
   1965   1964   1963   1974     1  0.0000000  1.2552000  3
   1965   1964   1967   1970     1  0.0000000  0.6508444  3
   1965   1964   1967   1968     1  0.0000000  0.6508444  3
   1965   1964   1967   1969     1  0.0000000  0.6508444  3
   1966   1964   1963   1974     1  0.0000000  1.2552000  3
   1966   1964   1967   1970     1  0.0000000  0.6508444  3
   1966   1964   1967   1968     1  0.0000000  0.6508444  3
   1966   1964   1967   1969     1  0.0000000  0.6508444  3
   1967   1970   1972   1973     1  180.0000771  9.6232000  2
   1968   1967   1970   1971     1  0.0000000  3.3472000  1
   1968   1967   1970   1971     1  0.0000000  0.0000000  2
   1968   1967   1970   1971     1  180.0000771  0.3347200  3
   1968   1967   1970   1972     1  180.0000771  0.0000000  2
   1969   1967   1970   1971     1  0.0000000  3.3472000  1
   1969   1967   1970   1971     1  0.0000000  0.0000000  2
   1969   1967   1970   1971     1  180.0000771  0.3347200  3
   1969   1967   1970   1972     1  180.0000771  0.0000000  2
   1971   1970   1972   1973     1  0.0000000  7.9496000  1
   1971   1970   1972   1973     1  180.0000771  9.6232000  2
   1975   1974   1977   1980     1  0.0000000  0.6508444  3
   1975   1974   1977   1978     1  0.0000000  0.6508444  3
   1975   1974   1977   1979     1  0.0000000  0.6508444  3
   1976   1974   1977   1980     1  0.0000000  0.6508444  3
   1976   1974   1977   1978     1  0.0000000  0.6508444  3
   1976   1974   1977   1979     1  0.0000000  0.6508444  3
   1977   1980   1982   1983     1  180.0000771  9.6232000  2
   1978   1977   1980   1981     1  0.0000000  3.3472000  1
   1978   1977   1980   1981     1  0.0000000  0.0000000  2
   1978   1977   1980   1981     1  180.0000771  0.3347200  3
   1978   1977   1980   1982     1  180.0000771  0.0000000  2
   1979   1977   1980   1981     1  0.0000000  3.3472000  1
   1979   1977   1980   1981     1  0.0000000  0.0000000  2
   1979   1977   1980   1981     1  180.0000771  0.3347200  3
   1979   1977   1980   1982     1  180.0000771  0.0000000  2
   1981   1980   1982   1983     1  0.0000000  7.9496000  1
   1981   1980   1982   1983     1  180.0000771  9.6232000  2
   1985   1988   1991   1992     1  0.0000000  0.6508444  3
   1985   1988   1991   1993     1  0.0000000  0.6508444  3
   1986   1985   1988   1991     1  0.0000000  0.6508444  3
   1986   1985   1988   1989     1  0.0000000  0.6508444  3
   1986   1985   1988   1990     1  0.0000000  0.6508444  3
   1987   1985   1988   1991     1  0.0000000  0.6508444  3
   1987   1985   1988   1989     1  0.0000000  0.6508444  3
   1987   1985   1988   1990     1  0.0000000  0.6508444  3
   1989   1988   1991   1994     1  0.0000000  0.6508444  3
   1989   1988   1991   1992     1  0.0000000  0.6508444  3
   1989   1988   1991   1993     1  0.0000000  0.6508444  3
   1989   1988   1985   2015     1  0.0000000  1.0460000  1
   1989   1988   1985   2015     1  0.0000000  0.0000000  3
   1990   1988   1991   1994     1  0.0000000  0.6508444  3
   1990   1988   1991   1992     1  0.0000000  0.6508444  3
   1990   1988   1991   1993     1  0.0000000  0.6508444  3
   1990   1988   1985   2015     1  0.0000000  1.0460000  1
   1990   1988   1985   2015     1  0.0000000  0.0000000  3
   1991   1994   1995   1996     1  0.0000000  1.2552000  3
   1991   1994   1995   1997     1  0.0000000  1.2552000  3
   1991   1994   2005   2006     1  0.0000000  1.2552000  3
   1991   1994   2005   2007     1  0.0000000  1.2552000  3
   1992   1991   1994   1995     1  0.0000000  1.2552000  3
   1992   1991   1994   2005     1  0.0000000  1.2552000  3
   1993   1991   1994   1995     1  0.0000000  1.2552000  3
   1993   1991   1994   2005     1  0.0000000  1.2552000  3
   1994   1995   1998   1999     1  0.0000000  0.6508444  3
   1994   1995   1998   2000     1  0.0000000  0.6508444  3
   1994   2005   2008   2009     1  0.0000000  0.6508444  3
   1994   2005   2008   2010     1  0.0000000  0.6508444  3
   1995   1994   2005   2006     1  0.0000000  1.2552000  3
   1995   1994   2005   2007     1  0.0000000  1.2552000  3
   1996   1995   1998   2001     1  0.0000000  0.6508444  3
   1996   1995   1998   1999     1  0.0000000  0.6508444  3
   1996   1995   1998   2000     1  0.0000000  0.6508444  3
   1996   1995   1994   2005     1  0.0000000  1.2552000  3
   1997   1995   1998   2001     1  0.0000000  0.6508444  3
   1997   1995   1998   1999     1  0.0000000  0.6508444  3
   1997   1995   1998   2000     1  0.0000000  0.6508444  3
   1997   1995   1994   2005     1  0.0000000  1.2552000  3
   1998   2001   2003   2004     1  180.0000771  9.6232000  2
   1999   1998   2001   2002     1  0.0000000  3.3472000  1
   1999   1998   2001   2002     1  0.0000000  0.0000000  2
   1999   1998   2001   2002     1  180.0000771  0.3347200  3
   1999   1998   2001   2003     1  180.0000771  0.0000000  2
   2000   1998   2001   2002     1  0.0000000  3.3472000  1
   2000   1998   2001   2002     1  0.0000000  0.0000000  2
   2000   1998   2001   2002     1  180.0000771  0.3347200  3
   2000   1998   2001   2003     1  180.0000771  0.0000000  2
   2002   2001   2003   2004     1  0.0000000  7.9496000  1
   2002   2001   2003   2004     1  180.0000771  9.6232000  2
   2006   2005   2008   2011     1  0.0000000  0.6508444  3
   2006   2005   2008   2009     1  0.0000000  0.6508444  3
   2006   2005   2008   2010     1  0.0000000  0.6508444  3
   2007   2005   2008   2011     1  0.0000000  0.6508444  3
   2007   2005   2008   2009     1  0.0000000  0.6508444  3
   2007   2005   2008   2010     1  0.0000000  0.6508444  3
   2008   2011   2013   2014     1  180.0000771  9.6232000  2
   2009   2008   2011   2012     1  0.0000000  3.3472000  1
   2009   2008   2011   2012     1  0.0000000  0.0000000  2
   2009   2008   2011   2012     1  180.0000771  0.3347200  3
   2009   2008   2011   2013     1  180.0000771  0.0000000  2
   2010   2008   2011   2012     1  0.0000000  3.3472000  1
   2010   2008   2011   2012     1  0.0000000  0.0000000  2
   2010   2008   2011   2012     1  180.0000771  0.3347200  3
   2010   2008   2011   2013     1  180.0000771  0.0000000  2
   2012   2011   2013   2014     1  0.0000000  7.9496000  1
   2012   2011   2013   2014     1  180.0000771  9.6232000  2
   2016   2019   2022   2023     1  0.0000000  0.6508444  3
   2016   2019   2022   2024     1  0.0000000  0.6508444  3
   2017   2016   2019   2022     1  0.0000000  0.6508444  3
   2017   2016   2019   2020     1  0.0000000  0.6508444  3
   2017   2016   2019   2021     1  0.0000000  0.6508444  3
   2018   2016   2019   2022     1  0.0000000  0.6508444  3
   2018   2016   2019   2020     1  0.0000000  0.6508444  3
   2018   2016   2019   2021     1  0.0000000  0.6508444  3
   2020   2019   2016   2046     1  0.0000000  1.0460000  1
   2020   2019   2016   2046     1  0.0000000  0.0000000  3
   2020   2019   2022   2025     1  0.0000000  0.6508444  3
   2020   2019   2022   2023     1  0.0000000  0.6508444  3
   2020   2019   2022   2024     1  0.0000000  0.6508444  3
   2021   2019   2016   2046     1  0.0000000  1.0460000  1
   2021   2019   2016   2046     1  0.0000000  0.0000000  3
   2021   2019   2022   2025     1  0.0000000  0.6508444  3
   2021   2019   2022   2023     1  0.0000000  0.6508444  3
   2021   2019   2022   2024     1  0.0000000  0.6508444  3
   2022   2025   2026   2027     1  0.0000000  1.2552000  3
   2022   2025   2026   2028     1  0.0000000  1.2552000  3
   2022   2025   2036   2037     1  0.0000000  1.2552000  3
   2022   2025   2036   2038     1  0.0000000  1.2552000  3
   2023   2022   2025   2026     1  0.0000000  1.2552000  3
   2023   2022   2025   2036     1  0.0000000  1.2552000  3
   2024   2022   2025   2026     1  0.0000000  1.2552000  3
   2024   2022   2025   2036     1  0.0000000  1.2552000  3
   2025   2026   2029   2030     1  0.0000000  0.6508444  3
   2025   2026   2029   2031     1  0.0000000  0.6508444  3
   2025   2036   2039   2040     1  0.0000000  0.6508444  3
   2025   2036   2039   2041     1  0.0000000  0.6508444  3
   2026   2025   2036   2037     1  0.0000000  1.2552000  3
   2026   2025   2036   2038     1  0.0000000  1.2552000  3
   2027   2026   2025   2036     1  0.0000000  1.2552000  3
   2027   2026   2029   2032     1  0.0000000  0.6508444  3
   2027   2026   2029   2030     1  0.0000000  0.6508444  3
   2027   2026   2029   2031     1  0.0000000  0.6508444  3
   2028   2026   2025   2036     1  0.0000000  1.2552000  3
   2028   2026   2029   2032     1  0.0000000  0.6508444  3
   2028   2026   2029   2030     1  0.0000000  0.6508444  3
   2028   2026   2029   2031     1  0.0000000  0.6508444  3
   2029   2032   2034   2035     1  180.0000771  9.6232000  2
   2030   2029   2032   2033     1  0.0000000  3.3472000  1
   2030   2029   2032   2033     1  0.0000000  0.0000000  2
   2030   2029   2032   2033     1  180.0000771  0.3347200  3
   2030   2029   2032   2034     1  180.0000771  0.0000000  2
   2031   2029   2032   2033     1  0.0000000  3.3472000  1
   2031   2029   2032   2033     1  0.0000000  0.0000000  2
   2031   2029   2032   2033     1  180.0000771  0.3347200  3
   2031   2029   2032   2034     1  180.0000771  0.0000000  2
   2033   2032   2034   2035     1  0.0000000  7.9496000  1
   2033   2032   2034   2035     1  180.0000771  9.6232000  2
   2037   2036   2039   2042     1  0.0000000  0.6508444  3
   2037   2036   2039   2040     1  0.0000000  0.6508444  3
   2037   2036   2039   2041     1  0.0000000  0.6508444  3
   2038   2036   2039   2042     1  0.0000000  0.6508444  3
   2038   2036   2039   2040     1  0.0000000  0.6508444  3
   2038   2036   2039   2041     1  0.0000000  0.6508444  3
   2039   2042   2044   2045     1  180.0000771  9.6232000  2
   2040   2039   2042   2043     1  0.0000000  3.3472000  1
   2040   2039   2042   2043     1  0.0000000  0.0000000  2
   2040   2039   2042   2043     1  180.0000771  0.3347200  3
   2040   2039   2042   2044     1  180.0000771  0.0000000  2
   2041   2039   2042   2043     1  0.0000000  3.3472000  1
   2041   2039   2042   2043     1  0.0000000  0.0000000  2
   2041   2039   2042   2043     1  180.0000771  0.3347200  3
   2041   2039   2042   2044     1  180.0000771  0.0000000  2
   2043   2042   2044   2045     1  0.0000000  7.9496000  1
   2043   2042   2044   2045     1  180.0000771  9.6232000  2
   2047   2050   2053   2054     1  0.0000000  0.6508444  3
   2047   2050   2053   2055     1  0.0000000  0.6508444  3
   2048   2047   2050   2053     1  0.0000000  0.6508444  3
   2048   2047   2050   2051     1  0.0000000  0.6508444  3
   2048   2047   2050   2052     1  0.0000000  0.6508444  3
   2049   2047   2050   2053     1  0.0000000  0.6508444  3
   2049   2047   2050   2051     1  0.0000000  0.6508444  3
   2049   2047   2050   2052     1  0.0000000  0.6508444  3
   2051   2050   2053   2056     1  0.0000000  0.6508444  3
   2051   2050   2053   2054     1  0.0000000  0.6508444  3
   2051   2050   2053   2055     1  0.0000000  0.6508444  3
   2051   2050   2047   2077     1  0.0000000  1.0460000  1
   2051   2050   2047   2077     1  0.0000000  0.0000000  3
   2052   2050   2053   2056     1  0.0000000  0.6508444  3
   2052   2050   2053   2054     1  0.0000000  0.6508444  3
   2052   2050   2053   2055     1  0.0000000  0.6508444  3
   2052   2050   2047   2077     1  0.0000000  1.0460000  1
   2052   2050   2047   2077     1  0.0000000  0.0000000  3
   2053   2056   2057   2058     1  0.0000000  1.2552000  3
   2053   2056   2057   2059     1  0.0000000  1.2552000  3
   2053   2056   2067   2068     1  0.0000000  1.2552000  3
   2053   2056   2067   2069     1  0.0000000  1.2552000  3
   2054   2053   2056   2057     1  0.0000000  1.2552000  3
   2054   2053   2056   2067     1  0.0000000  1.2552000  3
   2055   2053   2056   2057     1  0.0000000  1.2552000  3
   2055   2053   2056   2067     1  0.0000000  1.2552000  3
   2056   2057   2060   2061     1  0.0000000  0.6508444  3
   2056   2057   2060   2062     1  0.0000000  0.6508444  3
   2056   2067   2070   2071     1  0.0000000  0.6508444  3
   2056   2067   2070   2072     1  0.0000000  0.6508444  3
   2057   2056   2067   2068     1  0.0000000  1.2552000  3
   2057   2056   2067   2069     1  0.0000000  1.2552000  3
   2058   2057   2060   2063     1  0.0000000  0.6508444  3
   2058   2057   2060   2061     1  0.0000000  0.6508444  3
   2058   2057   2060   2062     1  0.0000000  0.6508444  3
   2058   2057   2056   2067     1  0.0000000  1.2552000  3
   2059   2057   2060   2063     1  0.0000000  0.6508444  3
   2059   2057   2060   2061     1  0.0000000  0.6508444  3
   2059   2057   2060   2062     1  0.0000000  0.6508444  3
   2059   2057   2056   2067     1  0.0000000  1.2552000  3
   2060   2063   2065   2066     1  180.0000771  9.6232000  2
   2061   2060   2063   2064     1  0.0000000  3.3472000  1
   2061   2060   2063   2064     1  0.0000000  0.0000000  2
   2061   2060   2063   2064     1  180.0000771  0.3347200  3
   2061   2060   2063   2065     1  180.0000771  0.0000000  2
   2062   2060   2063   2064     1  0.0000000  3.3472000  1
   2062   2060   2063   2064     1  0.0000000  0.0000000  2
   2062   2060   2063   2064     1  180.0000771  0.3347200  3
   2062   2060   2063   2065     1  180.0000771  0.0000000  2
   2064   2063   2065   2066     1  0.0000000  7.9496000  1
   2064   2063   2065   2066     1  180.0000771  9.6232000  2
   2068   2067   2070   2073     1  0.0000000  0.6508444  3
   2068   2067   2070   2071     1  0.0000000  0.6508444  3
   2068   2067   2070   2072     1  0.0000000  0.6508444  3
   2069   2067   2070   2073     1  0.0000000  0.6508444  3
   2069   2067   2070   2071     1  0.0000000  0.6508444  3
   2069   2067   2070   2072     1  0.0000000  0.6508444  3
   2070   2073   2075   2076     1  180.0000771  9.6232000  2
   2071   2070   2073   2074     1  0.0000000  3.3472000  1
   2071   2070   2073   2074     1  0.0000000  0.0000000  2
   2071   2070   2073   2074     1  180.0000771  0.3347200  3
   2071   2070   2073   2075     1  180.0000771  0.0000000  2
   2072   2070   2073   2074     1  0.0000000  3.3472000  1
   2072   2070   2073   2074     1  0.0000000  0.0000000  2
   2072   2070   2073   2074     1  180.0000771  0.3347200  3
   2072   2070   2073   2075     1  180.0000771  0.0000000  2
   2074   2073   2075   2076     1  0.0000000  7.9496000  1
   2074   2073   2075   2076     1  180.0000771  9.6232000  2
   2078   2081   2084   2085     1  0.0000000  0.6508444  3
   2078   2081   2084   2086     1  0.0000000  0.6508444  3
   2079   2078   2081   2084     1  0.0000000  0.6508444  3
   2079   2078   2081   2082     1  0.0000000  0.6508444  3
   2079   2078   2081   2083     1  0.0000000  0.6508444  3
   2080   2078   2081   2084     1  0.0000000  0.6508444  3
   2080   2078   2081   2082     1  0.0000000  0.6508444  3
   2080   2078   2081   2083     1  0.0000000  0.6508444  3
   2082   2081   2078   2108     1  0.0000000  1.0460000  1
   2082   2081   2078   2108     1  0.0000000  0.0000000  3
   2082   2081   2084   2087     1  0.0000000  0.6508444  3
   2082   2081   2084   2085     1  0.0000000  0.6508444  3
   2082   2081   2084   2086     1  0.0000000  0.6508444  3
   2083   2081   2078   2108     1  0.0000000  1.0460000  1
   2083   2081   2078   2108     1  0.0000000  0.0000000  3
   2083   2081   2084   2087     1  0.0000000  0.6508444  3
   2083   2081   2084   2085     1  0.0000000  0.6508444  3
   2083   2081   2084   2086     1  0.0000000  0.6508444  3
   2084   2087   2088   2089     1  0.0000000  1.2552000  3
   2084   2087   2088   2090     1  0.0000000  1.2552000  3
   2084   2087   2098   2099     1  0.0000000  1.2552000  3
   2084   2087   2098   2100     1  0.0000000  1.2552000  3
   2085   2084   2087   2088     1  0.0000000  1.2552000  3
   2085   2084   2087   2098     1  0.0000000  1.2552000  3
   2086   2084   2087   2088     1  0.0000000  1.2552000  3
   2086   2084   2087   2098     1  0.0000000  1.2552000  3
   2087   2088   2091   2092     1  0.0000000  0.6508444  3
   2087   2088   2091   2093     1  0.0000000  0.6508444  3
   2087   2098   2101   2102     1  0.0000000  0.6508444  3
   2087   2098   2101   2103     1  0.0000000  0.6508444  3
   2088   2087   2098   2099     1  0.0000000  1.2552000  3
   2088   2087   2098   2100     1  0.0000000  1.2552000  3
   2089   2088   2087   2098     1  0.0000000  1.2552000  3
   2089   2088   2091   2094     1  0.0000000  0.6508444  3
   2089   2088   2091   2092     1  0.0000000  0.6508444  3
   2089   2088   2091   2093     1  0.0000000  0.6508444  3
   2090   2088   2087   2098     1  0.0000000  1.2552000  3
   2090   2088   2091   2094     1  0.0000000  0.6508444  3
   2090   2088   2091   2092     1  0.0000000  0.6508444  3
   2090   2088   2091   2093     1  0.0000000  0.6508444  3
   2091   2094   2096   2097     1  180.0000771  9.6232000  2
   2092   2091   2094   2095     1  0.0000000  3.3472000  1
   2092   2091   2094   2095     1  0.0000000  0.0000000  2
   2092   2091   2094   2095     1  180.0000771  0.3347200  3
   2092   2091   2094   2096     1  180.0000771  0.0000000  2
   2093   2091   2094   2095     1  0.0000000  3.3472000  1
   2093   2091   2094   2095     1  0.0000000  0.0000000  2
   2093   2091   2094   2095     1  180.0000771  0.3347200  3
   2093   2091   2094   2096     1  180.0000771  0.0000000  2
   2095   2094   2096   2097     1  0.0000000  7.9496000  1
   2095   2094   2096   2097     1  180.0000771  9.6232000  2
   2099   2098   2101   2104     1  0.0000000  0.6508444  3
   2099   2098   2101   2102     1  0.0000000  0.6508444  3
   2099   2098   2101   2103     1  0.0000000  0.6508444  3
   2100   2098   2101   2104     1  0.0000000  0.6508444  3
   2100   2098   2101   2102     1  0.0000000  0.6508444  3
   2100   2098   2101   2103     1  0.0000000  0.6508444  3
   2101   2104   2106   2107     1  180.0000771  9.6232000  2
   2102   2101   2104   2105     1  0.0000000  3.3472000  1
   2102   2101   2104   2105     1  0.0000000  0.0000000  2
   2102   2101   2104   2105     1  180.0000771  0.3347200  3
   2102   2101   2104   2106     1  180.0000771  0.0000000  2
   2103   2101   2104   2105     1  0.0000000  3.3472000  1
   2103   2101   2104   2105     1  0.0000000  0.0000000  2
   2103   2101   2104   2105     1  180.0000771  0.3347200  3
   2103   2101   2104   2106     1  180.0000771  0.0000000  2
   2105   2104   2106   2107     1  0.0000000  7.9496000  1
   2105   2104   2106   2107     1  180.0000771  9.6232000  2
   2109   2112   2115   2116     1  0.0000000  0.6508444  3
   2109   2112   2115   2117     1  0.0000000  0.6508444  3
   2110   2109   2112   2115     1  0.0000000  0.6508444  3
   2110   2109   2112   2113     1  0.0000000  0.6508444  3
   2110   2109   2112   2114     1  0.0000000  0.6508444  3
   2111   2109   2112   2115     1  0.0000000  0.6508444  3
   2111   2109   2112   2113     1  0.0000000  0.6508444  3
   2111   2109   2112   2114     1  0.0000000  0.6508444  3
   2113   2112   2115   2118     1  0.0000000  0.6508444  3
   2113   2112   2115   2116     1  0.0000000  0.6508444  3
   2113   2112   2115   2117     1  0.0000000  0.6508444  3
   2113   2112   2109   2139     1  0.0000000  1.0460000  1
   2113   2112   2109   2139     1  0.0000000  0.0000000  3
   2114   2112   2115   2118     1  0.0000000  0.6508444  3
   2114   2112   2115   2116     1  0.0000000  0.6508444  3
   2114   2112   2115   2117     1  0.0000000  0.6508444  3
   2114   2112   2109   2139     1  0.0000000  1.0460000  1
   2114   2112   2109   2139     1  0.0000000  0.0000000  3
   2115   2118   2119   2120     1  0.0000000  1.2552000  3
   2115   2118   2119   2121     1  0.0000000  1.2552000  3
   2115   2118   2129   2130     1  0.0000000  1.2552000  3
   2115   2118   2129   2131     1  0.0000000  1.2552000  3
   2116   2115   2118   2119     1  0.0000000  1.2552000  3
   2116   2115   2118   2129     1  0.0000000  1.2552000  3
   2117   2115   2118   2119     1  0.0000000  1.2552000  3
   2117   2115   2118   2129     1  0.0000000  1.2552000  3
   2118   2119   2122   2123     1  0.0000000  0.6508444  3
   2118   2119   2122   2124     1  0.0000000  0.6508444  3
   2118   2129   2132   2133     1  0.0000000  0.6508444  3
   2118   2129   2132   2134     1  0.0000000  0.6508444  3
   2119   2118   2129   2130     1  0.0000000  1.2552000  3
   2119   2118   2129   2131     1  0.0000000  1.2552000  3
   2120   2119   2122   2125     1  0.0000000  0.6508444  3
   2120   2119   2122   2123     1  0.0000000  0.6508444  3
   2120   2119   2122   2124     1  0.0000000  0.6508444  3
   2120   2119   2118   2129     1  0.0000000  1.2552000  3
   2121   2119   2122   2125     1  0.0000000  0.6508444  3
   2121   2119   2122   2123     1  0.0000000  0.6508444  3
   2121   2119   2122   2124     1  0.0000000  0.6508444  3
   2121   2119   2118   2129     1  0.0000000  1.2552000  3
   2122   2125   2127   2128     1  180.0000771  9.6232000  2
   2123   2122   2125   2126     1  0.0000000  3.3472000  1
   2123   2122   2125   2126     1  0.0000000  0.0000000  2
   2123   2122   2125   2126     1  180.0000771  0.3347200  3
   2123   2122   2125   2127     1  180.0000771  0.0000000  2
   2124   2122   2125   2126     1  0.0000000  3.3472000  1
   2124   2122   2125   2126     1  0.0000000  0.0000000  2
   2124   2122   2125   2126     1  180.0000771  0.3347200  3
   2124   2122   2125   2127     1  180.0000771  0.0000000  2
   2126   2125   2127   2128     1  0.0000000  7.9496000  1
   2126   2125   2127   2128     1  180.0000771  9.6232000  2
   2130   2129   2132   2135     1  0.0000000  0.6508444  3
   2130   2129   2132   2133     1  0.0000000  0.6508444  3
   2130   2129   2132   2134     1  0.0000000  0.6508444  3
   2131   2129   2132   2135     1  0.0000000  0.6508444  3
   2131   2129   2132   2133     1  0.0000000  0.6508444  3
   2131   2129   2132   2134     1  0.0000000  0.6508444  3
   2132   2135   2137   2138     1  180.0000771  9.6232000  2
   2133   2132   2135   2136     1  0.0000000  3.3472000  1
   2133   2132   2135   2136     1  0.0000000  0.0000000  2
   2133   2132   2135   2136     1  180.0000771  0.3347200  3
   2133   2132   2135   2137     1  180.0000771  0.0000000  2
   2134   2132   2135   2136     1  0.0000000  3.3472000  1
   2134   2132   2135   2136     1  0.0000000  0.0000000  2
   2134   2132   2135   2136     1  180.0000771  0.3347200  3
   2134   2132   2135   2137     1  180.0000771  0.0000000  2
   2136   2135   2137   2138     1  0.0000000  7.9496000  1
   2136   2135   2137   2138     1  180.0000771  9.6232000  2
   2140   2143   2146   2147     1  0.0000000  0.6508444  3
   2140   2143   2146   2148     1  0.0000000  0.6508444  3
   2141   2140   2143   2146     1  0.0000000  0.6508444  3
   2141   2140   2143   2144     1  0.0000000  0.6508444  3
   2141   2140   2143   2145     1  0.0000000  0.6508444  3
   2142   2140   2143   2146     1  0.0000000  0.6508444  3
   2142   2140   2143   2144     1  0.0000000  0.6508444  3
   2142   2140   2143   2145     1  0.0000000  0.6508444  3
   2144   2143   2140   2170     1  0.0000000  1.0460000  1
   2144   2143   2140   2170     1  0.0000000  0.0000000  3
   2144   2143   2146   2149     1  0.0000000  0.6508444  3
   2144   2143   2146   2147     1  0.0000000  0.6508444  3
   2144   2143   2146   2148     1  0.0000000  0.6508444  3
   2145   2143   2140   2170     1  0.0000000  1.0460000  1
   2145   2143   2140   2170     1  0.0000000  0.0000000  3
   2145   2143   2146   2149     1  0.0000000  0.6508444  3
   2145   2143   2146   2147     1  0.0000000  0.6508444  3
   2145   2143   2146   2148     1  0.0000000  0.6508444  3
   2146   2149   2150   2151     1  0.0000000  1.2552000  3
   2146   2149   2150   2152     1  0.0000000  1.2552000  3
   2146   2149   2160   2161     1  0.0000000  1.2552000  3
   2146   2149   2160   2162     1  0.0000000  1.2552000  3
   2147   2146   2149   2150     1  0.0000000  1.2552000  3
   2147   2146   2149   2160     1  0.0000000  1.2552000  3
   2148   2146   2149   2150     1  0.0000000  1.2552000  3
   2148   2146   2149   2160     1  0.0000000  1.2552000  3
   2149   2150   2153   2154     1  0.0000000  0.6508444  3
   2149   2150   2153   2155     1  0.0000000  0.6508444  3
   2149   2160   2163   2164     1  0.0000000  0.6508444  3
   2149   2160   2163   2165     1  0.0000000  0.6508444  3
   2150   2149   2160   2161     1  0.0000000  1.2552000  3
   2150   2149   2160   2162     1  0.0000000  1.2552000  3
   2151   2150   2149   2160     1  0.0000000  1.2552000  3
   2151   2150   2153   2156     1  0.0000000  0.6508444  3
   2151   2150   2153   2154     1  0.0000000  0.6508444  3
   2151   2150   2153   2155     1  0.0000000  0.6508444  3
   2152   2150   2149   2160     1  0.0000000  1.2552000  3
   2152   2150   2153   2156     1  0.0000000  0.6508444  3
   2152   2150   2153   2154     1  0.0000000  0.6508444  3
   2152   2150   2153   2155     1  0.0000000  0.6508444  3
   2153   2156   2158   2159     1  180.0000771  9.6232000  2
   2154   2153   2156   2157     1  0.0000000  3.3472000  1
   2154   2153   2156   2157     1  0.0000000  0.0000000  2
   2154   2153   2156   2157     1  180.0000771  0.3347200  3
   2154   2153   2156   2158     1  180.0000771  0.0000000  2
   2155   2153   2156   2157     1  0.0000000  3.3472000  1
   2155   2153   2156   2157     1  0.0000000  0.0000000  2
   2155   2153   2156   2157     1  180.0000771  0.3347200  3
   2155   2153   2156   2158     1  180.0000771  0.0000000  2
   2157   2156   2158   2159     1  0.0000000  7.9496000  1
   2157   2156   2158   2159     1  180.0000771  9.6232000  2
   2161   2160   2163   2166     1  0.0000000  0.6508444  3
   2161   2160   2163   2164     1  0.0000000  0.6508444  3
   2161   2160   2163   2165     1  0.0000000  0.6508444  3
   2162   2160   2163   2166     1  0.0000000  0.6508444  3
   2162   2160   2163   2164     1  0.0000000  0.6508444  3
   2162   2160   2163   2165     1  0.0000000  0.6508444  3
   2163   2166   2168   2169     1  180.0000771  9.6232000  2
   2164   2163   2166   2167     1  0.0000000  3.3472000  1
   2164   2163   2166   2167     1  0.0000000  0.0000000  2
   2164   2163   2166   2167     1  180.0000771  0.3347200  3
   2164   2163   2166   2168     1  180.0000771  0.0000000  2
   2165   2163   2166   2167     1  0.0000000  3.3472000  1
   2165   2163   2166   2167     1  0.0000000  0.0000000  2
   2165   2163   2166   2167     1  180.0000771  0.3347200  3
   2165   2163   2166   2168     1  180.0000771  0.0000000  2
   2167   2166   2168   2169     1  0.0000000  7.9496000  1
   2167   2166   2168   2169     1  180.0000771  9.6232000  2
   2171   2174   2177   2178     1  0.0000000  0.6508444  3
   2171   2174   2177   2179     1  0.0000000  0.6508444  3
   2172   2171   2174   2177     1  0.0000000  0.6508444  3
   2172   2171   2174   2175     1  0.0000000  0.6508444  3
   2172   2171   2174   2176     1  0.0000000  0.6508444  3
   2173   2171   2174   2177     1  0.0000000  0.6508444  3
   2173   2171   2174   2175     1  0.0000000  0.6508444  3
   2173   2171   2174   2176     1  0.0000000  0.6508444  3
   2175   2174   2177   2180     1  0.0000000  0.6508444  3
   2175   2174   2177   2178     1  0.0000000  0.6508444  3
   2175   2174   2177   2179     1  0.0000000  0.6508444  3
   2175   2174   2171   2201     1  0.0000000  1.0460000  1
   2175   2174   2171   2201     1  0.0000000  0.0000000  3
   2176   2174   2177   2180     1  0.0000000  0.6508444  3
   2176   2174   2177   2178     1  0.0000000  0.6508444  3
   2176   2174   2177   2179     1  0.0000000  0.6508444  3
   2176   2174   2171   2201     1  0.0000000  1.0460000  1
   2176   2174   2171   2201     1  0.0000000  0.0000000  3
   2177   2180   2181   2182     1  0.0000000  1.2552000  3
   2177   2180   2181   2183     1  0.0000000  1.2552000  3
   2177   2180   2191   2192     1  0.0000000  1.2552000  3
   2177   2180   2191   2193     1  0.0000000  1.2552000  3
   2178   2177   2180   2181     1  0.0000000  1.2552000  3
   2178   2177   2180   2191     1  0.0000000  1.2552000  3
   2179   2177   2180   2181     1  0.0000000  1.2552000  3
   2179   2177   2180   2191     1  0.0000000  1.2552000  3
   2180   2181   2184   2185     1  0.0000000  0.6508444  3
   2180   2181   2184   2186     1  0.0000000  0.6508444  3
   2180   2191   2194   2195     1  0.0000000  0.6508444  3
   2180   2191   2194   2196     1  0.0000000  0.6508444  3
   2181   2180   2191   2192     1  0.0000000  1.2552000  3
   2181   2180   2191   2193     1  0.0000000  1.2552000  3
   2182   2181   2184   2187     1  0.0000000  0.6508444  3
   2182   2181   2184   2185     1  0.0000000  0.6508444  3
   2182   2181   2184   2186     1  0.0000000  0.6508444  3
   2182   2181   2180   2191     1  0.0000000  1.2552000  3
   2183   2181   2184   2187     1  0.0000000  0.6508444  3
   2183   2181   2184   2185     1  0.0000000  0.6508444  3
   2183   2181   2184   2186     1  0.0000000  0.6508444  3
   2183   2181   2180   2191     1  0.0000000  1.2552000  3
   2184   2187   2189   2190     1  180.0000771  9.6232000  2
   2185   2184   2187   2188     1  0.0000000  3.3472000  1
   2185   2184   2187   2188     1  0.0000000  0.0000000  2
   2185   2184   2187   2188     1  180.0000771  0.3347200  3
   2185   2184   2187   2189     1  180.0000771  0.0000000  2
   2186   2184   2187   2188     1  0.0000000  3.3472000  1
   2186   2184   2187   2188     1  0.0000000  0.0000000  2
   2186   2184   2187   2188     1  180.0000771  0.3347200  3
   2186   2184   2187   2189     1  180.0000771  0.0000000  2
   2188   2187   2189   2190     1  0.0000000  7.9496000  1
   2188   2187   2189   2190     1  180.0000771  9.6232000  2
   2192   2191   2194   2197     1  0.0000000  0.6508444  3
   2192   2191   2194   2195     1  0.0000000  0.6508444  3
   2192   2191   2194   2196     1  0.0000000  0.6508444  3
   2193   2191   2194   2197     1  0.0000000  0.6508444  3
   2193   2191   2194   2195     1  0.0000000  0.6508444  3
   2193   2191   2194   2196     1  0.0000000  0.6508444  3
   2194   2197   2199   2200     1  180.0000771  9.6232000  2
   2195   2194   2197   2198     1  0.0000000  3.3472000  1
   2195   2194   2197   2198     1  0.0000000  0.0000000  2
   2195   2194   2197   2198     1  180.0000771  0.3347200  3
   2195   2194   2197   2199     1  180.0000771  0.0000000  2
   2196   2194   2197   2198     1  0.0000000  3.3472000  1
   2196   2194   2197   2198     1  0.0000000  0.0000000  2
   2196   2194   2197   2198     1  180.0000771  0.3347200  3
   2196   2194   2197   2199     1  180.0000771  0.0000000  2
   2198   2197   2199   2200     1  0.0000000  7.9496000  1
   2198   2197   2199   2200     1  180.0000771  9.6232000  2
   2202   2205   2208   2209     1  0.0000000  0.6508444  3
   2202   2205   2208   2210     1  0.0000000  0.6508444  3
   2203   2202   2205   2208     1  0.0000000  0.6508444  3
   2203   2202   2205   2206     1  0.0000000  0.6508444  3
   2203   2202   2205   2207     1  0.0000000  0.6508444  3
   2204   2202   2205   2208     1  0.0000000  0.6508444  3
   2204   2202   2205   2206     1  0.0000000  0.6508444  3
   2204   2202   2205   2207     1  0.0000000  0.6508444  3
   2206   2205   2202   2232     1  0.0000000  1.0460000  1
   2206   2205   2202   2232     1  0.0000000  0.0000000  3
   2206   2205   2208   2211     1  0.0000000  0.6508444  3
   2206   2205   2208   2209     1  0.0000000  0.6508444  3
   2206   2205   2208   2210     1  0.0000000  0.6508444  3
   2207   2205   2202   2232     1  0.0000000  1.0460000  1
   2207   2205   2202   2232     1  0.0000000  0.0000000  3
   2207   2205   2208   2211     1  0.0000000  0.6508444  3
   2207   2205   2208   2209     1  0.0000000  0.6508444  3
   2207   2205   2208   2210     1  0.0000000  0.6508444  3
   2208   2211   2212   2213     1  0.0000000  1.2552000  3
   2208   2211   2212   2214     1  0.0000000  1.2552000  3
   2208   2211   2222   2223     1  0.0000000  1.2552000  3
   2208   2211   2222   2224     1  0.0000000  1.2552000  3
   2209   2208   2211   2212     1  0.0000000  1.2552000  3
   2209   2208   2211   2222     1  0.0000000  1.2552000  3
   2210   2208   2211   2212     1  0.0000000  1.2552000  3
   2210   2208   2211   2222     1  0.0000000  1.2552000  3
   2211   2212   2215   2216     1  0.0000000  0.6508444  3
   2211   2212   2215   2217     1  0.0000000  0.6508444  3
   2211   2222   2225   2226     1  0.0000000  0.6508444  3
   2211   2222   2225   2227     1  0.0000000  0.6508444  3
   2212   2211   2222   2223     1  0.0000000  1.2552000  3
   2212   2211   2222   2224     1  0.0000000  1.2552000  3
   2213   2212   2211   2222     1  0.0000000  1.2552000  3
   2213   2212   2215   2218     1  0.0000000  0.6508444  3
   2213   2212   2215   2216     1  0.0000000  0.6508444  3
   2213   2212   2215   2217     1  0.0000000  0.6508444  3
   2214   2212   2211   2222     1  0.0000000  1.2552000  3
   2214   2212   2215   2218     1  0.0000000  0.6508444  3
   2214   2212   2215   2216     1  0.0000000  0.6508444  3
   2214   2212   2215   2217     1  0.0000000  0.6508444  3
   2215   2218   2220   2221     1  180.0000771  9.6232000  2
   2216   2215   2218   2219     1  0.0000000  3.3472000  1
   2216   2215   2218   2219     1  0.0000000  0.0000000  2
   2216   2215   2218   2219     1  180.0000771  0.3347200  3
   2216   2215   2218   2220     1  180.0000771  0.0000000  2
   2217   2215   2218   2219     1  0.0000000  3.3472000  1
   2217   2215   2218   2219     1  0.0000000  0.0000000  2
   2217   2215   2218   2219     1  180.0000771  0.3347200  3
   2217   2215   2218   2220     1  180.0000771  0.0000000  2
   2219   2218   2220   2221     1  0.0000000  7.9496000  1
   2219   2218   2220   2221     1  180.0000771  9.6232000  2
   2223   2222   2225   2228     1  0.0000000  0.6508444  3
   2223   2222   2225   2226     1  0.0000000  0.6508444  3
   2223   2222   2225   2227     1  0.0000000  0.6508444  3
   2224   2222   2225   2228     1  0.0000000  0.6508444  3
   2224   2222   2225   2226     1  0.0000000  0.6508444  3
   2224   2222   2225   2227     1  0.0000000  0.6508444  3
   2225   2228   2230   2231     1  180.0000771  9.6232000  2
   2226   2225   2228   2229     1  0.0000000  3.3472000  1
   2226   2225   2228   2229     1  0.0000000  0.0000000  2
   2226   2225   2228   2229     1  180.0000771  0.3347200  3
   2226   2225   2228   2230     1  180.0000771  0.0000000  2
   2227   2225   2228   2229     1  0.0000000  3.3472000  1
   2227   2225   2228   2229     1  0.0000000  0.0000000  2
   2227   2225   2228   2229     1  180.0000771  0.3347200  3
   2227   2225   2228   2230     1  180.0000771  0.0000000  2
   2229   2228   2230   2231     1  0.0000000  7.9496000  1
   2229   2228   2230   2231     1  180.0000771  9.6232000  2
   2233   2236   2239   2240     1  0.0000000  0.6508444  3
   2233   2236   2239   2241     1  0.0000000  0.6508444  3
   2234   2233   2236   2239     1  0.0000000  0.6508444  3
   2234   2233   2236   2237     1  0.0000000  0.6508444  3
   2234   2233   2236   2238     1  0.0000000  0.6508444  3
   2235   2233   2236   2239     1  0.0000000  0.6508444  3
   2235   2233   2236   2237     1  0.0000000  0.6508444  3
   2235   2233   2236   2238     1  0.0000000  0.6508444  3
   2237   2236   2239   2242     1  0.0000000  0.6508444  3
   2237   2236   2239   2240     1  0.0000000  0.6508444  3
   2237   2236   2239   2241     1  0.0000000  0.6508444  3
   2237   2236   2233   2263     1  0.0000000  1.0460000  1
   2237   2236   2233   2263     1  0.0000000  0.0000000  3
   2238   2236   2239   2242     1  0.0000000  0.6508444  3
   2238   2236   2239   2240     1  0.0000000  0.6508444  3
   2238   2236   2239   2241     1  0.0000000  0.6508444  3
   2238   2236   2233   2263     1  0.0000000  1.0460000  1
   2238   2236   2233   2263     1  0.0000000  0.0000000  3
   2239   2242   2243   2244     1  0.0000000  1.2552000  3
   2239   2242   2243   2245     1  0.0000000  1.2552000  3
   2239   2242   2253   2254     1  0.0000000  1.2552000  3
   2239   2242   2253   2255     1  0.0000000  1.2552000  3
   2240   2239   2242   2243     1  0.0000000  1.2552000  3
   2240   2239   2242   2253     1  0.0000000  1.2552000  3
   2241   2239   2242   2243     1  0.0000000  1.2552000  3
   2241   2239   2242   2253     1  0.0000000  1.2552000  3
   2242   2243   2246   2247     1  0.0000000  0.6508444  3
   2242   2243   2246   2248     1  0.0000000  0.6508444  3
   2242   2253   2256   2257     1  0.0000000  0.6508444  3
   2242   2253   2256   2258     1  0.0000000  0.6508444  3
   2243   2242   2253   2254     1  0.0000000  1.2552000  3
   2243   2242   2253   2255     1  0.0000000  1.2552000  3
   2244   2243   2246   2249     1  0.0000000  0.6508444  3
   2244   2243   2246   2247     1  0.0000000  0.6508444  3
   2244   2243   2246   2248     1  0.0000000  0.6508444  3
   2244   2243   2242   2253     1  0.0000000  1.2552000  3
   2245   2243   2246   2249     1  0.0000000  0.6508444  3
   2245   2243   2246   2247     1  0.0000000  0.6508444  3
   2245   2243   2246   2248     1  0.0000000  0.6508444  3
   2245   2243   2242   2253     1  0.0000000  1.2552000  3
   2246   2249   2251   2252     1  180.0000771  9.6232000  2
   2247   2246   2249   2250     1  0.0000000  3.3472000  1
   2247   2246   2249   2250     1  0.0000000  0.0000000  2
   2247   2246   2249   2250     1  180.0000771  0.3347200  3
   2247   2246   2249   2251     1  180.0000771  0.0000000  2
   2248   2246   2249   2250     1  0.0000000  3.3472000  1
   2248   2246   2249   2250     1  0.0000000  0.0000000  2
   2248   2246   2249   2250     1  180.0000771  0.3347200  3
   2248   2246   2249   2251     1  180.0000771  0.0000000  2
   2250   2249   2251   2252     1  0.0000000  7.9496000  1
   2250   2249   2251   2252     1  180.0000771  9.6232000  2
   2254   2253   2256   2259     1  0.0000000  0.6508444  3
   2254   2253   2256   2257     1  0.0000000  0.6508444  3
   2254   2253   2256   2258     1  0.0000000  0.6508444  3
   2255   2253   2256   2259     1  0.0000000  0.6508444  3
   2255   2253   2256   2257     1  0.0000000  0.6508444  3
   2255   2253   2256   2258     1  0.0000000  0.6508444  3
   2256   2259   2261   2262     1  180.0000771  9.6232000  2
   2257   2256   2259   2260     1  0.0000000  3.3472000  1
   2257   2256   2259   2260     1  0.0000000  0.0000000  2
   2257   2256   2259   2260     1  180.0000771  0.3347200  3
   2257   2256   2259   2261     1  180.0000771  0.0000000  2
   2258   2256   2259   2260     1  0.0000000  3.3472000  1
   2258   2256   2259   2260     1  0.0000000  0.0000000  2
   2258   2256   2259   2260     1  180.0000771  0.3347200  3
   2258   2256   2259   2261     1  180.0000771  0.0000000  2
   2260   2259   2261   2262     1  0.0000000  7.9496000  1
   2260   2259   2261   2262     1  180.0000771  9.6232000  2
   2264   2267   2270   2271     1  0.0000000  0.6508444  3
   2264   2267   2270   2272     1  0.0000000  0.6508444  3
   2265   2264   2267   2270     1  0.0000000  0.6508444  3
   2265   2264   2267   2268     1  0.0000000  0.6508444  3
   2265   2264   2267   2269     1  0.0000000  0.6508444  3
   2266   2264   2267   2270     1  0.0000000  0.6508444  3
   2266   2264   2267   2268     1  0.0000000  0.6508444  3
   2266   2264   2267   2269     1  0.0000000  0.6508444  3
   2268   2267   2264   2294     1  0.0000000  1.0460000  1
   2268   2267   2264   2294     1  0.0000000  0.0000000  3
   2268   2267   2270   2273     1  0.0000000  0.6508444  3
   2268   2267   2270   2271     1  0.0000000  0.6508444  3
   2268   2267   2270   2272     1  0.0000000  0.6508444  3
   2269   2267   2264   2294     1  0.0000000  1.0460000  1
   2269   2267   2264   2294     1  0.0000000  0.0000000  3
   2269   2267   2270   2273     1  0.0000000  0.6508444  3
   2269   2267   2270   2271     1  0.0000000  0.6508444  3
   2269   2267   2270   2272     1  0.0000000  0.6508444  3
   2270   2273   2274   2275     1  0.0000000  1.2552000  3
   2270   2273   2274   2276     1  0.0000000  1.2552000  3
   2270   2273   2284   2285     1  0.0000000  1.2552000  3
   2270   2273   2284   2286     1  0.0000000  1.2552000  3
   2271   2270   2273   2274     1  0.0000000  1.2552000  3
   2271   2270   2273   2284     1  0.0000000  1.2552000  3
   2272   2270   2273   2274     1  0.0000000  1.2552000  3
   2272   2270   2273   2284     1  0.0000000  1.2552000  3
   2273   2274   2277   2278     1  0.0000000  0.6508444  3
   2273   2274   2277   2279     1  0.0000000  0.6508444  3
   2273   2284   2287   2288     1  0.0000000  0.6508444  3
   2273   2284   2287   2289     1  0.0000000  0.6508444  3
   2274   2273   2284   2285     1  0.0000000  1.2552000  3
   2274   2273   2284   2286     1  0.0000000  1.2552000  3
   2275   2274   2273   2284     1  0.0000000  1.2552000  3
   2275   2274   2277   2280     1  0.0000000  0.6508444  3
   2275   2274   2277   2278     1  0.0000000  0.6508444  3
   2275   2274   2277   2279     1  0.0000000  0.6508444  3
   2276   2274   2273   2284     1  0.0000000  1.2552000  3
   2276   2274   2277   2280     1  0.0000000  0.6508444  3
   2276   2274   2277   2278     1  0.0000000  0.6508444  3
   2276   2274   2277   2279     1  0.0000000  0.6508444  3
   2277   2280   2282   2283     1  180.0000771  9.6232000  2
   2278   2277   2280   2281     1  0.0000000  3.3472000  1
   2278   2277   2280   2281     1  0.0000000  0.0000000  2
   2278   2277   2280   2281     1  180.0000771  0.3347200  3
   2278   2277   2280   2282     1  180.0000771  0.0000000  2
   2279   2277   2280   2281     1  0.0000000  3.3472000  1
   2279   2277   2280   2281     1  0.0000000  0.0000000  2
   2279   2277   2280   2281     1  180.0000771  0.3347200  3
   2279   2277   2280   2282     1  180.0000771  0.0000000  2
   2281   2280   2282   2283     1  0.0000000  7.9496000  1
   2281   2280   2282   2283     1  180.0000771  9.6232000  2
   2285   2284   2287   2290     1  0.0000000  0.6508444  3
   2285   2284   2287   2288     1  0.0000000  0.6508444  3
   2285   2284   2287   2289     1  0.0000000  0.6508444  3
   2286   2284   2287   2290     1  0.0000000  0.6508444  3
   2286   2284   2287   2288     1  0.0000000  0.6508444  3
   2286   2284   2287   2289     1  0.0000000  0.6508444  3
   2287   2290   2292   2293     1  180.0000771  9.6232000  2
   2288   2287   2290   2291     1  0.0000000  3.3472000  1
   2288   2287   2290   2291     1  0.0000000  0.0000000  2
   2288   2287   2290   2291     1  180.0000771  0.3347200  3
   2288   2287   2290   2292     1  180.0000771  0.0000000  2
   2289   2287   2290   2291     1  0.0000000  3.3472000  1
   2289   2287   2290   2291     1  0.0000000  0.0000000  2
   2289   2287   2290   2291     1  180.0000771  0.3347200  3
   2289   2287   2290   2292     1  180.0000771  0.0000000  2
   2291   2290   2292   2293     1  0.0000000  7.9496000  1
   2291   2290   2292   2293     1  180.0000771  9.6232000  2
   2295   2298   2301   2302     1  0.0000000  0.6508444  3
   2295   2298   2301   2303     1  0.0000000  0.6508444  3
   2296   2295   2298   2301     1  0.0000000  0.6508444  3
   2296   2295   2298   2299     1  0.0000000  0.6508444  3
   2296   2295   2298   2300     1  0.0000000  0.6508444  3
   2297   2295   2298   2301     1  0.0000000  0.6508444  3
   2297   2295   2298   2299     1  0.0000000  0.6508444  3
   2297   2295   2298   2300     1  0.0000000  0.6508444  3
   2299   2298   2301   2304     1  0.0000000  0.6508444  3
   2299   2298   2301   2302     1  0.0000000  0.6508444  3
   2299   2298   2301   2303     1  0.0000000  0.6508444  3
   2299   2298   2295   2325     1  0.0000000  1.0460000  1
   2299   2298   2295   2325     1  0.0000000  0.0000000  3
   2300   2298   2301   2304     1  0.0000000  0.6508444  3
   2300   2298   2301   2302     1  0.0000000  0.6508444  3
   2300   2298   2301   2303     1  0.0000000  0.6508444  3
   2300   2298   2295   2325     1  0.0000000  1.0460000  1
   2300   2298   2295   2325     1  0.0000000  0.0000000  3
   2301   2304   2305   2306     1  0.0000000  1.2552000  3
   2301   2304   2305   2307     1  0.0000000  1.2552000  3
   2301   2304   2315   2316     1  0.0000000  1.2552000  3
   2301   2304   2315   2317     1  0.0000000  1.2552000  3
   2302   2301   2304   2305     1  0.0000000  1.2552000  3
   2302   2301   2304   2315     1  0.0000000  1.2552000  3
   2303   2301   2304   2305     1  0.0000000  1.2552000  3
   2303   2301   2304   2315     1  0.0000000  1.2552000  3
   2304   2305   2308   2309     1  0.0000000  0.6508444  3
   2304   2305   2308   2310     1  0.0000000  0.6508444  3
   2304   2315   2318   2319     1  0.0000000  0.6508444  3
   2304   2315   2318   2320     1  0.0000000  0.6508444  3
   2305   2304   2315   2316     1  0.0000000  1.2552000  3
   2305   2304   2315   2317     1  0.0000000  1.2552000  3
   2306   2305   2308   2311     1  0.0000000  0.6508444  3
   2306   2305   2308   2309     1  0.0000000  0.6508444  3
   2306   2305   2308   2310     1  0.0000000  0.6508444  3
   2306   2305   2304   2315     1  0.0000000  1.2552000  3
   2307   2305   2308   2311     1  0.0000000  0.6508444  3
   2307   2305   2308   2309     1  0.0000000  0.6508444  3
   2307   2305   2308   2310     1  0.0000000  0.6508444  3
   2307   2305   2304   2315     1  0.0000000  1.2552000  3
   2308   2311   2313   2314     1  180.0000771  9.6232000  2
   2309   2308   2311   2312     1  0.0000000  3.3472000  1
   2309   2308   2311   2312     1  0.0000000  0.0000000  2
   2309   2308   2311   2312     1  180.0000771  0.3347200  3
   2309   2308   2311   2313     1  180.0000771  0.0000000  2
   2310   2308   2311   2312     1  0.0000000  3.3472000  1
   2310   2308   2311   2312     1  0.0000000  0.0000000  2
   2310   2308   2311   2312     1  180.0000771  0.3347200  3
   2310   2308   2311   2313     1  180.0000771  0.0000000  2
   2312   2311   2313   2314     1  0.0000000  7.9496000  1
   2312   2311   2313   2314     1  180.0000771  9.6232000  2
   2316   2315   2318   2321     1  0.0000000  0.6508444  3
   2316   2315   2318   2319     1  0.0000000  0.6508444  3
   2316   2315   2318   2320     1  0.0000000  0.6508444  3
   2317   2315   2318   2321     1  0.0000000  0.6508444  3
   2317   2315   2318   2319     1  0.0000000  0.6508444  3
   2317   2315   2318   2320     1  0.0000000  0.6508444  3
   2318   2321   2323   2324     1  180.0000771  9.6232000  2
   2319   2318   2321   2322     1  0.0000000  3.3472000  1
   2319   2318   2321   2322     1  0.0000000  0.0000000  2
   2319   2318   2321   2322     1  180.0000771  0.3347200  3
   2319   2318   2321   2323     1  180.0000771  0.0000000  2
   2320   2318   2321   2322     1  0.0000000  3.3472000  1
   2320   2318   2321   2322     1  0.0000000  0.0000000  2
   2320   2318   2321   2322     1  180.0000771  0.3347200  3
   2320   2318   2321   2323     1  180.0000771  0.0000000  2
   2322   2321   2323   2324     1  0.0000000  7.9496000  1
   2322   2321   2323   2324     1  180.0000771  9.6232000  2
   2326   2329   2332   2333     1  0.0000000  0.6508444  3
   2326   2329   2332   2334     1  0.0000000  0.6508444  3
   2327   2326   2329   2332     1  0.0000000  0.6508444  3
   2327   2326   2329   2330     1  0.0000000  0.6508444  3
   2327   2326   2329   2331     1  0.0000000  0.6508444  3
   2328   2326   2329   2332     1  0.0000000  0.6508444  3
   2328   2326   2329   2330     1  0.0000000  0.6508444  3
   2328   2326   2329   2331     1  0.0000000  0.6508444  3
   2330   2329   2326   2356     1  0.0000000  1.0460000  1
   2330   2329   2326   2356     1  0.0000000  0.0000000  3
   2330   2329   2332   2335     1  0.0000000  0.6508444  3
   2330   2329   2332   2333     1  0.0000000  0.6508444  3
   2330   2329   2332   2334     1  0.0000000  0.6508444  3
   2331   2329   2326   2356     1  0.0000000  1.0460000  1
   2331   2329   2326   2356     1  0.0000000  0.0000000  3
   2331   2329   2332   2335     1  0.0000000  0.6508444  3
   2331   2329   2332   2333     1  0.0000000  0.6508444  3
   2331   2329   2332   2334     1  0.0000000  0.6508444  3
   2332   2335   2336   2337     1  0.0000000  1.2552000  3
   2332   2335   2336   2338     1  0.0000000  1.2552000  3
   2332   2335   2346   2347     1  0.0000000  1.2552000  3
   2332   2335   2346   2348     1  0.0000000  1.2552000  3
   2333   2332   2335   2336     1  0.0000000  1.2552000  3
   2333   2332   2335   2346     1  0.0000000  1.2552000  3
   2334   2332   2335   2336     1  0.0000000  1.2552000  3
   2334   2332   2335   2346     1  0.0000000  1.2552000  3
   2335   2336   2339   2340     1  0.0000000  0.6508444  3
   2335   2336   2339   2341     1  0.0000000  0.6508444  3
   2335   2346   2349   2350     1  0.0000000  0.6508444  3
   2335   2346   2349   2351     1  0.0000000  0.6508444  3
   2336   2335   2346   2347     1  0.0000000  1.2552000  3
   2336   2335   2346   2348     1  0.0000000  1.2552000  3
   2337   2336   2335   2346     1  0.0000000  1.2552000  3
   2337   2336   2339   2342     1  0.0000000  0.6508444  3
   2337   2336   2339   2340     1  0.0000000  0.6508444  3
   2337   2336   2339   2341     1  0.0000000  0.6508444  3
   2338   2336   2335   2346     1  0.0000000  1.2552000  3
   2338   2336   2339   2342     1  0.0000000  0.6508444  3
   2338   2336   2339   2340     1  0.0000000  0.6508444  3
   2338   2336   2339   2341     1  0.0000000  0.6508444  3
   2339   2342   2344   2345     1  180.0000771  9.6232000  2
   2340   2339   2342   2343     1  0.0000000  3.3472000  1
   2340   2339   2342   2343     1  0.0000000  0.0000000  2
   2340   2339   2342   2343     1  180.0000771  0.3347200  3
   2340   2339   2342   2344     1  180.0000771  0.0000000  2
   2341   2339   2342   2343     1  0.0000000  3.3472000  1
   2341   2339   2342   2343     1  0.0000000  0.0000000  2
   2341   2339   2342   2343     1  180.0000771  0.3347200  3
   2341   2339   2342   2344     1  180.0000771  0.0000000  2
   2343   2342   2344   2345     1  0.0000000  7.9496000  1
   2343   2342   2344   2345     1  180.0000771  9.6232000  2
   2347   2346   2349   2352     1  0.0000000  0.6508444  3
   2347   2346   2349   2350     1  0.0000000  0.6508444  3
   2347   2346   2349   2351     1  0.0000000  0.6508444  3
   2348   2346   2349   2352     1  0.0000000  0.6508444  3
   2348   2346   2349   2350     1  0.0000000  0.6508444  3
   2348   2346   2349   2351     1  0.0000000  0.6508444  3
   2349   2352   2354   2355     1  180.0000771  9.6232000  2
   2350   2349   2352   2353     1  0.0000000  3.3472000  1
   2350   2349   2352   2353     1  0.0000000  0.0000000  2
   2350   2349   2352   2353     1  180.0000771  0.3347200  3
   2350   2349   2352   2354     1  180.0000771  0.0000000  2
   2351   2349   2352   2353     1  0.0000000  3.3472000  1
   2351   2349   2352   2353     1  0.0000000  0.0000000  2
   2351   2349   2352   2353     1  180.0000771  0.3347200  3
   2351   2349   2352   2354     1  180.0000771  0.0000000  2
   2353   2352   2354   2355     1  0.0000000  7.9496000  1
   2353   2352   2354   2355     1  180.0000771  9.6232000  2
   2357   2360   2363   2364     1  0.0000000  0.6508444  3
   2357   2360   2363   2365     1  0.0000000  0.6508444  3
   2358   2357   2360   2363     1  0.0000000  0.6508444  3
   2358   2357   2360   2361     1  0.0000000  0.6508444  3
   2358   2357   2360   2362     1  0.0000000  0.6508444  3
   2359   2357   2360   2363     1  0.0000000  0.6508444  3
   2359   2357   2360   2361     1  0.0000000  0.6508444  3
   2359   2357   2360   2362     1  0.0000000  0.6508444  3
   2361   2360   2363   2366     1  0.0000000  0.6508444  3
   2361   2360   2363   2364     1  0.0000000  0.6508444  3
   2361   2360   2363   2365     1  0.0000000  0.6508444  3
   2361   2360   2357   2387     1  0.0000000  1.0460000  1
   2361   2360   2357   2387     1  0.0000000  0.0000000  3
   2362   2360   2363   2366     1  0.0000000  0.6508444  3
   2362   2360   2363   2364     1  0.0000000  0.6508444  3
   2362   2360   2363   2365     1  0.0000000  0.6508444  3
   2362   2360   2357   2387     1  0.0000000  1.0460000  1
   2362   2360   2357   2387     1  0.0000000  0.0000000  3
   2363   2366   2367   2368     1  0.0000000  1.2552000  3
   2363   2366   2367   2369     1  0.0000000  1.2552000  3
   2363   2366   2377   2378     1  0.0000000  1.2552000  3
   2363   2366   2377   2379     1  0.0000000  1.2552000  3
   2364   2363   2366   2367     1  0.0000000  1.2552000  3
   2364   2363   2366   2377     1  0.0000000  1.2552000  3
   2365   2363   2366   2367     1  0.0000000  1.2552000  3
   2365   2363   2366   2377     1  0.0000000  1.2552000  3
   2366   2367   2370   2371     1  0.0000000  0.6508444  3
   2366   2367   2370   2372     1  0.0000000  0.6508444  3
   2366   2377   2380   2381     1  0.0000000  0.6508444  3
   2366   2377   2380   2382     1  0.0000000  0.6508444  3
   2367   2366   2377   2378     1  0.0000000  1.2552000  3
   2367   2366   2377   2379     1  0.0000000  1.2552000  3
   2368   2367   2370   2373     1  0.0000000  0.6508444  3
   2368   2367   2370   2371     1  0.0000000  0.6508444  3
   2368   2367   2370   2372     1  0.0000000  0.6508444  3
   2368   2367   2366   2377     1  0.0000000  1.2552000  3
   2369   2367   2370   2373     1  0.0000000  0.6508444  3
   2369   2367   2370   2371     1  0.0000000  0.6508444  3
   2369   2367   2370   2372     1  0.0000000  0.6508444  3
   2369   2367   2366   2377     1  0.0000000  1.2552000  3
   2370   2373   2375   2376     1  180.0000771  9.6232000  2
   2371   2370   2373   2374     1  0.0000000  3.3472000  1
   2371   2370   2373   2374     1  0.0000000  0.0000000  2
   2371   2370   2373   2374     1  180.0000771  0.3347200  3
   2371   2370   2373   2375     1  180.0000771  0.0000000  2
   2372   2370   2373   2374     1  0.0000000  3.3472000  1
   2372   2370   2373   2374     1  0.0000000  0.0000000  2
   2372   2370   2373   2374     1  180.0000771  0.3347200  3
   2372   2370   2373   2375     1  180.0000771  0.0000000  2
   2374   2373   2375   2376     1  0.0000000  7.9496000  1
   2374   2373   2375   2376     1  180.0000771  9.6232000  2
   2378   2377   2380   2383     1  0.0000000  0.6508444  3
   2378   2377   2380   2381     1  0.0000000  0.6508444  3
   2378   2377   2380   2382     1  0.0000000  0.6508444  3
   2379   2377   2380   2383     1  0.0000000  0.6508444  3
   2379   2377   2380   2381     1  0.0000000  0.6508444  3
   2379   2377   2380   2382     1  0.0000000  0.6508444  3
   2380   2383   2385   2386     1  180.0000771  9.6232000  2
   2381   2380   2383   2384     1  0.0000000  3.3472000  1
   2381   2380   2383   2384     1  0.0000000  0.0000000  2
   2381   2380   2383   2384     1  180.0000771  0.3347200  3
   2381   2380   2383   2385     1  180.0000771  0.0000000  2
   2382   2380   2383   2384     1  0.0000000  3.3472000  1
   2382   2380   2383   2384     1  0.0000000  0.0000000  2
   2382   2380   2383   2384     1  180.0000771  0.3347200  3
   2382   2380   2383   2385     1  180.0000771  0.0000000  2
   2384   2383   2385   2386     1  0.0000000  7.9496000  1
   2384   2383   2385   2386     1  180.0000771  9.6232000  2
   2388   2391   2394   2395     1  0.0000000  0.6508444  3
   2388   2391   2394   2396     1  0.0000000  0.6508444  3
   2389   2388   2391   2394     1  0.0000000  0.6508444  3
   2389   2388   2391   2392     1  0.0000000  0.6508444  3
   2389   2388   2391   2393     1  0.0000000  0.6508444  3
   2390   2388   2391   2394     1  0.0000000  0.6508444  3
   2390   2388   2391   2392     1  0.0000000  0.6508444  3
   2390   2388   2391   2393     1  0.0000000  0.6508444  3
   2392   2391   2388   2418     1  0.0000000  1.0460000  1
   2392   2391   2388   2418     1  0.0000000  0.0000000  3
   2392   2391   2394   2397     1  0.0000000  0.6508444  3
   2392   2391   2394   2395     1  0.0000000  0.6508444  3
   2392   2391   2394   2396     1  0.0000000  0.6508444  3
   2393   2391   2388   2418     1  0.0000000  1.0460000  1
   2393   2391   2388   2418     1  0.0000000  0.0000000  3
   2393   2391   2394   2397     1  0.0000000  0.6508444  3
   2393   2391   2394   2395     1  0.0000000  0.6508444  3
   2393   2391   2394   2396     1  0.0000000  0.6508444  3
   2394   2397   2398   2399     1  0.0000000  1.2552000  3
   2394   2397   2398   2400     1  0.0000000  1.2552000  3
   2394   2397   2408   2409     1  0.0000000  1.2552000  3
   2394   2397   2408   2410     1  0.0000000  1.2552000  3
   2395   2394   2397   2398     1  0.0000000  1.2552000  3
   2395   2394   2397   2408     1  0.0000000  1.2552000  3
   2396   2394   2397   2398     1  0.0000000  1.2552000  3
   2396   2394   2397   2408     1  0.0000000  1.2552000  3
   2397   2398   2401   2402     1  0.0000000  0.6508444  3
   2397   2398   2401   2403     1  0.0000000  0.6508444  3
   2397   2408   2411   2412     1  0.0000000  0.6508444  3
   2397   2408   2411   2413     1  0.0000000  0.6508444  3
   2398   2397   2408   2409     1  0.0000000  1.2552000  3
   2398   2397   2408   2410     1  0.0000000  1.2552000  3
   2399   2398   2397   2408     1  0.0000000  1.2552000  3
   2399   2398   2401   2404     1  0.0000000  0.6508444  3
   2399   2398   2401   2402     1  0.0000000  0.6508444  3
   2399   2398   2401   2403     1  0.0000000  0.6508444  3
   2400   2398   2397   2408     1  0.0000000  1.2552000  3
   2400   2398   2401   2404     1  0.0000000  0.6508444  3
   2400   2398   2401   2402     1  0.0000000  0.6508444  3
   2400   2398   2401   2403     1  0.0000000  0.6508444  3
   2401   2404   2406   2407     1  180.0000771  9.6232000  2
   2402   2401   2404   2405     1  0.0000000  3.3472000  1
   2402   2401   2404   2405     1  0.0000000  0.0000000  2
   2402   2401   2404   2405     1  180.0000771  0.3347200  3
   2402   2401   2404   2406     1  180.0000771  0.0000000  2
   2403   2401   2404   2405     1  0.0000000  3.3472000  1
   2403   2401   2404   2405     1  0.0000000  0.0000000  2
   2403   2401   2404   2405     1  180.0000771  0.3347200  3
   2403   2401   2404   2406     1  180.0000771  0.0000000  2
   2405   2404   2406   2407     1  0.0000000  7.9496000  1
   2405   2404   2406   2407     1  180.0000771  9.6232000  2
   2409   2408   2411   2414     1  0.0000000  0.6508444  3
   2409   2408   2411   2412     1  0.0000000  0.6508444  3
   2409   2408   2411   2413     1  0.0000000  0.6508444  3
   2410   2408   2411   2414     1  0.0000000  0.6508444  3
   2410   2408   2411   2412     1  0.0000000  0.6508444  3
   2410   2408   2411   2413     1  0.0000000  0.6508444  3
   2411   2414   2416   2417     1  180.0000771  9.6232000  2
   2412   2411   2414   2415     1  0.0000000  3.3472000  1
   2412   2411   2414   2415     1  0.0000000  0.0000000  2
   2412   2411   2414   2415     1  180.0000771  0.3347200  3
   2412   2411   2414   2416     1  180.0000771  0.0000000  2
   2413   2411   2414   2415     1  0.0000000  3.3472000  1
   2413   2411   2414   2415     1  0.0000000  0.0000000  2
   2413   2411   2414   2415     1  180.0000771  0.3347200  3
   2413   2411   2414   2416     1  180.0000771  0.0000000  2
   2415   2414   2416   2417     1  0.0000000  7.9496000  1
   2415   2414   2416   2417     1  180.0000771  9.6232000  2
   2419   2422   2425   2426     1  0.0000000  0.6508444  3
   2419   2422   2425   2427     1  0.0000000  0.6508444  3
   2420   2419   2422   2425     1  0.0000000  0.6508444  3
   2420   2419   2422   2423     1  0.0000000  0.6508444  3
   2420   2419   2422   2424     1  0.0000000  0.6508444  3
   2421   2419   2422   2425     1  0.0000000  0.6508444  3
   2421   2419   2422   2423     1  0.0000000  0.6508444  3
   2421   2419   2422   2424     1  0.0000000  0.6508444  3
   2423   2422   2425   2428     1  0.0000000  0.6508444  3
   2423   2422   2425   2426     1  0.0000000  0.6508444  3
   2423   2422   2425   2427     1  0.0000000  0.6508444  3
   2423   2422   2419   2449     1  0.0000000  1.0460000  1
   2423   2422   2419   2449     1  0.0000000  0.0000000  3
   2424   2422   2425   2428     1  0.0000000  0.6508444  3
   2424   2422   2425   2426     1  0.0000000  0.6508444  3
   2424   2422   2425   2427     1  0.0000000  0.6508444  3
   2424   2422   2419   2449     1  0.0000000  1.0460000  1
   2424   2422   2419   2449     1  0.0000000  0.0000000  3
   2425   2428   2429   2430     1  0.0000000  1.2552000  3
   2425   2428   2429   2431     1  0.0000000  1.2552000  3
   2425   2428   2439   2440     1  0.0000000  1.2552000  3
   2425   2428   2439   2441     1  0.0000000  1.2552000  3
   2426   2425   2428   2429     1  0.0000000  1.2552000  3
   2426   2425   2428   2439     1  0.0000000  1.2552000  3
   2427   2425   2428   2429     1  0.0000000  1.2552000  3
   2427   2425   2428   2439     1  0.0000000  1.2552000  3
   2428   2429   2432   2433     1  0.0000000  0.6508444  3
   2428   2429   2432   2434     1  0.0000000  0.6508444  3
   2428   2439   2442   2443     1  0.0000000  0.6508444  3
   2428   2439   2442   2444     1  0.0000000  0.6508444  3
   2429   2428   2439   2440     1  0.0000000  1.2552000  3
   2429   2428   2439   2441     1  0.0000000  1.2552000  3
   2430   2429   2432   2435     1  0.0000000  0.6508444  3
   2430   2429   2432   2433     1  0.0000000  0.6508444  3
   2430   2429   2432   2434     1  0.0000000  0.6508444  3
   2430   2429   2428   2439     1  0.0000000  1.2552000  3
   2431   2429   2432   2435     1  0.0000000  0.6508444  3
   2431   2429   2432   2433     1  0.0000000  0.6508444  3
   2431   2429   2432   2434     1  0.0000000  0.6508444  3
   2431   2429   2428   2439     1  0.0000000  1.2552000  3
   2432   2435   2437   2438     1  180.0000771  9.6232000  2
   2433   2432   2435   2436     1  0.0000000  3.3472000  1
   2433   2432   2435   2436     1  0.0000000  0.0000000  2
   2433   2432   2435   2436     1  180.0000771  0.3347200  3
   2433   2432   2435   2437     1  180.0000771  0.0000000  2
   2434   2432   2435   2436     1  0.0000000  3.3472000  1
   2434   2432   2435   2436     1  0.0000000  0.0000000  2
   2434   2432   2435   2436     1  180.0000771  0.3347200  3
   2434   2432   2435   2437     1  180.0000771  0.0000000  2
   2436   2435   2437   2438     1  0.0000000  7.9496000  1
   2436   2435   2437   2438     1  180.0000771  9.6232000  2
   2440   2439   2442   2445     1  0.0000000  0.6508444  3
   2440   2439   2442   2443     1  0.0000000  0.6508444  3
   2440   2439   2442   2444     1  0.0000000  0.6508444  3
   2441   2439   2442   2445     1  0.0000000  0.6508444  3
   2441   2439   2442   2443     1  0.0000000  0.6508444  3
   2441   2439   2442   2444     1  0.0000000  0.6508444  3
   2442   2445   2447   2448     1  180.0000771  9.6232000  2
   2443   2442   2445   2446     1  0.0000000  3.3472000  1
   2443   2442   2445   2446     1  0.0000000  0.0000000  2
   2443   2442   2445   2446     1  180.0000771  0.3347200  3
   2443   2442   2445   2447     1  180.0000771  0.0000000  2
   2444   2442   2445   2446     1  0.0000000  3.3472000  1
   2444   2442   2445   2446     1  0.0000000  0.0000000  2
   2444   2442   2445   2446     1  180.0000771  0.3347200  3
   2444   2442   2445   2447     1  180.0000771  0.0000000  2
   2446   2445   2447   2448     1  0.0000000  7.9496000  1
   2446   2445   2447   2448     1  180.0000771  9.6232000  2
   2450   2453   2456   2457     1  0.0000000  0.6508444  3
   2450   2453   2456   2458     1  0.0000000  0.6508444  3
   2451   2450   2453   2456     1  0.0000000  0.6508444  3
   2451   2450   2453   2454     1  0.0000000  0.6508444  3
   2451   2450   2453   2455     1  0.0000000  0.6508444  3
   2452   2450   2453   2456     1  0.0000000  0.6508444  3
   2452   2450   2453   2454     1  0.0000000  0.6508444  3
   2452   2450   2453   2455     1  0.0000000  0.6508444  3
   2454   2453   2450   2480     1  0.0000000  1.0460000  1
   2454   2453   2450   2480     1  0.0000000  0.0000000  3
   2454   2453   2456   2459     1  0.0000000  0.6508444  3
   2454   2453   2456   2457     1  0.0000000  0.6508444  3
   2454   2453   2456   2458     1  0.0000000  0.6508444  3
   2455   2453   2450   2480     1  0.0000000  1.0460000  1
   2455   2453   2450   2480     1  0.0000000  0.0000000  3
   2455   2453   2456   2459     1  0.0000000  0.6508444  3
   2455   2453   2456   2457     1  0.0000000  0.6508444  3
   2455   2453   2456   2458     1  0.0000000  0.6508444  3
   2456   2459   2460   2461     1  0.0000000  1.2552000  3
   2456   2459   2460   2462     1  0.0000000  1.2552000  3
   2456   2459   2470   2471     1  0.0000000  1.2552000  3
   2456   2459   2470   2472     1  0.0000000  1.2552000  3
   2457   2456   2459   2460     1  0.0000000  1.2552000  3
   2457   2456   2459   2470     1  0.0000000  1.2552000  3
   2458   2456   2459   2460     1  0.0000000  1.2552000  3
   2458   2456   2459   2470     1  0.0000000  1.2552000  3
   2459   2460   2463   2464     1  0.0000000  0.6508444  3
   2459   2460   2463   2465     1  0.0000000  0.6508444  3
   2459   2470   2473   2474     1  0.0000000  0.6508444  3
   2459   2470   2473   2475     1  0.0000000  0.6508444  3
   2460   2459   2470   2471     1  0.0000000  1.2552000  3
   2460   2459   2470   2472     1  0.0000000  1.2552000  3
   2461   2460   2459   2470     1  0.0000000  1.2552000  3
   2461   2460   2463   2466     1  0.0000000  0.6508444  3
   2461   2460   2463   2464     1  0.0000000  0.6508444  3
   2461   2460   2463   2465     1  0.0000000  0.6508444  3
   2462   2460   2459   2470     1  0.0000000  1.2552000  3
   2462   2460   2463   2466     1  0.0000000  0.6508444  3
   2462   2460   2463   2464     1  0.0000000  0.6508444  3
   2462   2460   2463   2465     1  0.0000000  0.6508444  3
   2463   2466   2468   2469     1  180.0000771  9.6232000  2
   2464   2463   2466   2467     1  0.0000000  3.3472000  1
   2464   2463   2466   2467     1  0.0000000  0.0000000  2
   2464   2463   2466   2467     1  180.0000771  0.3347200  3
   2464   2463   2466   2468     1  180.0000771  0.0000000  2
   2465   2463   2466   2467     1  0.0000000  3.3472000  1
   2465   2463   2466   2467     1  0.0000000  0.0000000  2
   2465   2463   2466   2467     1  180.0000771  0.3347200  3
   2465   2463   2466   2468     1  180.0000771  0.0000000  2
   2467   2466   2468   2469     1  0.0000000  7.9496000  1
   2467   2466   2468   2469     1  180.0000771  9.6232000  2
   2471   2470   2473   2476     1  0.0000000  0.6508444  3
   2471   2470   2473   2474     1  0.0000000  0.6508444  3
   2471   2470   2473   2475     1  0.0000000  0.6508444  3
   2472   2470   2473   2476     1  0.0000000  0.6508444  3
   2472   2470   2473   2474     1  0.0000000  0.6508444  3
   2472   2470   2473   2475     1  0.0000000  0.6508444  3
   2473   2476   2478   2479     1  180.0000771  9.6232000  2
   2474   2473   2476   2477     1  0.0000000  3.3472000  1
   2474   2473   2476   2477     1  0.0000000  0.0000000  2
   2474   2473   2476   2477     1  180.0000771  0.3347200  3
   2474   2473   2476   2478     1  180.0000771  0.0000000  2
   2475   2473   2476   2477     1  0.0000000  3.3472000  1
   2475   2473   2476   2477     1  0.0000000  0.0000000  2
   2475   2473   2476   2477     1  180.0000771  0.3347200  3
   2475   2473   2476   2478     1  180.0000771  0.0000000  2
   2477   2476   2478   2479     1  0.0000000  7.9496000  1
   2477   2476   2478   2479     1  180.0000771  9.6232000  2
   2481   2484   2487   2488     1  0.0000000  0.6508444  3
   2481   2484   2487   2489     1  0.0000000  0.6508444  3
   2482   2481   2484   2487     1  0.0000000  0.6508444  3
   2482   2481   2484   2485     1  0.0000000  0.6508444  3
   2482   2481   2484   2486     1  0.0000000  0.6508444  3
   2483   2481   2484   2487     1  0.0000000  0.6508444  3
   2483   2481   2484   2485     1  0.0000000  0.6508444  3
   2483   2481   2484   2486     1  0.0000000  0.6508444  3
   2485   2484   2487   2490     1  0.0000000  0.6508444  3
   2485   2484   2487   2488     1  0.0000000  0.6508444  3
   2485   2484   2487   2489     1  0.0000000  0.6508444  3
   2485   2484   2481   2511     1  0.0000000  1.0460000  1
   2485   2484   2481   2511     1  0.0000000  0.0000000  3
   2486   2484   2487   2490     1  0.0000000  0.6508444  3
   2486   2484   2487   2488     1  0.0000000  0.6508444  3
   2486   2484   2487   2489     1  0.0000000  0.6508444  3
   2486   2484   2481   2511     1  0.0000000  1.0460000  1
   2486   2484   2481   2511     1  0.0000000  0.0000000  3
   2487   2490   2491   2492     1  0.0000000  1.2552000  3
   2487   2490   2491   2493     1  0.0000000  1.2552000  3
   2487   2490   2501   2502     1  0.0000000  1.2552000  3
   2487   2490   2501   2503     1  0.0000000  1.2552000  3
   2488   2487   2490   2491     1  0.0000000  1.2552000  3
   2488   2487   2490   2501     1  0.0000000  1.2552000  3
   2489   2487   2490   2491     1  0.0000000  1.2552000  3
   2489   2487   2490   2501     1  0.0000000  1.2552000  3
   2490   2491   2494   2495     1  0.0000000  0.6508444  3
   2490   2491   2494   2496     1  0.0000000  0.6508444  3
   2490   2501   2504   2505     1  0.0000000  0.6508444  3
   2490   2501   2504   2506     1  0.0000000  0.6508444  3
   2491   2490   2501   2502     1  0.0000000  1.2552000  3
   2491   2490   2501   2503     1  0.0000000  1.2552000  3
   2492   2491   2494   2497     1  0.0000000  0.6508444  3
   2492   2491   2494   2495     1  0.0000000  0.6508444  3
   2492   2491   2494   2496     1  0.0000000  0.6508444  3
   2492   2491   2490   2501     1  0.0000000  1.2552000  3
   2493   2491   2494   2497     1  0.0000000  0.6508444  3
   2493   2491   2494   2495     1  0.0000000  0.6508444  3
   2493   2491   2494   2496     1  0.0000000  0.6508444  3
   2493   2491   2490   2501     1  0.0000000  1.2552000  3
   2494   2497   2499   2500     1  180.0000771  9.6232000  2
   2495   2494   2497   2498     1  0.0000000  3.3472000  1
   2495   2494   2497   2498     1  0.0000000  0.0000000  2
   2495   2494   2497   2498     1  180.0000771  0.3347200  3
   2495   2494   2497   2499     1  180.0000771  0.0000000  2
   2496   2494   2497   2498     1  0.0000000  3.3472000  1
   2496   2494   2497   2498     1  0.0000000  0.0000000  2
   2496   2494   2497   2498     1  180.0000771  0.3347200  3
   2496   2494   2497   2499     1  180.0000771  0.0000000  2
   2498   2497   2499   2500     1  0.0000000  7.9496000  1
   2498   2497   2499   2500     1  180.0000771  9.6232000  2
   2502   2501   2504   2507     1  0.0000000  0.6508444  3
   2502   2501   2504   2505     1  0.0000000  0.6508444  3
   2502   2501   2504   2506     1  0.0000000  0.6508444  3
   2503   2501   2504   2507     1  0.0000000  0.6508444  3
   2503   2501   2504   2505     1  0.0000000  0.6508444  3
   2503   2501   2504   2506     1  0.0000000  0.6508444  3
   2504   2507   2509   2510     1  180.0000771  9.6232000  2
   2505   2504   2507   2508     1  0.0000000  3.3472000  1
   2505   2504   2507   2508     1  0.0000000  0.0000000  2
   2505   2504   2507   2508     1  180.0000771  0.3347200  3
   2505   2504   2507   2509     1  180.0000771  0.0000000  2
   2506   2504   2507   2508     1  0.0000000  3.3472000  1
   2506   2504   2507   2508     1  0.0000000  0.0000000  2
   2506   2504   2507   2508     1  180.0000771  0.3347200  3
   2506   2504   2507   2509     1  180.0000771  0.0000000  2
   2508   2507   2509   2510     1  0.0000000  7.9496000  1
   2508   2507   2509   2510     1  180.0000771  9.6232000  2
   2512   2515   2518   2519     1  0.0000000  0.6508444  3
   2512   2515   2518   2520     1  0.0000000  0.6508444  3
   2513   2512   2515   2518     1  0.0000000  0.6508444  3
   2513   2512   2515   2516     1  0.0000000  0.6508444  3
   2513   2512   2515   2517     1  0.0000000  0.6508444  3
   2514   2512   2515   2518     1  0.0000000  0.6508444  3
   2514   2512   2515   2516     1  0.0000000  0.6508444  3
   2514   2512   2515   2517     1  0.0000000  0.6508444  3
   2516   2515   2512   2542     1  0.0000000  1.0460000  1
   2516   2515   2512   2542     1  0.0000000  0.0000000  3
   2516   2515   2518   2521     1  0.0000000  0.6508444  3
   2516   2515   2518   2519     1  0.0000000  0.6508444  3
   2516   2515   2518   2520     1  0.0000000  0.6508444  3
   2517   2515   2512   2542     1  0.0000000  1.0460000  1
   2517   2515   2512   2542     1  0.0000000  0.0000000  3
   2517   2515   2518   2521     1  0.0000000  0.6508444  3
   2517   2515   2518   2519     1  0.0000000  0.6508444  3
   2517   2515   2518   2520     1  0.0000000  0.6508444  3
   2518   2521   2522   2523     1  0.0000000  1.2552000  3
   2518   2521   2522   2524     1  0.0000000  1.2552000  3
   2518   2521   2532   2533     1  0.0000000  1.2552000  3
   2518   2521   2532   2534     1  0.0000000  1.2552000  3
   2519   2518   2521   2522     1  0.0000000  1.2552000  3
   2519   2518   2521   2532     1  0.0000000  1.2552000  3
   2520   2518   2521   2522     1  0.0000000  1.2552000  3
   2520   2518   2521   2532     1  0.0000000  1.2552000  3
   2521   2522   2525   2526     1  0.0000000  0.6508444  3
   2521   2522   2525   2527     1  0.0000000  0.6508444  3
   2521   2532   2535   2536     1  0.0000000  0.6508444  3
   2521   2532   2535   2537     1  0.0000000  0.6508444  3
   2522   2521   2532   2533     1  0.0000000  1.2552000  3
   2522   2521   2532   2534     1  0.0000000  1.2552000  3
   2523   2522   2521   2532     1  0.0000000  1.2552000  3
   2523   2522   2525   2528     1  0.0000000  0.6508444  3
   2523   2522   2525   2526     1  0.0000000  0.6508444  3
   2523   2522   2525   2527     1  0.0000000  0.6508444  3
   2524   2522   2521   2532     1  0.0000000  1.2552000  3
   2524   2522   2525   2528     1  0.0000000  0.6508444  3
   2524   2522   2525   2526     1  0.0000000  0.6508444  3
   2524   2522   2525   2527     1  0.0000000  0.6508444  3
   2525   2528   2530   2531     1  180.0000771  9.6232000  2
   2526   2525   2528   2529     1  0.0000000  3.3472000  1
   2526   2525   2528   2529     1  0.0000000  0.0000000  2
   2526   2525   2528   2529     1  180.0000771  0.3347200  3
   2526   2525   2528   2530     1  180.0000771  0.0000000  2
   2527   2525   2528   2529     1  0.0000000  3.3472000  1
   2527   2525   2528   2529     1  0.0000000  0.0000000  2
   2527   2525   2528   2529     1  180.0000771  0.3347200  3
   2527   2525   2528   2530     1  180.0000771  0.0000000  2
   2529   2528   2530   2531     1  0.0000000  7.9496000  1
   2529   2528   2530   2531     1  180.0000771  9.6232000  2
   2533   2532   2535   2538     1  0.0000000  0.6508444  3
   2533   2532   2535   2536     1  0.0000000  0.6508444  3
   2533   2532   2535   2537     1  0.0000000  0.6508444  3
   2534   2532   2535   2538     1  0.0000000  0.6508444  3
   2534   2532   2535   2536     1  0.0000000  0.6508444  3
   2534   2532   2535   2537     1  0.0000000  0.6508444  3
   2535   2538   2540   2541     1  180.0000771  9.6232000  2
   2536   2535   2538   2539     1  0.0000000  3.3472000  1
   2536   2535   2538   2539     1  0.0000000  0.0000000  2
   2536   2535   2538   2539     1  180.0000771  0.3347200  3
   2536   2535   2538   2540     1  180.0000771  0.0000000  2
   2537   2535   2538   2539     1  0.0000000  3.3472000  1
   2537   2535   2538   2539     1  0.0000000  0.0000000  2
   2537   2535   2538   2539     1  180.0000771  0.3347200  3
   2537   2535   2538   2540     1  180.0000771  0.0000000  2
   2539   2538   2540   2541     1  0.0000000  7.9496000  1
   2539   2538   2540   2541     1  180.0000771  9.6232000  2
   2543   2546   2549   2550     1  0.0000000  0.6508444  3
   2543   2546   2549   2551     1  0.0000000  0.6508444  3
   2544   2543   2546   2549     1  0.0000000  0.6508444  3
   2544   2543   2546   2547     1  0.0000000  0.6508444  3
   2544   2543   2546   2548     1  0.0000000  0.6508444  3
   2545   2543   2546   2549     1  0.0000000  0.6508444  3
   2545   2543   2546   2547     1  0.0000000  0.6508444  3
   2545   2543   2546   2548     1  0.0000000  0.6508444  3
   2547   2546   2549   2552     1  0.0000000  0.6508444  3
   2547   2546   2549   2550     1  0.0000000  0.6508444  3
   2547   2546   2549   2551     1  0.0000000  0.6508444  3
   2547   2546   2543   2573     1  0.0000000  1.0460000  1
   2547   2546   2543   2573     1  0.0000000  0.0000000  3
   2548   2546   2549   2552     1  0.0000000  0.6508444  3
   2548   2546   2549   2550     1  0.0000000  0.6508444  3
   2548   2546   2549   2551     1  0.0000000  0.6508444  3
   2548   2546   2543   2573     1  0.0000000  1.0460000  1
   2548   2546   2543   2573     1  0.0000000  0.0000000  3
   2549   2552   2553   2554     1  0.0000000  1.2552000  3
   2549   2552   2553   2555     1  0.0000000  1.2552000  3
   2549   2552   2563   2564     1  0.0000000  1.2552000  3
   2549   2552   2563   2565     1  0.0000000  1.2552000  3
   2550   2549   2552   2553     1  0.0000000  1.2552000  3
   2550   2549   2552   2563     1  0.0000000  1.2552000  3
   2551   2549   2552   2553     1  0.0000000  1.2552000  3
   2551   2549   2552   2563     1  0.0000000  1.2552000  3
   2552   2553   2556   2557     1  0.0000000  0.6508444  3
   2552   2553   2556   2558     1  0.0000000  0.6508444  3
   2552   2563   2566   2567     1  0.0000000  0.6508444  3
   2552   2563   2566   2568     1  0.0000000  0.6508444  3
   2553   2552   2563   2564     1  0.0000000  1.2552000  3
   2553   2552   2563   2565     1  0.0000000  1.2552000  3
   2554   2553   2556   2559     1  0.0000000  0.6508444  3
   2554   2553   2556   2557     1  0.0000000  0.6508444  3
   2554   2553   2556   2558     1  0.0000000  0.6508444  3
   2554   2553   2552   2563     1  0.0000000  1.2552000  3
   2555   2553   2556   2559     1  0.0000000  0.6508444  3
   2555   2553   2556   2557     1  0.0000000  0.6508444  3
   2555   2553   2556   2558     1  0.0000000  0.6508444  3
   2555   2553   2552   2563     1  0.0000000  1.2552000  3
   2556   2559   2561   2562     1  180.0000771  9.6232000  2
   2557   2556   2559   2560     1  0.0000000  3.3472000  1
   2557   2556   2559   2560     1  0.0000000  0.0000000  2
   2557   2556   2559   2560     1  180.0000771  0.3347200  3
   2557   2556   2559   2561     1  180.0000771  0.0000000  2
   2558   2556   2559   2560     1  0.0000000  3.3472000  1
   2558   2556   2559   2560     1  0.0000000  0.0000000  2
   2558   2556   2559   2560     1  180.0000771  0.3347200  3
   2558   2556   2559   2561     1  180.0000771  0.0000000  2
   2560   2559   2561   2562     1  0.0000000  7.9496000  1
   2560   2559   2561   2562     1  180.0000771  9.6232000  2
   2564   2563   2566   2569     1  0.0000000  0.6508444  3
   2564   2563   2566   2567     1  0.0000000  0.6508444  3
   2564   2563   2566   2568     1  0.0000000  0.6508444  3
   2565   2563   2566   2569     1  0.0000000  0.6508444  3
   2565   2563   2566   2567     1  0.0000000  0.6508444  3
   2565   2563   2566   2568     1  0.0000000  0.6508444  3
   2566   2569   2571   2572     1  180.0000771  9.6232000  2
   2567   2566   2569   2570     1  0.0000000  3.3472000  1
   2567   2566   2569   2570     1  0.0000000  0.0000000  2
   2567   2566   2569   2570     1  180.0000771  0.3347200  3
   2567   2566   2569   2571     1  180.0000771  0.0000000  2
   2568   2566   2569   2570     1  0.0000000  3.3472000  1
   2568   2566   2569   2570     1  0.0000000  0.0000000  2
   2568   2566   2569   2570     1  180.0000771  0.3347200  3
   2568   2566   2569   2571     1  180.0000771  0.0000000  2
   2570   2569   2571   2572     1  0.0000000  7.9496000  1
   2570   2569   2571   2572     1  180.0000771  9.6232000  2
   2574   2577   2580   2581     1  0.0000000  0.6508444  3
   2574   2577   2580   2582     1  0.0000000  0.6508444  3
   2575   2574   2577   2580     1  0.0000000  0.6508444  3
   2575   2574   2577   2578     1  0.0000000  0.6508444  3
   2575   2574   2577   2579     1  0.0000000  0.6508444  3
   2576   2574   2577   2580     1  0.0000000  0.6508444  3
   2576   2574   2577   2578     1  0.0000000  0.6508444  3
   2576   2574   2577   2579     1  0.0000000  0.6508444  3
   2578   2577   2574   2604     1  0.0000000  1.0460000  1
   2578   2577   2574   2604     1  0.0000000  0.0000000  3
   2578   2577   2580   2583     1  0.0000000  0.6508444  3
   2578   2577   2580   2581     1  0.0000000  0.6508444  3
   2578   2577   2580   2582     1  0.0000000  0.6508444  3
   2579   2577   2574   2604     1  0.0000000  1.0460000  1
   2579   2577   2574   2604     1  0.0000000  0.0000000  3
   2579   2577   2580   2583     1  0.0000000  0.6508444  3
   2579   2577   2580   2581     1  0.0000000  0.6508444  3
   2579   2577   2580   2582     1  0.0000000  0.6508444  3
   2580   2583   2584   2585     1  0.0000000  1.2552000  3
   2580   2583   2584   2586     1  0.0000000  1.2552000  3
   2580   2583   2594   2595     1  0.0000000  1.2552000  3
   2580   2583   2594   2596     1  0.0000000  1.2552000  3
   2581   2580   2583   2584     1  0.0000000  1.2552000  3
   2581   2580   2583   2594     1  0.0000000  1.2552000  3
   2582   2580   2583   2584     1  0.0000000  1.2552000  3
   2582   2580   2583   2594     1  0.0000000  1.2552000  3
   2583   2584   2587   2588     1  0.0000000  0.6508444  3
   2583   2584   2587   2589     1  0.0000000  0.6508444  3
   2583   2594   2597   2598     1  0.0000000  0.6508444  3
   2583   2594   2597   2599     1  0.0000000  0.6508444  3
   2584   2583   2594   2595     1  0.0000000  1.2552000  3
   2584   2583   2594   2596     1  0.0000000  1.2552000  3
   2585   2584   2583   2594     1  0.0000000  1.2552000  3
   2585   2584   2587   2590     1  0.0000000  0.6508444  3
   2585   2584   2587   2588     1  0.0000000  0.6508444  3
   2585   2584   2587   2589     1  0.0000000  0.6508444  3
   2586   2584   2583   2594     1  0.0000000  1.2552000  3
   2586   2584   2587   2590     1  0.0000000  0.6508444  3
   2586   2584   2587   2588     1  0.0000000  0.6508444  3
   2586   2584   2587   2589     1  0.0000000  0.6508444  3
   2587   2590   2592   2593     1  180.0000771  9.6232000  2
   2588   2587   2590   2591     1  0.0000000  3.3472000  1
   2588   2587   2590   2591     1  0.0000000  0.0000000  2
   2588   2587   2590   2591     1  180.0000771  0.3347200  3
   2588   2587   2590   2592     1  180.0000771  0.0000000  2
   2589   2587   2590   2591     1  0.0000000  3.3472000  1
   2589   2587   2590   2591     1  0.0000000  0.0000000  2
   2589   2587   2590   2591     1  180.0000771  0.3347200  3
   2589   2587   2590   2592     1  180.0000771  0.0000000  2
   2591   2590   2592   2593     1  0.0000000  7.9496000  1
   2591   2590   2592   2593     1  180.0000771  9.6232000  2
   2595   2594   2597   2600     1  0.0000000  0.6508444  3
   2595   2594   2597   2598     1  0.0000000  0.6508444  3
   2595   2594   2597   2599     1  0.0000000  0.6508444  3
   2596   2594   2597   2600     1  0.0000000  0.6508444  3
   2596   2594   2597   2598     1  0.0000000  0.6508444  3
   2596   2594   2597   2599     1  0.0000000  0.6508444  3
   2597   2600   2602   2603     1  180.0000771  9.6232000  2
   2598   2597   2600   2601     1  0.0000000  3.3472000  1
   2598   2597   2600   2601     1  0.0000000  0.0000000  2
   2598   2597   2600   2601     1  180.0000771  0.3347200  3
   2598   2597   2600   2602     1  180.0000771  0.0000000  2
   2599   2597   2600   2601     1  0.0000000  3.3472000  1
   2599   2597   2600   2601     1  0.0000000  0.0000000  2
   2599   2597   2600   2601     1  180.0000771  0.3347200  3
   2599   2597   2600   2602     1  180.0000771  0.0000000  2
   2601   2600   2602   2603     1  0.0000000  7.9496000  1
   2601   2600   2602   2603     1  180.0000771  9.6232000  2
   2605   2608   2611   2612     1  0.0000000  0.6508444  3
   2605   2608   2611   2613     1  0.0000000  0.6508444  3
   2606   2605   2608   2611     1  0.0000000  0.6508444  3
   2606   2605   2608   2609     1  0.0000000  0.6508444  3
   2606   2605   2608   2610     1  0.0000000  0.6508444  3
   2607   2605   2608   2611     1  0.0000000  0.6508444  3
   2607   2605   2608   2609     1  0.0000000  0.6508444  3
   2607   2605   2608   2610     1  0.0000000  0.6508444  3
   2609   2608   2611   2614     1  0.0000000  0.6508444  3
   2609   2608   2611   2612     1  0.0000000  0.6508444  3
   2609   2608   2611   2613     1  0.0000000  0.6508444  3
   2609   2608   2605   2635     1  0.0000000  1.0460000  1
   2609   2608   2605   2635     1  0.0000000  0.0000000  3
   2610   2608   2611   2614     1  0.0000000  0.6508444  3
   2610   2608   2611   2612     1  0.0000000  0.6508444  3
   2610   2608   2611   2613     1  0.0000000  0.6508444  3
   2610   2608   2605   2635     1  0.0000000  1.0460000  1
   2610   2608   2605   2635     1  0.0000000  0.0000000  3
   2611   2614   2615   2616     1  0.0000000  1.2552000  3
   2611   2614   2615   2617     1  0.0000000  1.2552000  3
   2611   2614   2625   2626     1  0.0000000  1.2552000  3
   2611   2614   2625   2627     1  0.0000000  1.2552000  3
   2612   2611   2614   2615     1  0.0000000  1.2552000  3
   2612   2611   2614   2625     1  0.0000000  1.2552000  3
   2613   2611   2614   2615     1  0.0000000  1.2552000  3
   2613   2611   2614   2625     1  0.0000000  1.2552000  3
   2614   2615   2618   2619     1  0.0000000  0.6508444  3
   2614   2615   2618   2620     1  0.0000000  0.6508444  3
   2614   2625   2628   2629     1  0.0000000  0.6508444  3
   2614   2625   2628   2630     1  0.0000000  0.6508444  3
   2615   2614   2625   2626     1  0.0000000  1.2552000  3
   2615   2614   2625   2627     1  0.0000000  1.2552000  3
   2616   2615   2618   2621     1  0.0000000  0.6508444  3
   2616   2615   2618   2619     1  0.0000000  0.6508444  3
   2616   2615   2618   2620     1  0.0000000  0.6508444  3
   2616   2615   2614   2625     1  0.0000000  1.2552000  3
   2617   2615   2618   2621     1  0.0000000  0.6508444  3
   2617   2615   2618   2619     1  0.0000000  0.6508444  3
   2617   2615   2618   2620     1  0.0000000  0.6508444  3
   2617   2615   2614   2625     1  0.0000000  1.2552000  3
   2618   2621   2623   2624     1  180.0000771  9.6232000  2
   2619   2618   2621   2622     1  0.0000000  3.3472000  1
   2619   2618   2621   2622     1  0.0000000  0.0000000  2
   2619   2618   2621   2622     1  180.0000771  0.3347200  3
   2619   2618   2621   2623     1  180.0000771  0.0000000  2
   2620   2618   2621   2622     1  0.0000000  3.3472000  1
   2620   2618   2621   2622     1  0.0000000  0.0000000  2
   2620   2618   2621   2622     1  180.0000771  0.3347200  3
   2620   2618   2621   2623     1  180.0000771  0.0000000  2
   2622   2621   2623   2624     1  0.0000000  7.9496000  1
   2622   2621   2623   2624     1  180.0000771  9.6232000  2
   2626   2625   2628   2631     1  0.0000000  0.6508444  3
   2626   2625   2628   2629     1  0.0000000  0.6508444  3
   2626   2625   2628   2630     1  0.0000000  0.6508444  3
   2627   2625   2628   2631     1  0.0000000  0.6508444  3
   2627   2625   2628   2629     1  0.0000000  0.6508444  3
   2627   2625   2628   2630     1  0.0000000  0.6508444  3
   2628   2631   2633   2634     1  180.0000771  9.6232000  2
   2629   2628   2631   2632     1  0.0000000  3.3472000  1
   2629   2628   2631   2632     1  0.0000000  0.0000000  2
   2629   2628   2631   2632     1  180.0000771  0.3347200  3
   2629   2628   2631   2633     1  180.0000771  0.0000000  2
   2630   2628   2631   2632     1  0.0000000  3.3472000  1
   2630   2628   2631   2632     1  0.0000000  0.0000000  2
   2630   2628   2631   2632     1  180.0000771  0.3347200  3
   2630   2628   2631   2633     1  180.0000771  0.0000000  2
   2632   2631   2633   2634     1  0.0000000  7.9496000  1
   2632   2631   2633   2634     1  180.0000771  9.6232000  2
   2636   2639   2642   2643     1  0.0000000  0.6508444  3
   2636   2639   2642   2644     1  0.0000000  0.6508444  3
   2637   2636   2639   2642     1  0.0000000  0.6508444  3
   2637   2636   2639   2640     1  0.0000000  0.6508444  3
   2637   2636   2639   2641     1  0.0000000  0.6508444  3
   2638   2636   2639   2642     1  0.0000000  0.6508444  3
   2638   2636   2639   2640     1  0.0000000  0.6508444  3
   2638   2636   2639   2641     1  0.0000000  0.6508444  3
   2640   2639   2636   2666     1  0.0000000  1.0460000  1
   2640   2639   2636   2666     1  0.0000000  0.0000000  3
   2640   2639   2642   2645     1  0.0000000  0.6508444  3
   2640   2639   2642   2643     1  0.0000000  0.6508444  3
   2640   2639   2642   2644     1  0.0000000  0.6508444  3
   2641   2639   2636   2666     1  0.0000000  1.0460000  1
   2641   2639   2636   2666     1  0.0000000  0.0000000  3
   2641   2639   2642   2645     1  0.0000000  0.6508444  3
   2641   2639   2642   2643     1  0.0000000  0.6508444  3
   2641   2639   2642   2644     1  0.0000000  0.6508444  3
   2642   2645   2646   2647     1  0.0000000  1.2552000  3
   2642   2645   2646   2648     1  0.0000000  1.2552000  3
   2642   2645   2656   2657     1  0.0000000  1.2552000  3
   2642   2645   2656   2658     1  0.0000000  1.2552000  3
   2643   2642   2645   2646     1  0.0000000  1.2552000  3
   2643   2642   2645   2656     1  0.0000000  1.2552000  3
   2644   2642   2645   2646     1  0.0000000  1.2552000  3
   2644   2642   2645   2656     1  0.0000000  1.2552000  3
   2645   2646   2649   2650     1  0.0000000  0.6508444  3
   2645   2646   2649   2651     1  0.0000000  0.6508444  3
   2645   2656   2659   2660     1  0.0000000  0.6508444  3
   2645   2656   2659   2661     1  0.0000000  0.6508444  3
   2646   2645   2656   2657     1  0.0000000  1.2552000  3
   2646   2645   2656   2658     1  0.0000000  1.2552000  3
   2647   2646   2645   2656     1  0.0000000  1.2552000  3
   2647   2646   2649   2652     1  0.0000000  0.6508444  3
   2647   2646   2649   2650     1  0.0000000  0.6508444  3
   2647   2646   2649   2651     1  0.0000000  0.6508444  3
   2648   2646   2645   2656     1  0.0000000  1.2552000  3
   2648   2646   2649   2652     1  0.0000000  0.6508444  3
   2648   2646   2649   2650     1  0.0000000  0.6508444  3
   2648   2646   2649   2651     1  0.0000000  0.6508444  3
   2649   2652   2654   2655     1  180.0000771  9.6232000  2
   2650   2649   2652   2653     1  0.0000000  3.3472000  1
   2650   2649   2652   2653     1  0.0000000  0.0000000  2
   2650   2649   2652   2653     1  180.0000771  0.3347200  3
   2650   2649   2652   2654     1  180.0000771  0.0000000  2
   2651   2649   2652   2653     1  0.0000000  3.3472000  1
   2651   2649   2652   2653     1  0.0000000  0.0000000  2
   2651   2649   2652   2653     1  180.0000771  0.3347200  3
   2651   2649   2652   2654     1  180.0000771  0.0000000  2
   2653   2652   2654   2655     1  0.0000000  7.9496000  1
   2653   2652   2654   2655     1  180.0000771  9.6232000  2
   2657   2656   2659   2662     1  0.0000000  0.6508444  3
   2657   2656   2659   2660     1  0.0000000  0.6508444  3
   2657   2656   2659   2661     1  0.0000000  0.6508444  3
   2658   2656   2659   2662     1  0.0000000  0.6508444  3
   2658   2656   2659   2660     1  0.0000000  0.6508444  3
   2658   2656   2659   2661     1  0.0000000  0.6508444  3
   2659   2662   2664   2665     1  180.0000771  9.6232000  2
   2660   2659   2662   2663     1  0.0000000  3.3472000  1
   2660   2659   2662   2663     1  0.0000000  0.0000000  2
   2660   2659   2662   2663     1  180.0000771  0.3347200  3
   2660   2659   2662   2664     1  180.0000771  0.0000000  2
   2661   2659   2662   2663     1  0.0000000  3.3472000  1
   2661   2659   2662   2663     1  0.0000000  0.0000000  2
   2661   2659   2662   2663     1  180.0000771  0.3347200  3
   2661   2659   2662   2664     1  180.0000771  0.0000000  2
   2663   2662   2664   2665     1  0.0000000  7.9496000  1
   2663   2662   2664   2665     1  180.0000771  9.6232000  2
   2667   2670   2673   2674     1  0.0000000  0.6508444  3
   2667   2670   2673   2675     1  0.0000000  0.6508444  3
   2668   2667   2670   2673     1  0.0000000  0.6508444  3
   2668   2667   2670   2671     1  0.0000000  0.6508444  3
   2668   2667   2670   2672     1  0.0000000  0.6508444  3
   2669   2667   2670   2673     1  0.0000000  0.6508444  3
   2669   2667   2670   2671     1  0.0000000  0.6508444  3
   2669   2667   2670   2672     1  0.0000000  0.6508444  3
   2671   2670   2673   2676     1  0.0000000  0.6508444  3
   2671   2670   2673   2674     1  0.0000000  0.6508444  3
   2671   2670   2673   2675     1  0.0000000  0.6508444  3
   2671   2670   2667   2697     1  0.0000000  1.0460000  1
   2671   2670   2667   2697     1  0.0000000  0.0000000  3
   2672   2670   2673   2676     1  0.0000000  0.6508444  3
   2672   2670   2673   2674     1  0.0000000  0.6508444  3
   2672   2670   2673   2675     1  0.0000000  0.6508444  3
   2672   2670   2667   2697     1  0.0000000  1.0460000  1
   2672   2670   2667   2697     1  0.0000000  0.0000000  3
   2673   2676   2677   2678     1  0.0000000  1.2552000  3
   2673   2676   2677   2679     1  0.0000000  1.2552000  3
   2673   2676   2687   2688     1  0.0000000  1.2552000  3
   2673   2676   2687   2689     1  0.0000000  1.2552000  3
   2674   2673   2676   2677     1  0.0000000  1.2552000  3
   2674   2673   2676   2687     1  0.0000000  1.2552000  3
   2675   2673   2676   2677     1  0.0000000  1.2552000  3
   2675   2673   2676   2687     1  0.0000000  1.2552000  3
   2676   2677   2680   2681     1  0.0000000  0.6508444  3
   2676   2677   2680   2682     1  0.0000000  0.6508444  3
   2676   2687   2690   2691     1  0.0000000  0.6508444  3
   2676   2687   2690   2692     1  0.0000000  0.6508444  3
   2677   2676   2687   2688     1  0.0000000  1.2552000  3
   2677   2676   2687   2689     1  0.0000000  1.2552000  3
   2678   2677   2680   2683     1  0.0000000  0.6508444  3
   2678   2677   2680   2681     1  0.0000000  0.6508444  3
   2678   2677   2680   2682     1  0.0000000  0.6508444  3
   2678   2677   2676   2687     1  0.0000000  1.2552000  3
   2679   2677   2680   2683     1  0.0000000  0.6508444  3
   2679   2677   2680   2681     1  0.0000000  0.6508444  3
   2679   2677   2680   2682     1  0.0000000  0.6508444  3
   2679   2677   2676   2687     1  0.0000000  1.2552000  3
   2680   2683   2685   2686     1  180.0000771  9.6232000  2
   2681   2680   2683   2684     1  0.0000000  3.3472000  1
   2681   2680   2683   2684     1  0.0000000  0.0000000  2
   2681   2680   2683   2684     1  180.0000771  0.3347200  3
   2681   2680   2683   2685     1  180.0000771  0.0000000  2
   2682   2680   2683   2684     1  0.0000000  3.3472000  1
   2682   2680   2683   2684     1  0.0000000  0.0000000  2
   2682   2680   2683   2684     1  180.0000771  0.3347200  3
   2682   2680   2683   2685     1  180.0000771  0.0000000  2
   2684   2683   2685   2686     1  0.0000000  7.9496000  1
   2684   2683   2685   2686     1  180.0000771  9.6232000  2
   2688   2687   2690   2693     1  0.0000000  0.6508444  3
   2688   2687   2690   2691     1  0.0000000  0.6508444  3
   2688   2687   2690   2692     1  0.0000000  0.6508444  3
   2689   2687   2690   2693     1  0.0000000  0.6508444  3
   2689   2687   2690   2691     1  0.0000000  0.6508444  3
   2689   2687   2690   2692     1  0.0000000  0.6508444  3
   2690   2693   2695   2696     1  180.0000771  9.6232000  2
   2691   2690   2693   2694     1  0.0000000  3.3472000  1
   2691   2690   2693   2694     1  0.0000000  0.0000000  2
   2691   2690   2693   2694     1  180.0000771  0.3347200  3
   2691   2690   2693   2695     1  180.0000771  0.0000000  2
   2692   2690   2693   2694     1  0.0000000  3.3472000  1
   2692   2690   2693   2694     1  0.0000000  0.0000000  2
   2692   2690   2693   2694     1  180.0000771  0.3347200  3
   2692   2690   2693   2695     1  180.0000771  0.0000000  2
   2694   2693   2695   2696     1  0.0000000  7.9496000  1
   2694   2693   2695   2696     1  180.0000771  9.6232000  2
   2698   2701   2704   2705     1  0.0000000  0.6508444  3
   2698   2701   2704   2706     1  0.0000000  0.6508444  3
   2699   2698   2701   2704     1  0.0000000  0.6508444  3
   2699   2698   2701   2702     1  0.0000000  0.6508444  3
   2699   2698   2701   2703     1  0.0000000  0.6508444  3
   2700   2698   2701   2704     1  0.0000000  0.6508444  3
   2700   2698   2701   2702     1  0.0000000  0.6508444  3
   2700   2698   2701   2703     1  0.0000000  0.6508444  3
   2702   2701   2698   2728     1  0.0000000  1.0460000  1
   2702   2701   2698   2728     1  0.0000000  0.0000000  3
   2702   2701   2704   2707     1  0.0000000  0.6508444  3
   2702   2701   2704   2705     1  0.0000000  0.6508444  3
   2702   2701   2704   2706     1  0.0000000  0.6508444  3
   2703   2701   2698   2728     1  0.0000000  1.0460000  1
   2703   2701   2698   2728     1  0.0000000  0.0000000  3
   2703   2701   2704   2707     1  0.0000000  0.6508444  3
   2703   2701   2704   2705     1  0.0000000  0.6508444  3
   2703   2701   2704   2706     1  0.0000000  0.6508444  3
   2704   2707   2708   2709     1  0.0000000  1.2552000  3
   2704   2707   2708   2710     1  0.0000000  1.2552000  3
   2704   2707   2718   2719     1  0.0000000  1.2552000  3
   2704   2707   2718   2720     1  0.0000000  1.2552000  3
   2705   2704   2707   2708     1  0.0000000  1.2552000  3
   2705   2704   2707   2718     1  0.0000000  1.2552000  3
   2706   2704   2707   2708     1  0.0000000  1.2552000  3
   2706   2704   2707   2718     1  0.0000000  1.2552000  3
   2707   2708   2711   2712     1  0.0000000  0.6508444  3
   2707   2708   2711   2713     1  0.0000000  0.6508444  3
   2707   2718   2721   2722     1  0.0000000  0.6508444  3
   2707   2718   2721   2723     1  0.0000000  0.6508444  3
   2708   2707   2718   2719     1  0.0000000  1.2552000  3
   2708   2707   2718   2720     1  0.0000000  1.2552000  3
   2709   2708   2707   2718     1  0.0000000  1.2552000  3
   2709   2708   2711   2714     1  0.0000000  0.6508444  3
   2709   2708   2711   2712     1  0.0000000  0.6508444  3
   2709   2708   2711   2713     1  0.0000000  0.6508444  3
   2710   2708   2707   2718     1  0.0000000  1.2552000  3
   2710   2708   2711   2714     1  0.0000000  0.6508444  3
   2710   2708   2711   2712     1  0.0000000  0.6508444  3
   2710   2708   2711   2713     1  0.0000000  0.6508444  3
   2711   2714   2716   2717     1  180.0000771  9.6232000  2
   2712   2711   2714   2715     1  0.0000000  3.3472000  1
   2712   2711   2714   2715     1  0.0000000  0.0000000  2
   2712   2711   2714   2715     1  180.0000771  0.3347200  3
   2712   2711   2714   2716     1  180.0000771  0.0000000  2
   2713   2711   2714   2715     1  0.0000000  3.3472000  1
   2713   2711   2714   2715     1  0.0000000  0.0000000  2
   2713   2711   2714   2715     1  180.0000771  0.3347200  3
   2713   2711   2714   2716     1  180.0000771  0.0000000  2
   2715   2714   2716   2717     1  0.0000000  7.9496000  1
   2715   2714   2716   2717     1  180.0000771  9.6232000  2
   2719   2718   2721   2724     1  0.0000000  0.6508444  3
   2719   2718   2721   2722     1  0.0000000  0.6508444  3
   2719   2718   2721   2723     1  0.0000000  0.6508444  3
   2720   2718   2721   2724     1  0.0000000  0.6508444  3
   2720   2718   2721   2722     1  0.0000000  0.6508444  3
   2720   2718   2721   2723     1  0.0000000  0.6508444  3
   2721   2724   2726   2727     1  180.0000771  9.6232000  2
   2722   2721   2724   2725     1  0.0000000  3.3472000  1
   2722   2721   2724   2725     1  0.0000000  0.0000000  2
   2722   2721   2724   2725     1  180.0000771  0.3347200  3
   2722   2721   2724   2726     1  180.0000771  0.0000000  2
   2723   2721   2724   2725     1  0.0000000  3.3472000  1
   2723   2721   2724   2725     1  0.0000000  0.0000000  2
   2723   2721   2724   2725     1  180.0000771  0.3347200  3
   2723   2721   2724   2726     1  180.0000771  0.0000000  2
   2725   2724   2726   2727     1  0.0000000  7.9496000  1
   2725   2724   2726   2727     1  180.0000771  9.6232000  2
   2729   2732   2735   2736     1  0.0000000  0.6508444  3
   2729   2732   2735   2737     1  0.0000000  0.6508444  3
   2730   2729   2732   2735     1  0.0000000  0.6508444  3
   2730   2729   2732   2733     1  0.0000000  0.6508444  3
   2730   2729   2732   2734     1  0.0000000  0.6508444  3
   2731   2729   2732   2735     1  0.0000000  0.6508444  3
   2731   2729   2732   2733     1  0.0000000  0.6508444  3
   2731   2729   2732   2734     1  0.0000000  0.6508444  3
   2733   2732   2735   2738     1  0.0000000  0.6508444  3
   2733   2732   2735   2736     1  0.0000000  0.6508444  3
   2733   2732   2735   2737     1  0.0000000  0.6508444  3
   2733   2732   2729   2759     1  0.0000000  1.0460000  1
   2733   2732   2729   2759     1  0.0000000  0.0000000  3
   2734   2732   2735   2738     1  0.0000000  0.6508444  3
   2734   2732   2735   2736     1  0.0000000  0.6508444  3
   2734   2732   2735   2737     1  0.0000000  0.6508444  3
   2734   2732   2729   2759     1  0.0000000  1.0460000  1
   2734   2732   2729   2759     1  0.0000000  0.0000000  3
   2735   2738   2739   2740     1  0.0000000  1.2552000  3
   2735   2738   2739   2741     1  0.0000000  1.2552000  3
   2735   2738   2749   2750     1  0.0000000  1.2552000  3
   2735   2738   2749   2751     1  0.0000000  1.2552000  3
   2736   2735   2738   2739     1  0.0000000  1.2552000  3
   2736   2735   2738   2749     1  0.0000000  1.2552000  3
   2737   2735   2738   2739     1  0.0000000  1.2552000  3
   2737   2735   2738   2749     1  0.0000000  1.2552000  3
   2738   2739   2742   2743     1  0.0000000  0.6508444  3
   2738   2739   2742   2744     1  0.0000000  0.6508444  3
   2738   2749   2752   2753     1  0.0000000  0.6508444  3
   2738   2749   2752   2754     1  0.0000000  0.6508444  3
   2739   2738   2749   2750     1  0.0000000  1.2552000  3
   2739   2738   2749   2751     1  0.0000000  1.2552000  3
   2740   2739   2742   2745     1  0.0000000  0.6508444  3
   2740   2739   2742   2743     1  0.0000000  0.6508444  3
   2740   2739   2742   2744     1  0.0000000  0.6508444  3
   2740   2739   2738   2749     1  0.0000000  1.2552000  3
   2741   2739   2742   2745     1  0.0000000  0.6508444  3
   2741   2739   2742   2743     1  0.0000000  0.6508444  3
   2741   2739   2742   2744     1  0.0000000  0.6508444  3
   2741   2739   2738   2749     1  0.0000000  1.2552000  3
   2742   2745   2747   2748     1  180.0000771  9.6232000  2
   2743   2742   2745   2746     1  0.0000000  3.3472000  1
   2743   2742   2745   2746     1  0.0000000  0.0000000  2
   2743   2742   2745   2746     1  180.0000771  0.3347200  3
   2743   2742   2745   2747     1  180.0000771  0.0000000  2
   2744   2742   2745   2746     1  0.0000000  3.3472000  1
   2744   2742   2745   2746     1  0.0000000  0.0000000  2
   2744   2742   2745   2746     1  180.0000771  0.3347200  3
   2744   2742   2745   2747     1  180.0000771  0.0000000  2
   2746   2745   2747   2748     1  0.0000000  7.9496000  1
   2746   2745   2747   2748     1  180.0000771  9.6232000  2
   2750   2749   2752   2755     1  0.0000000  0.6508444  3
   2750   2749   2752   2753     1  0.0000000  0.6508444  3
   2750   2749   2752   2754     1  0.0000000  0.6508444  3
   2751   2749   2752   2755     1  0.0000000  0.6508444  3
   2751   2749   2752   2753     1  0.0000000  0.6508444  3
   2751   2749   2752   2754     1  0.0000000  0.6508444  3
   2752   2755   2757   2758     1  180.0000771  9.6232000  2
   2753   2752   2755   2756     1  0.0000000  3.3472000  1
   2753   2752   2755   2756     1  0.0000000  0.0000000  2
   2753   2752   2755   2756     1  180.0000771  0.3347200  3
   2753   2752   2755   2757     1  180.0000771  0.0000000  2
   2754   2752   2755   2756     1  0.0000000  3.3472000  1
   2754   2752   2755   2756     1  0.0000000  0.0000000  2
   2754   2752   2755   2756     1  180.0000771  0.3347200  3
   2754   2752   2755   2757     1  180.0000771  0.0000000  2
   2756   2755   2757   2758     1  0.0000000  7.9496000  1
   2756   2755   2757   2758     1  180.0000771  9.6232000  2
   2760   2763   2766   2767     1  0.0000000  0.6508444  3
   2760   2763   2766   2768     1  0.0000000  0.6508444  3
   2761   2760   2763   2766     1  0.0000000  0.6508444  3
   2761   2760   2763   2764     1  0.0000000  0.6508444  3
   2761   2760   2763   2765     1  0.0000000  0.6508444  3
   2762   2760   2763   2766     1  0.0000000  0.6508444  3
   2762   2760   2763   2764     1  0.0000000  0.6508444  3
   2762   2760   2763   2765     1  0.0000000  0.6508444  3
   2764   2763   2760   2790     1  0.0000000  1.0460000  1
   2764   2763   2760   2790     1  0.0000000  0.0000000  3
   2764   2763   2766   2769     1  0.0000000  0.6508444  3
   2764   2763   2766   2767     1  0.0000000  0.6508444  3
   2764   2763   2766   2768     1  0.0000000  0.6508444  3
   2765   2763   2760   2790     1  0.0000000  1.0460000  1
   2765   2763   2760   2790     1  0.0000000  0.0000000  3
   2765   2763   2766   2769     1  0.0000000  0.6508444  3
   2765   2763   2766   2767     1  0.0000000  0.6508444  3
   2765   2763   2766   2768     1  0.0000000  0.6508444  3
   2766   2769   2770   2771     1  0.0000000  1.2552000  3
   2766   2769   2770   2772     1  0.0000000  1.2552000  3
   2766   2769   2780   2781     1  0.0000000  1.2552000  3
   2766   2769   2780   2782     1  0.0000000  1.2552000  3
   2767   2766   2769   2770     1  0.0000000  1.2552000  3
   2767   2766   2769   2780     1  0.0000000  1.2552000  3
   2768   2766   2769   2770     1  0.0000000  1.2552000  3
   2768   2766   2769   2780     1  0.0000000  1.2552000  3
   2769   2770   2773   2774     1  0.0000000  0.6508444  3
   2769   2770   2773   2775     1  0.0000000  0.6508444  3
   2769   2780   2783   2784     1  0.0000000  0.6508444  3
   2769   2780   2783   2785     1  0.0000000  0.6508444  3
   2770   2769   2780   2781     1  0.0000000  1.2552000  3
   2770   2769   2780   2782     1  0.0000000  1.2552000  3
   2771   2770   2769   2780     1  0.0000000  1.2552000  3
   2771   2770   2773   2776     1  0.0000000  0.6508444  3
   2771   2770   2773   2774     1  0.0000000  0.6508444  3
   2771   2770   2773   2775     1  0.0000000  0.6508444  3
   2772   2770   2769   2780     1  0.0000000  1.2552000  3
   2772   2770   2773   2776     1  0.0000000  0.6508444  3
   2772   2770   2773   2774     1  0.0000000  0.6508444  3
   2772   2770   2773   2775     1  0.0000000  0.6508444  3
   2773   2776   2778   2779     1  180.0000771  9.6232000  2
   2774   2773   2776   2777     1  0.0000000  3.3472000  1
   2774   2773   2776   2777     1  0.0000000  0.0000000  2
   2774   2773   2776   2777     1  180.0000771  0.3347200  3
   2774   2773   2776   2778     1  180.0000771  0.0000000  2
   2775   2773   2776   2777     1  0.0000000  3.3472000  1
   2775   2773   2776   2777     1  0.0000000  0.0000000  2
   2775   2773   2776   2777     1  180.0000771  0.3347200  3
   2775   2773   2776   2778     1  180.0000771  0.0000000  2
   2777   2776   2778   2779     1  0.0000000  7.9496000  1
   2777   2776   2778   2779     1  180.0000771  9.6232000  2
   2781   2780   2783   2786     1  0.0000000  0.6508444  3
   2781   2780   2783   2784     1  0.0000000  0.6508444  3
   2781   2780   2783   2785     1  0.0000000  0.6508444  3
   2782   2780   2783   2786     1  0.0000000  0.6508444  3
   2782   2780   2783   2784     1  0.0000000  0.6508444  3
   2782   2780   2783   2785     1  0.0000000  0.6508444  3
   2783   2786   2788   2789     1  180.0000771  9.6232000  2
   2784   2783   2786   2787     1  0.0000000  3.3472000  1
   2784   2783   2786   2787     1  0.0000000  0.0000000  2
   2784   2783   2786   2787     1  180.0000771  0.3347200  3
   2784   2783   2786   2788     1  180.0000771  0.0000000  2
   2785   2783   2786   2787     1  0.0000000  3.3472000  1
   2785   2783   2786   2787     1  0.0000000  0.0000000  2
   2785   2783   2786   2787     1  180.0000771  0.3347200  3
   2785   2783   2786   2788     1  180.0000771  0.0000000  2
   2787   2786   2788   2789     1  0.0000000  7.9496000  1
   2787   2786   2788   2789     1  180.0000771  9.6232000  2
   2791   2794   2797   2798     1  0.0000000  0.6508444  3
   2791   2794   2797   2799     1  0.0000000  0.6508444  3
   2792   2791   2794   2797     1  0.0000000  0.6508444  3
   2792   2791   2794   2795     1  0.0000000  0.6508444  3
   2792   2791   2794   2796     1  0.0000000  0.6508444  3
   2793   2791   2794   2797     1  0.0000000  0.6508444  3
   2793   2791   2794   2795     1  0.0000000  0.6508444  3
   2793   2791   2794   2796     1  0.0000000  0.6508444  3
   2795   2794   2797   2800     1  0.0000000  0.6508444  3
   2795   2794   2797   2798     1  0.0000000  0.6508444  3
   2795   2794   2797   2799     1  0.0000000  0.6508444  3
   2795   2794   2791   2821     1  0.0000000  1.0460000  1
   2795   2794   2791   2821     1  0.0000000  0.0000000  3
   2796   2794   2797   2800     1  0.0000000  0.6508444  3
   2796   2794   2797   2798     1  0.0000000  0.6508444  3
   2796   2794   2797   2799     1  0.0000000  0.6508444  3
   2796   2794   2791   2821     1  0.0000000  1.0460000  1
   2796   2794   2791   2821     1  0.0000000  0.0000000  3
   2797   2800   2801   2802     1  0.0000000  1.2552000  3
   2797   2800   2801   2803     1  0.0000000  1.2552000  3
   2797   2800   2811   2812     1  0.0000000  1.2552000  3
   2797   2800   2811   2813     1  0.0000000  1.2552000  3
   2798   2797   2800   2801     1  0.0000000  1.2552000  3
   2798   2797   2800   2811     1  0.0000000  1.2552000  3
   2799   2797   2800   2801     1  0.0000000  1.2552000  3
   2799   2797   2800   2811     1  0.0000000  1.2552000  3
   2800   2801   2804   2805     1  0.0000000  0.6508444  3
   2800   2801   2804   2806     1  0.0000000  0.6508444  3
   2800   2811   2814   2815     1  0.0000000  0.6508444  3
   2800   2811   2814   2816     1  0.0000000  0.6508444  3
   2801   2800   2811   2812     1  0.0000000  1.2552000  3
   2801   2800   2811   2813     1  0.0000000  1.2552000  3
   2802   2801   2804   2807     1  0.0000000  0.6508444  3
   2802   2801   2804   2805     1  0.0000000  0.6508444  3
   2802   2801   2804   2806     1  0.0000000  0.6508444  3
   2802   2801   2800   2811     1  0.0000000  1.2552000  3
   2803   2801   2804   2807     1  0.0000000  0.6508444  3
   2803   2801   2804   2805     1  0.0000000  0.6508444  3
   2803   2801   2804   2806     1  0.0000000  0.6508444  3
   2803   2801   2800   2811     1  0.0000000  1.2552000  3
   2804   2807   2809   2810     1  180.0000771  9.6232000  2
   2805   2804   2807   2808     1  0.0000000  3.3472000  1
   2805   2804   2807   2808     1  0.0000000  0.0000000  2
   2805   2804   2807   2808     1  180.0000771  0.3347200  3
   2805   2804   2807   2809     1  180.0000771  0.0000000  2
   2806   2804   2807   2808     1  0.0000000  3.3472000  1
   2806   2804   2807   2808     1  0.0000000  0.0000000  2
   2806   2804   2807   2808     1  180.0000771  0.3347200  3
   2806   2804   2807   2809     1  180.0000771  0.0000000  2
   2808   2807   2809   2810     1  0.0000000  7.9496000  1
   2808   2807   2809   2810     1  180.0000771  9.6232000  2
   2812   2811   2814   2817     1  0.0000000  0.6508444  3
   2812   2811   2814   2815     1  0.0000000  0.6508444  3
   2812   2811   2814   2816     1  0.0000000  0.6508444  3
   2813   2811   2814   2817     1  0.0000000  0.6508444  3
   2813   2811   2814   2815     1  0.0000000  0.6508444  3
   2813   2811   2814   2816     1  0.0000000  0.6508444  3
   2814   2817   2819   2820     1  180.0000771  9.6232000  2
   2815   2814   2817   2818     1  0.0000000  3.3472000  1
   2815   2814   2817   2818     1  0.0000000  0.0000000  2
   2815   2814   2817   2818     1  180.0000771  0.3347200  3
   2815   2814   2817   2819     1  180.0000771  0.0000000  2
   2816   2814   2817   2818     1  0.0000000  3.3472000  1
   2816   2814   2817   2818     1  0.0000000  0.0000000  2
   2816   2814   2817   2818     1  180.0000771  0.3347200  3
   2816   2814   2817   2819     1  180.0000771  0.0000000  2
   2818   2817   2819   2820     1  0.0000000  7.9496000  1
   2818   2817   2819   2820     1  180.0000771  9.6232000  2

;[ system ]
;; Name
;Generic title
;
;[ molecules ]
;; Compound       #mols
;system1              1
